<event>
10    4  0.5389768E-005  0.2079517E+03  0.7546771E-02  0.1163231E+00
          2   -1    0    0  503    0 -0.00000000000E+00  0.00000000000E+00  0.39433116891E+03  0.39433116891E+03  0.00000000000E+00 0. -1.
         21   -1    0    0  501  502  0.00000000000E+00 -0.00000000000E+00 -0.27117112009E+03  0.27117112009E+03  0.00000000000E+00 0. -1.
         23    2    1    2    0    0 -0.33570000465E+02 -0.82779022571E+02 -0.11784849694E+02  0.12832931278E+03  0.91379529040E+02 0.  0.
         24    2    1    2    0    0  0.13477545849E+03  0.18019542603E+03 -0.42442209299E+02  0.24244490006E+03  0.79645292782E+02 0.  0.
        -11    1    4    4    0    0  0.64545464859E+02  0.14783813229E+03 -0.26112800566E+02  0.16341391846E+03  0.00000000000E+00 0.  1.
         12    1    4    4    0    0  0.70229993626E+02  0.32357293739E+02 -0.16329408734E+02  0.79030981599E+02  0.00000000000E+00 0. -1.
        -13    1    3    3    0    0 -0.49952701997E+02 -0.70377604194E+02 -0.38603992880E+02  0.94543893907E+02  0.00000000000E+00 0. -1.
         13    1    3    3    0    0  0.16382701532E+02 -0.12401418378E+02  0.26819143186E+02  0.33785418874E+02  0.00000000000E+00 0.  1.
         21    1    1    2  503  502  0.46882271201E+02 -0.29944497652E+02  0.10022168487E+03  0.11462550507E+03  0.00000000000E+00 0.  1.
          1    1    1    2  501    0 -0.14808772922E+03 -0.67471905806E+02  0.77165422942E+02  0.18010257110E+03  0.00000000000E+00 0. -1.
<scales pt_clust_5="13000.00000" pt_clust_6="13000.00000" pt_clust_7="13000.00000" pt_clust_8="13000.00000" pt_clust_9="55.62931" pt_clust_10="192.09519"></scales>
<clustering>
<clus scale="   55.629">  1  9  2 -1</clus>
<clus scale="   79.645">  5  6 -1 -1</clus>
<clus scale="   91.380">  7  8 -1 -1</clus>
<clus scale="  129.710">  1  7  2 -1</clus>
<clus scale="  192.095">  2 10  1 -1</clus>
<clus scale="  192.095">  2  5  1 -1</clus>
</clustering>
</event>
<event>
10    4  0.5389768E-005  0.1633221E+03  0.7546771E-02  0.1187641E+00
          2   -1    0    0  503    0 -0.00000000000E+00  0.00000000000E+00  0.22171940073E+03  0.22171940073E+03  0.00000000000E+00 0. -1.
         21   -1    0    0  501  502  0.00000000000E+00 -0.00000000000E+00 -0.30536813662E+03  0.30536813662E+03  0.00000000000E+00 0. -1.
         23    2    1    2    0    0  0.59298383523E+02  0.14449905927E+03  0.73604454007E+01  0.18402795751E+03  0.97035233666E+02 0.  0.
         24    2    1    2    0    0 -0.63151784507E+02 -0.91749726136E+02 -0.17963349645E+03  0.22611972264E+03  0.80347842452E+02 0.  0.
        -13    1    4    4    0    0 -0.20050030348E+02 -0.84570083128E+02 -0.14987527527E+03  0.17325328515E+03  0.00000000000E+00 0.  1.
         14    1    4    4    0    0 -0.43101754158E+02 -0.71796430078E+01 -0.29758221186E+02  0.52866437495E+02  0.00000000000E+00 0. -1.
        -11    1    3    3    0    0  0.73328506518E+02  0.64106799289E+02 -0.16977909985E+02  0.98868604778E+02  0.00000000000E+00 0. -1.
         11    1    3    3    0    0 -0.14030122994E+02  0.80392259978E+02  0.24338355386E+02  0.85159352736E+02  0.00000000000E+00 0.  1.
         21    1    1    2  503  502  0.23515961675E+02 -0.47408252407E+02  0.47792920246E+02  0.71307124997E+02  0.00000000000E+00 0. -1.
          1    1    1    2  501    0 -0.19662560692E+02 -0.53410807244E+01  0.40831394922E+02  0.45632732195E+02  0.00000000000E+00 0. -1.
<scales pt_clust_5="13000.00000" pt_clust_6="13000.00000" pt_clust_7="13000.00000" pt_clust_8="13000.00000" pt_clust_9="52.77247" pt_clust_10="20.37508"></scales>
<clustering>
<clus scale="   20.375">  2 10  1 -1</clus>
<clus scale="   52.772">  1  9  2 -1</clus>
<clus scale="   80.348">  5  6 -1 -1</clus>
<clus scale="   97.035">  7  8 -1 -1</clus>
<clus scale="  153.994">  2  5  1 -1</clus>
<clus scale="   20.375">  2  5  1 -1</clus>
</clustering>
</event>
<event>
10    4  0.5389768E-005  0.1146367E+03  0.7546771E-02  0.1256425E+00
          2   -1    0    0  503    0 -0.00000000000E+00  0.00000000000E+00  0.13131723878E+03  0.13131723878E+03  0.00000000000E+00 0. -1.
         21   -1    0    0  501  502  0.00000000000E+00 -0.00000000000E+00 -0.57447247213E+03  0.57447247213E+03  0.00000000000E+00 0. -1.
         23    2    1    2    0    0 -0.19507686975E+01 -0.83321877198E+02 -0.85424882986E+02  0.14941491245E+03  0.89894742394E+02 0.  0.
         24    2    1    2    0    0  0.36034094638E+02  0.32313459472E+02 -0.25924947967E+03  0.27497839854E+03  0.77847359052E+02 0.  0.
        -11    1    4    4    0    0 -0.17397121040E+01  0.49923367741E+02 -0.13747098173E+03  0.14626564895E+03  0.00000000000E+00 0.  1.
         12    1    4    4    0    0  0.37773806742E+02 -0.17609908268E+02 -0.12177849794E+03  0.12871274958E+03  0.00000000000E+00 0. -1.
        -11    1    3    3    0    0 -0.27139765356E+02 -0.22256578209E+02  0.70209767898E+01  0.35794081245E+02  0.00000000000E+00 0.  1.
         11    1    3    3    0    0  0.25188996658E+02 -0.61065298989E+02 -0.92445859776E+02  0.11362083120E+03  0.00000000000E+00 0. -1.
         21    1    1    2  503  502 -0.35934178414E+02  0.32482723863E+01  0.84709526956E+02  0.92073451162E+02  0.00000000000E+00 0. -1.
          1    1    1    2  501    0  0.18508524733E+01  0.47760145339E+02 -0.18319039765E+03  0.18932294876E+03  0.00000000000E+00 0. -1.
<scales pt_clust_5="13000.00000" pt_clust_6="13000.00000" pt_clust_7="13000.00000" pt_clust_8="13000.00000" pt_clust_9="36.08069" pt_clust_10="47.99752"></scales>
<clustering>
<clus scale="   36.081">  1  9  2 -1</clus>
<clus scale="   47.998">  2 10  1 -1</clus>
<clus scale="   77.847">  5  6 -1 -1</clus>
<clus scale="   89.895">  7  8 -1 -1</clus>
<clus scale="  105.455">  2  5  1 -1</clus>
<clus scale="   47.998">  2  5  1 -1</clus>
</clustering>
</event>
<event>
10    4  0.5389768E-005  0.1418212E+03  0.7546771E-02  0.1213345E+00
         21   -1    0    0  503  502  0.00000000000E+00  0.00000000000E+00  0.66118998003E+02  0.66118998003E+02  0.00000000000E+00 0.  1.
          2   -1    0    0  502    0 -0.00000000000E+00 -0.00000000000E+00 -0.75560199698E+03  0.75560199698E+03  0.00000000000E+00 0. -1.
         24    2    1    2    0    0 -0.32794807658E+02  0.69173746319E+02 -0.13735664171E+03  0.17657915260E+03  0.80329593079E+02 0.  0.
         23    2    1    2    0    0  0.66879346664E+02 -0.15106520190E+03 -0.21537834436E+03  0.28657033975E+03  0.91875928146E+02 0.  0.
        -13    1    3    3    0    0  0.11002743669E+02  0.23849555597E+02 -0.99825913630E+02  0.10322342129E+03  0.00000000000E+00 0.  1.
         14    1    3    3    0    0 -0.43797551327E+02  0.45324190721E+02 -0.37530728076E+02  0.73355731315E+02  0.00000000000E+00 0. -1.
        -13    1    4    4    0    0  0.40018897248E+02 -0.87125907325E+02 -0.18981832092E+03  0.21265801377E+03  0.00000000000E+00 0. -1.
         13    1    4    4    0    0  0.26860449416E+02 -0.63939294579E+02 -0.25560023435E+02  0.73912325982E+02  0.00000000000E+00 0.  1.
         21    1    1    2  503  501 -0.45069435732E+02  0.25215557393E+02 -0.78607721405E+02  0.94054517362E+02  0.00000000000E+00 0. -1.
          1    1    1    2  501    0  0.10984896726E+02  0.56675898193E+02 -0.25814029151E+03  0.26451698526E+03  0.00000000000E+00 0. -1.
<scales pt_clust_5="13000.00000" pt_clust_6="13000.00000" pt_clust_7="13000.00000" pt_clust_8="13000.00000" pt_clust_9="51.64376" pt_clust_10="58.67516"></scales>
<clustering>
<clus scale="   51.644">  1  9  2 -1</clus>
<clus scale="   58.675">  1 10  2 -1</clus>
<clus scale="   80.330">  5  6 -1 -1</clus>
<clus scale="   91.876">  7  8 -1 -1</clus>
<clus scale="  134.629">  2  5  1 -1</clus>
<clus scale="   51.644">  1  5  2 -1</clus>
</clustering>
</event>
<event>
10    4  0.5389768E-005  0.9615309E+02  0.7546771E-02  0.1294991E+00
         -1   -1    0    0    0  501 -0.00000000000E+00  0.00000000000E+00  0.93892131787E+02  0.93892131787E+02  0.00000000000E+00 0.  1.
         21   -1    0    0  503  502  0.00000000000E+00 -0.00000000000E+00 -0.71573364866E+03  0.71573364866E+03  0.00000000000E+00 0. -1.
         23    2    1    2    0    0  0.21119855368E+02 -0.54053694477E+02 -0.18580632894E+03  0.21540117876E+03  0.92227033776E+02 0.  0.
         24    2    1    2    0    0  0.14977869879E+02  0.13744698688E+00 -0.25761357712E+03  0.27042860049E+03  0.80885829223E+02 0.  0.
        -11    1    4    4    0    0 -0.31176828077E+02  0.12401952155E+02 -0.86624520607E+02  0.92895697406E+02  0.00000000000E+00 0.  1.
         12    1    4    4    0    0  0.46154697956E+02 -0.12264505168E+02 -0.17098905651E+03  0.17753290309E+03  0.00000000000E+00 0. -1.
        -11    1    3    3    0    0 -0.24538912680E+02 -0.17176415233E+02 -0.12553841497E+02  0.32477475458E+02  0.00000000000E+00 0.  1.
         11    1    3    3    0    0  0.45658768048E+02 -0.36877279244E+02 -0.17325248744E+03  0.18292370330E+03  0.00000000000E+00 0. -1.
         21    1    1    2  503  501  0.21625073648E+02  0.29987220746E+02  0.63748851790E+02  0.73693916458E+02  0.00000000000E+00 0.  1.
         -2    1    1    2    0  502 -0.57722798895E+02  0.23929026744E+02 -0.24217046260E+03  0.25010208474E+03  0.00000000000E+00 0.  1.
<scales pt_clust_5="13000.00000" pt_clust_6="13000.00000" pt_clust_7="13000.00000" pt_clust_8="13000.00000" pt_clust_9="36.97130" pt_clust_10="61.41028"></scales>
<clustering>
<clus scale="   36.971">  1  9  2 -1</clus>
<clus scale="   61.410">  2 10  1 -1</clus>
<clus scale="   80.886">  5  6 -1 -1</clus>
<clus scale="   85.335">  2  5  1 -1</clus>
<clus scale="   92.227">  7  8 -1 -1</clus>
<clus scale="   61.410">  2  5  1 -1</clus>
</clustering>
</event>
<event>
10    4  0.5389768E-005  0.2149533E+03  0.7546771E-02  0.1137702E+00
          2   -1    0    0  502    0 -0.00000000000E+00  0.00000000000E+00  0.61101071967E+03  0.61101071967E+03  0.00000000000E+00 0. -1.
         21   -1    0    0  503  502  0.00000000000E+00 -0.00000000000E+00 -0.10422997880E+03  0.10422997880E+03  0.00000000000E+00 0. -1.
         24    2    1    2    0    0  0.18772037795E+02 -0.83392042390E+02  0.20342051126E+03  0.23542589340E+03  0.82090345000E+02 0.  0.
         23    2    1    2    0    0  0.35430637257E+02 -0.70372679825E+02  0.21108192086E+03  0.24282574023E+03  0.90560028045E+02 0.  0.
        -11    1    3    3    0    0  0.23273826022E+02 -0.51321859503E+01  0.84494165750E+01  0.25286418307E+02  0.00000000000E+00 0.  1.
         12    1    3    3    0    0 -0.45017882271E+01 -0.78259856440E+02  0.19497109469E+03  0.21013947509E+03  0.00000000000E+00 0. -1.
        -13    1    4    4    0    0  0.58291204080E+02 -0.74825681114E+02  0.15021407086E+03  0.17765419813E+03  0.00000000000E+00 0. -1.
         13    1    4    4    0    0 -0.22860566823E+02  0.44530012894E+01  0.60867850004E+02  0.65171542102E+02  0.00000000000E+00 0.  1.
         21    1    1    2  503  501 -0.80882736788E+02  0.49684703621E+02 -0.65890309124E+00  0.94926398001E+02  0.00000000000E+00 0. -1.
          1    1    1    2  501    0  0.26680061736E+02  0.10408001859E+03  0.92937211833E+02  0.14206266683E+03  0.00000000000E+00 0. -1.
<scales pt_clust_5="13000.00000" pt_clust_6="13000.00000" pt_clust_7="13000.00000" pt_clust_8="13000.00000" pt_clust_9="94.92411" pt_clust_10="125.99239"></scales>
<clustering>
<clus scale="   82.090">  5  6 -1 -1</clus>
<clus scale="   90.560">  7  8 -1 -1</clus>
<clus scale="   92.796">  5  7 -1 -1</clus>
<clus scale="   94.924">  2  9  1 -1</clus>
<clus scale="  125.992">  2 10  1 -1</clus>
<clus scale="   94.924">  2  5  1 -1</clus>
</clustering>
</event>
<event>
10    4  0.5389768E-005  0.1083622E+03  0.7546771E-02  0.1267581E+00
         21   -1    0    0  501  502  0.00000000000E+00  0.00000000000E+00  0.55625018798E+03  0.55625018798E+03  0.00000000000E+00 0. -1.
          4   -1    0    0  503    0 -0.00000000000E+00 -0.00000000000E+00 -0.15134014726E+03  0.15134014726E+03  0.00000000000E+00 0. -1.
         23    2    1    2    0    0 -0.66474167014E+02 -0.40251512114E+02 -0.87846624580E+02  0.14761561351E+03  0.89634484404E+02 0.  0.
         24    2    1    2    0    0  0.72413680652E+01  0.20242298302E+02  0.10311156726E+03  0.13211614739E+03  0.79752699316E+02 0.  0.
        -11    1    4    4    0    0  0.95449755927E+01  0.19326074356E+02  0.11651163993E+03  0.11848867435E+03  0.00000000000E+00 0.  1.
         12    1    4    4    0    0 -0.23036075275E+01  0.91622394543E+00 -0.13400072675E+02  0.13627473047E+02  0.00000000000E+00 0. -1.
        -13    1    3    3    0    0 -0.33549820430E+02 -0.64465628312E+01  0.12778475944E+02  0.36475170605E+02  0.00000000000E+00 0.  1.
         13    1    3    3    0    0 -0.32924346584E+02 -0.33804949283E+02 -0.10062510052E+03  0.11114044291E+03  0.00000000000E+00 0. -1.
         21    1    1    2  503  502 -0.60465132252E+01  0.21552390946E+02 -0.88341869507E+01  0.24064678198E+02  0.00000000000E+00 0. -1.
          3    1    1    2  501    0  0.65279312174E+02 -0.15431771333E+01  0.39847928499E+03  0.40379389614E+03  0.00000000000E+00 0. -1.
<scales pt_clust_5="13000.00000" pt_clust_6="13000.00000" pt_clust_7="13000.00000" pt_clust_8="13000.00000" pt_clust_9="22.38450" pt_clust_10="65.16980"></scales>
<clustering>
<clus scale="   22.385">  2  9  1 -1</clus>
<clus scale="   65.170">  1 10  2 -1</clus>
<clus scale="   79.753">  5  6 -1 -1</clus>
<clus scale="   89.634">  7  8 -1 -1</clus>
<clus scale="  100.342">  1  5  2 -1</clus>
<clus scale="   65.170">  1  5  2 -1</clus>
</clustering>
</event>
<event>
10    4  0.5389768E-005  0.1187824E+03  0.7546771E-02  0.1247127E+00
         21   -1    0    0  503  502  0.00000000000E+00  0.00000000000E+00  0.92277468038E+02  0.92277468038E+02  0.00000000000E+00 0.  1.
         -1   -1    0    0    0  501 -0.00000000000E+00 -0.00000000000E+00 -0.29311887198E+03  0.29311887198E+03  0.00000000000E+00 0.  1.
         24    2    1    2    0    0  0.53187213191E+02 -0.70619405073E+02 -0.76241871219E+02  0.14202975446E+03  0.80892819242E+02 0.  0.
         23    2    1    2    0    0 -0.54453327369E+02  0.57301025017E+02 -0.32083667880E+02  0.12213126589E+03  0.87396293023E+02 0.  0.
        -11    1    3    3    0    0  0.33647312465E+02 -0.83105014456E+02 -0.38154671179E+02  0.97439027072E+02  0.00000000000E+00 0.  1.
         12    1    3    3    0    0  0.19539900727E+02  0.12485609383E+02 -0.38087200040E+02  0.44590727388E+02  0.00000000000E+00 0. -1.
        -11    1    4    4    0    0 -0.59022455289E+02  0.24409780100E+02  0.13943902930E+02  0.65375224832E+02  0.00000000000E+00 0.  1.
         11    1    4    4    0    0  0.45691279199E+01  0.32891244917E+02 -0.46027570810E+02  0.56756041060E+02  0.00000000000E+00 0. -1.
         21    1    1    2  503  501 -0.25226355240E+02  0.80869875207E+01 -0.90339776112E+02  0.94143738580E+02  0.00000000000E+00 0. -1.
         -2    1    1    2    0  502  0.26492469418E+02  0.52313925352E+01 -0.21760887347E+01  0.27091581089E+02  0.00000000000E+00 0.  1.
<scales pt_clust_5="13000.00000" pt_clust_6="13000.00000" pt_clust_7="13000.00000" pt_clust_8="13000.00000" pt_clust_9="26.49091" pt_clust_10="25.33248"></scales>
<clustering>
<clus scale="   26.491">  2  9  1 -1</clus>
<clus scale="   25.332">  1 10  2 -1</clus>
<clus scale="   80.893">  5  6 -1 -1</clus>
<clus scale="   87.396">  7  8 -1 -1</clus>
<clus scale="  114.082">  2  5  1 -1</clus>
<clus scale="   25.332">  1  5  2 -1</clus>
</clustering>
</event>
<event>
10    4  0.5389768E-005  0.1707774E+03  0.7546771E-02  0.1209495E+00
         21   -1    0    0  501  502  0.00000000000E+00  0.00000000000E+00  0.38106428870E+03  0.38106428870E+03  0.00000000000E+00 0. -1.
          2   -1    0    0  503    0 -0.00000000000E+00 -0.00000000000E+00 -0.14596252558E+03  0.14596252558E+03  0.00000000000E+00 0. -1.
         24    2    1    2    0    0 -0.14887724403E+02  0.11027055766E+02  0.40119462198E+02  0.92620375338E+02  0.81398540429E+02 0.  0.
         23    2    1    2    0    0 -0.12713861680E+03  0.46846943648E+02  0.76517911164E+01  0.16411397163E+03  0.92282077164E+02 0.  0.
        -11    1    3    3    0    0  0.35520044768E+01 -0.31226401507E+02 -0.11893787641E+00  0.31427997600E+02  0.00000000000E+00 0.  1.
         12    1    3    3    0    0 -0.18439728879E+02  0.42253457273E+02  0.40238400075E+02  0.61192377738E+02  0.00000000000E+00 0. -1.
        -11    1    4    4    0    0 -0.25681632599E+02  0.51895807010E+02  0.21137476547E+02  0.61640197542E+02  0.00000000000E+00 0.  1.
         11    1    4    4    0    0 -0.10145698420E+03 -0.50488633618E+01 -0.13485685431E+02  0.10247377409E+03  0.00000000000E+00 0. -1.
         21    1    1    2  503  502  0.20634829859E+02  0.25852736511E+02  0.15701086677E+01  0.33115335264E+02  0.00000000000E+00 0. -1.
          1    1    1    2  501    0  0.12139151134E+03 -0.83726735926E+02  0.18576040114E+03  0.23717713204E+03  0.00000000000E+00 0. -1.
<scales pt_clust_5="13000.00000" pt_clust_6="13000.00000" pt_clust_7="13000.00000" pt_clust_8="13000.00000" pt_clust_9="33.07809" pt_clust_10="143.69733"></scales>
<clustering>
<clus scale="   33.078">  2  9  1 -1</clus>
<clus scale="   81.399">  5  6 -1 -1</clus>
<clus scale="   83.693">  2  5  1 -1</clus>
<clus scale="   92.282">  7  8 -1 -1</clus>
<clus scale="  143.697">  1 10  2 -1</clus>
<clus scale="  143.697">  1  5  2 -1</clus>
</clustering>
</event>
<event>
10    4  0.5389768E-005  0.2668348E+03  0.7546771E-02  0.1108393E+00
         21   -1    0    0  503  502  0.00000000000E+00  0.00000000000E+00  0.51805887843E+03  0.51805887843E+03  0.00000000000E+00 0. -1.
          4   -1    0    0  502    0 -0.00000000000E+00 -0.00000000000E+00 -0.74535933994E+03  0.74535933994E+03  0.00000000000E+00 0. -1.
         24    2    1    2    0    0 -0.20259386094E+03 -0.80732302591E+02 -0.14513301182E+02  0.23341376522E+03  0.81910760663E+02 0.  0.
         23    2    1    2    0    0  0.22174439237E+03 -0.13845422473E+03  0.33439283969E+03  0.43371597583E+03  0.89167418719E+02 0.  0.
        -11    1    3    3    0    0 -0.10793452859E+03 -0.81042204505E+02 -0.27858092017E+02  0.13781790400E+03  0.00000000000E+00 0.  1.
         12    1    3    3    0    0 -0.94659332345E+02  0.30990191403E+00  0.13344790836E+02  0.95595861216E+02  0.00000000000E+00 0. -1.
        -13    1    4    4    0    0  0.23574481721E+02 -0.37350767336E+02  0.10622140855E+03  0.11503835727E+03  0.00000000000E+00 0.  1.
         13    1    4    4    0    0  0.19816991065E+03 -0.10110345740E+03  0.22817143115E+03  0.31867761857E+03  0.00000000000E+00 0. -1.
         21    1    1    2  503  501  0.17983079030E+02  0.42690214126E+02 -0.53907270437E+02  0.71076292246E+02  0.00000000000E+00 0. -1.
          3    1    1    2  501    0 -0.37133610461E+02  0.17649631320E+03 -0.49327272959E+03  0.52521218508E+03  0.00000000000E+00 0. -1.
<scales pt_clust_5="13000.00000" pt_clust_6="13000.00000" pt_clust_7="13000.00000" pt_clust_8="13000.00000" pt_clust_9="44.59912" pt_clust_10="266.44803"></scales>
<clustering>
<clus scale="   44.599">  9 10 -1 -1</clus>
<clus scale="   81.911">  5  6 -1 -1</clus>
<clus scale="   89.167">  7  8 -1 -1</clus>
<clus scale="  232.962">  2  5  1 -1</clus>
<clus scale="  266.448">  1  9  2 -1</clus>
<clus scale="  266.448">  1  5  2 -1</clus>
</clustering>
</event>
<event>
10    4  0.5389768E-005  0.1462195E+03  0.7546771E-02  0.1222150E+00
         21   -1    0    0  501  502  0.00000000000E+00  0.00000000000E+00  0.19979806039E+03  0.19979806039E+03  0.00000000000E+00 0. -1.
          2   -1    0    0  503    0 -0.00000000000E+00 -0.00000000000E+00 -0.12665494139E+04  0.12665494139E+04  0.00000000000E+00 0. -1.
         24    2    1    2    0    0 -0.71462409927E+02 -0.72043396627E+02 -0.59418344675E+03  0.60814918167E+03  0.80587416774E+02 0.  0.
         23    2    1    2    0    0 -0.37186157846E+02 -0.74536159556E+01  0.44612935064E+02  0.10753405912E+03  0.90193642623E+02 0.  0.
        -11    1    3    3    0    0 -0.79769211463E+02 -0.28808508973E+02 -0.35917477136E+03  0.36905226414E+03  0.00000000000E+00 0.  1.
         12    1    3    3    0    0  0.83068015363E+01 -0.43234887654E+02 -0.23500867539E+03  0.23909691753E+03  0.00000000000E+00 0. -1.
        -11    1    4    4    0    0 -0.97631015245E+01  0.41007052528E+02  0.18541143929E+02  0.46050738611E+02  0.00000000000E+00 0. -1.
         11    1    4    4    0    0 -0.27423056321E+02 -0.48460668483E+02  0.26071791135E+02  0.61483320509E+02  0.00000000000E+00 0.  1.
         21    1    1    2  503  502  0.82004938349E+02  0.12518863046E+03 -0.61851162027E+03  0.63635966836E+03  0.00000000000E+00 0. -1.
          1    1    1    2  501    0  0.26643629423E+02 -0.45691617881E+02  0.10133077848E+03  0.11430456509E+03  0.00000000000E+00 0. -1.
<scales pt_clust_5="13000.00000" pt_clust_6="13000.00000" pt_clust_7="13000.00000" pt_clust_8="13000.00000" pt_clust_9="122.00744" pt_clust_10="52.89241"></scales>
<clustering>
<clus scale="   52.892">  1 10  2 -1</clus>
<clus scale="   80.587">  5  6 -1 -1</clus>
<clus scale="   90.194">  7  8 -1 -1</clus>
<clus scale="  102.036">  1  7  2 -1</clus>
<clus scale="  122.007">  1  9  2 -1</clus>
<clus scale="   52.892">  1  5  2 -1</clus>
</clustering>
</event>
<event>
10    4  0.5389768E-005  0.3126512E+03  0.7546771E-02  0.1131531E+00
          2   -1    0    0  503    0 -0.00000000000E+00  0.00000000000E+00  0.10502960286E+04  0.10502960286E+04  0.00000000000E+00 0. -1.
         21   -1    0    0  501  502  0.00000000000E+00 -0.00000000000E+00 -0.29726968064E+03  0.29726968064E+03  0.00000000000E+00 0. -1.
         24    2    1    2    0    0  0.82028904693E+01 -0.15924730228E+02 -0.84471259256E+02  0.11723745780E+03  0.79299075819E+02 0.  0.
         23    2    1    2    0    0 -0.10614364099E+02  0.29190007725E+03  0.78831233731E+03  0.84557121949E+03  0.90752555001E+02 0.  0.
        -11    1    3    3    0    0 -0.21479839263E+02 -0.12650244020E+02 -0.83733670346E+02  0.87365552240E+02  0.00000000000E+00 0.  1.
         12    1    3    3    0    0  0.29682729732E+02 -0.32744862081E+01 -0.73758891001E+00  0.29871905558E+02  0.00000000000E+00 0. -1.
        -11    1    4    4    0    0 -0.18778940192E+02  0.59479605322E+02  0.89609403969E+02  0.10918020573E+03  0.00000000000E+00 0.  1.
         11    1    4    4    0    0  0.81645760925E+01  0.23242047193E+03  0.69870293335E+03  0.73639101376E+03  0.00000000000E+00 0. -1.
         21    1    1    2  503  502 -0.21580335320E+02  0.23486120339E+02  0.76711067880E+02  0.83077654374E+02  0.00000000000E+00 0. -1.
          1    1    1    2  501    0  0.23991808950E+02 -0.29946146736E+03 -0.27525797942E+02  0.30167937762E+03  0.00000000000E+00 0. -1.
<scales pt_clust_5="13000.00000" pt_clust_6="13000.00000" pt_clust_7="13000.00000" pt_clust_8="13000.00000" pt_clust_9="31.89528" pt_clust_10="299.19011"></scales>
<clustering>
<clus scale="   31.895">  1  9  2 -1</clus>
<clus scale="   79.299">  5  6 -1 -1</clus>
<clus scale="   81.184">  1  5  2 -1</clus>
<clus scale="   90.753">  7  8 -1 -1</clus>
<clus scale="  299.190">  2 10  1 -1</clus>
<clus scale="  299.190">  2  5  1 -1</clus>
</clustering>
</event>
<event>
10    4  0.5389768E-005  0.1475359E+03  0.7546771E-02  0.1206035E+00
         21   -1    0    0  503  502  0.00000000000E+00  0.00000000000E+00  0.14899665282E+03  0.14899665282E+03  0.00000000000E+00 0.  1.
         -1   -1    0    0    0  501 -0.00000000000E+00 -0.00000000000E+00 -0.49392734820E+03  0.49392734820E+03  0.00000000000E+00 0.  1.
         23    2    1    2    0    0  0.12367437948E+03 -0.52271449763E+02 -0.12899869569E+03  0.20704033756E+03  0.90539390825E+02 0.  0.
         24    2    1    2    0    0 -0.87168371582E+02  0.10432082569E+03  0.17910576300E+02  0.15740217038E+03  0.77288387350E+02 0.  0.
        -11    1    4    4    0    0 -0.83936242896E+01  0.62191996598E+02 -0.10569348312E+02  0.63639677036E+02  0.00000000000E+00 0.  1.
         12    1    4    4    0    0 -0.78774747292E+02  0.42128829093E+02  0.28479924612E+02  0.93762493342E+02  0.00000000000E+00 0. -1.
        -13    1    3    3    0    0  0.45422292838E+02 -0.47411323773E+02 -0.12846229555E+02  0.66903242988E+02  0.00000000000E+00 0. -1.
         13    1    3    3    0    0  0.78252086640E+02 -0.48601259899E+01 -0.11615246613E+03  0.14013709458E+03  0.00000000000E+00 0.  1.
         21    1    1    2  503  501 -0.37797414781E+02  0.39228011856E+02 -0.12546960981E+03  0.13678488391E+03  0.00000000000E+00 0. -1.
         -2    1    1    2    0  502  0.12914068850E+01 -0.91277387784E+02 -0.10837296618E+03  0.14169660917E+03  0.00000000000E+00 0.  1.
<scales pt_clust_5="13000.00000" pt_clust_6="13000.00000" pt_clust_7="13000.00000" pt_clust_8="13000.00000" pt_clust_9="54.47459" pt_clust_10="78.63848"></scales>
<clustering>
<clus scale="   54.475">  2  9  1 -1</clus>
<clus scale="   77.288">  5  6 -1 -1</clus>
<clus scale="   78.638">  1 10  2 -1</clus>
<clus scale="   90.539">  7  8 -1 -1</clus>
<clus scale="  139.796">  1  5  2 -1</clus>
<clus scale="   78.638">  1  5  2 -1</clus>
</clustering>
</event>
<event>
10    4  0.5389768E-005  0.1254308E+03  0.7546771E-02  0.1236868E+00
          2   -1    0    0  503    0 -0.00000000000E+00  0.00000000000E+00  0.76593631043E+03  0.76593631043E+03  0.00000000000E+00 0. -1.
         21   -1    0    0  501  502  0.00000000000E+00 -0.00000000000E+00 -0.84926666739E+02  0.84926666739E+02  0.00000000000E+00 0.  1.
         23    2    1    2    0    0  0.73993648391E+02 -0.11010666249E+02  0.23621530452E+03  0.26377234265E+03  0.90453766567E+02 0.  0.
         24    2    1    2    0    0 -0.11565668578E+03 -0.45326678300E+02  0.21629890090E+02  0.15022709065E+03  0.81666087748E+02 0.  0.
        -13    1    4    4    0    0 -0.98319748658E+02 -0.43561901589E+01 -0.47059805845E+01  0.98528653813E+02  0.00000000000E+00 0.  1.
         14    1    4    4    0    0 -0.17336937126E+02 -0.40970488141E+02  0.26335870674E+02  0.51698436839E+02  0.00000000000E+00 0. -1.
        -13    1    3    3    0    0  0.69922274564E+02  0.24528839555E+02  0.11033704937E+03  0.13290994287E+03  0.00000000000E+00 0.  1.
         13    1    3    3    0    0  0.40713738267E+01 -0.35539505804E+02  0.12587825514E+03  0.13086239978E+03  0.00000000000E+00 0. -1.
         21    1    1    2  503  502  0.17378002383E+02 -0.17016318048E+02  0.47837992586E+02  0.53665851166E+02  0.00000000000E+00 0. -1.
          1    1    1    2  501    0  0.24285035011E+02  0.73353662597E+02  0.37532645650E+03  0.38319769270E+03  0.00000000000E+00 0. -1.
<scales pt_clust_5="13000.00000" pt_clust_6="13000.00000" pt_clust_7="13000.00000" pt_clust_8="13000.00000" pt_clust_9="24.32180" pt_clust_10="72.53022"></scales>
<clustering>
<clus scale="   24.322">  1  9  2 -1</clus>
<clus scale="   72.530">  2 10  1 -1</clus>
<clus scale="   81.666">  5  6 -1 -1</clus>
<clus scale="   90.454">  7  8 -1 -1</clus>
<clus scale="  119.249">  2  5  1 -1</clus>
<clus scale="   72.530">  2  5  1 -1</clus>
</clustering>
</event>
<event>
10    4  0.5389768E-005  0.9275171E+02  0.7546771E-02  0.1304402E+00
         21   -1    0    0  503  502  0.00000000000E+00  0.00000000000E+00  0.11951510898E+03  0.11951510898E+03  0.00000000000E+00 0.  1.
         -3   -1    0    0    0  501 -0.00000000000E+00 -0.00000000000E+00 -0.22946761015E+03  0.22946761015E+03  0.00000000000E+00 0.  1.
         23    2    1    2    0    0  0.29018206169E+02 -0.56831098892E+01 -0.92482273052E+02  0.13366807609E+03  0.91868545815E+02 0.  0.
         24    2    1    2    0    0  0.15146618296E+02 -0.19802970869E+02  0.42480461471E+02  0.93008828485E+02  0.78895341233E+02 0.  0.
        -11    1    4    4    0    0  0.46937197384E+02 -0.19255467679E+02  0.22849015506E+02  0.55641271044E+02  0.00000000000E+00 0.  1.
         12    1    4    4    0    0 -0.31790579087E+02 -0.54750318968E+00  0.19631445964E+02  0.37367557441E+02  0.00000000000E+00 0. -1.
        -11    1    3    3    0    0  0.61770023374E+02  0.30608997338E+01 -0.67565061564E+02  0.91596628971E+02  0.00000000000E+00 0.  1.
         11    1    3    3    0    0 -0.32751817205E+02 -0.87440096231E+01 -0.24917211489E+02  0.42071447121E+02  0.00000000000E+00 0. -1.
         21    1    1    2  503  501 -0.27246836504E+02 -0.29988604538E+02 -0.48485033673E+02  0.63186272179E+02  0.00000000000E+00 0.  1.
         -4    1    1    2    0  502 -0.16917987962E+02  0.55474685295E+02 -0.11465655913E+02  0.59119542377E+02  0.00000000000E+00 0.  1.
<scales pt_clust_5="13000.00000" pt_clust_6="13000.00000" pt_clust_7="13000.00000" pt_clust_8="13000.00000" pt_clust_9="40.51798" pt_clust_10="54.24562"></scales>
<clustering>
<clus scale="   40.518">  2  9  1 -1</clus>
<clus scale="   54.246">  1 10  2 -1</clus>
<clus scale="   78.895">  5  6 -1 -1</clus>
<clus scale="   79.922">  1  5  2 -1</clus>
<clus scale="   91.869">  7  8 -1 -1</clus>
<clus scale="   54.246">  1  5  2 -1</clus>
</clustering>
</event>
<event>
10    4  0.5389768E-005  0.9347473E+02  0.7546771E-02  0.1302992E+00
         21   -1    0    0  501  502  0.00000000000E+00  0.00000000000E+00  0.82819823671E+02  0.82819823671E+02  0.00000000000E+00 0. -1.
          2   -1    0    0  503    0 -0.00000000000E+00 -0.00000000000E+00 -0.33449069299E+03  0.33449069299E+03  0.00000000000E+00 0. -1.
         24    2    1    2    0    0 -0.19984820475E+02 -0.93415979444E+01 -0.12013245896E+03  0.14511394882E+03  0.78355548256E+02 0.  0.
         23    2    1    2    0    0  0.11341460799E+02 -0.36178827170E+02 -0.50036205108E+02  0.11134689552E+03  0.91961802131E+02 0.  0.
        -11    1    3    3    0    0 -0.40921663225E+02  0.23334364872E+01 -0.27327098515E+02  0.49262539116E+02  0.00000000000E+00 0.  1.
         12    1    3    3    0    0  0.20936842750E+02 -0.11675034432E+02 -0.92805360449E+02  0.95851409700E+02  0.00000000000E+00 0. -1.
        -13    1    4    4    0    0  0.54281028736E+01 -0.67421835472E+02 -0.32682804919E+02  0.75122126811E+02  0.00000000000E+00 0. -1.
         13    1    4    4    0    0  0.59133579257E+01  0.31243008302E+02 -0.17353400189E+02  0.36224768706E+02  0.00000000000E+00 0.  1.
         21    1    1    2  503  502  0.28806823175E+01 -0.23583849041E+02 -0.88047980457E+02  0.91197275884E+02  0.00000000000E+00 0.  1.
          1    1    1    2  501    0  0.57626773585E+01  0.69104274156E+02  0.65457752125E+01  0.69652396442E+02  0.00000000000E+00 0. -1.
<scales pt_clust_5="13000.00000" pt_clust_6="13000.00000" pt_clust_7="13000.00000" pt_clust_8="13000.00000" pt_clust_9="23.75913" pt_clust_10="66.34944"></scales>
<clustering>
<clus scale="   23.759">  2  9  1 -1</clus>
<clus scale="   66.349">  1 10  2 -1</clus>
<clus scale="   78.356">  5  6 -1 -1</clus>
<clus scale="   80.126">  2  5  1 -1</clus>
<clus scale="   91.962">  7  8 -1 -1</clus>
<clus scale="   66.349">  1  5  2 -1</clus>
</clustering>
</event>
<event>
10    4  0.5389768E-005  0.4950043E+03  0.7546771E-02  0.1044549E+00
         21   -1    0    0  501  502  0.00000000000E+00  0.00000000000E+00  0.14505367159E+04  0.14505367159E+04  0.00000000000E+00 0.  1.
          2   -1    0    0  503    0 -0.00000000000E+00 -0.00000000000E+00 -0.10515796010E+04  0.10515796010E+04  0.00000000000E+00 0. -1.
         24    2    1    2    0    0  0.86660320809E+02  0.12608754718E+03 -0.34183076975E+03  0.38247769796E+03  0.77671317324E+02 0.  0.
         23    2    1    2    0    0  0.45063462562E+03 -0.97781987931E+02  0.10216698854E+04  0.11261845544E+04  0.10885500808E+03 0.  0.
        -11    1    3    3    0    0  0.98791501318E+02  0.99960223499E+02 -0.25741005386E+03  0.29327758667E+03  0.00000000000E+00 0.  1.
         12    1    3    3    0    0 -0.12131180510E+02  0.26127323679E+02 -0.84420715895E+02  0.89200111297E+02  0.00000000000E+00 0. -1.
        -13    1    4    4    0    0  0.38573690047E+02  0.17499891580E+02  0.13830861483E+03  0.14464939926E+03  0.00000000000E+00 0.  1.
         13    1    4    4    0    0  0.41206093557E+03 -0.11528187951E+03  0.88336127062E+03  0.98153515515E+03  0.00000000000E+00 0. -1.
         21    1    1    2  503  502  0.79881564343E+02  0.29207655819E+02 -0.35878378482E+03  0.36872748166E+03  0.00000000000E+00 0. -1.
          1    1    1    2  501    0 -0.61717651077E+03 -0.57513215066E+02  0.77901784081E+02  0.62472658285E+03  0.00000000000E+00 0. -1.
<scales pt_clust_5="13000.00000" pt_clust_6="13000.00000" pt_clust_7="13000.00000" pt_clust_8="13000.00000" pt_clust_9="85.05382" pt_clust_10="482.88720"></scales>
<clustering>
<clus scale="   77.671">  5  6 -1 -1</clus>
<clus scale="   85.054">  2  9  1 -1</clus>
<clus scale="  108.855">  7  8 -1 -1</clus>
<clus scale="  206.432">  2  5  1 -1</clus>
<clus scale="  482.887">  1 10  2 -1</clus>
<clus scale="  482.887">  1  5  2 -1</clus>
</clustering>
</event>
<event>
10    4  0.5389768E-005  0.3226438E+03  0.7546771E-02  0.1085486E+00
          2   -1    0    0  502    0 -0.00000000000E+00  0.00000000000E+00  0.42208029054E+03  0.42208029054E+03  0.00000000000E+00 0. -1.
         21   -1    0    0  503  502  0.00000000000E+00 -0.00000000000E+00 -0.50982620818E+03  0.50982620818E+03  0.00000000000E+00 0.  1.
         24    2    1    2    0    0 -0.56314241424E+02 -0.22025145281E+03  0.14783708592E+02  0.24004503310E+03  0.75637712961E+02 0.  0.
         23    2    1    2    0    0 -0.19443548577E+03  0.31498212670E+03 -0.13830068727E+03  0.40468857512E+03  0.87331921233E+02 0.  0.
        -13    1    3    3    0    0 -0.21418334663E+02 -0.18852346987E+03 -0.26717323865E+01  0.18975505766E+03  0.00000000000E+00 0.  1.
         14    1    3    3    0    0 -0.34895906761E+02 -0.31727982941E+02  0.17455440979E+02  0.50289975442E+02  0.00000000000E+00 0. -1.
        -13    1    4    4    0    0 -0.43640895048E+02  0.18914146574E+02 -0.10563900108E+02  0.48722362902E+02  0.00000000000E+00 0. -1.
         13    1    4    4    0    0 -0.15079459073E+03  0.29606798012E+03 -0.12773678716E+03  0.35596621222E+03  0.00000000000E+00 0.  1.
         21    1    1    2  503  501  0.23434721354E+02 -0.44779325896E+02  0.18403490272E+02  0.53787197796E+02  0.00000000000E+00 0. -1.
          1    1    1    2  501    0  0.22731500584E+03 -0.49951347990E+02  0.17367570764E+02  0.23338569271E+03  0.00000000000E+00 0. -1.
<scales pt_clust_5="13000.00000" pt_clust_6="13000.00000" pt_clust_7="13000.00000" pt_clust_8="13000.00000" pt_clust_9="45.03455" pt_clust_10="45.03455"></scales>
<clustering>
<clus scale="   45.035">  9 10 -1 -1</clus>
<clus scale="   75.638">  5  6 -1 -1</clus>
<clus scale="   87.332">  7  8 -1 -1</clus>
<clus scale="  239.589">  1  5  2 -1</clus>
<clus scale="  319.979">  1  7  2 -1</clus>
<clus scale="  322.644">  2  5  1 -1</clus>
</clustering>
</event>
<event>
10    4  0.5389768E-005  0.1251916E+03  0.7546771E-02  0.1237628E+00
         -1   -1    0    0    0  501 -0.00000000000E+00  0.00000000000E+00  0.53365762327E+03  0.53365762327E+03  0.00000000000E+00 0.  1.
         21   -1    0    0  503  502  0.00000000000E+00 -0.00000000000E+00 -0.12808061219E+03  0.12808061219E+03  0.00000000000E+00 0.  1.
         23    2    1    2    0    0  0.75739407123E+02 -0.57401222682E+02  0.22761857484E+03  0.26310376911E+03  0.91553369982E+02 0.  0.
         24    2    1    2    0    0  0.91073812219E+01  0.39551026399E+02 -0.63988088668E+02  0.11133696970E+03  0.81573385667E+02 0.  0.
        -11    1    4    4    0    0  0.27383742499E+02  0.30942059612E+02 -0.76944417964E+02  0.87336841379E+02  0.00000000000E+00 0.  1.
         12    1    4    4    0    0 -0.18276361277E+02  0.86089667877E+01  0.12956329296E+02  0.24000128323E+02  0.00000000000E+00 0. -1.
        -11    1    3    3    0    0  0.14462897808E+02 -0.67653158421E+02  0.10684302244E+03  0.12728533576E+03  0.00000000000E+00 0. -1.
         11    1    3    3    0    0  0.61276509315E+02  0.10251935738E+02  0.12077555240E+03  0.13581843335E+03  0.00000000000E+00 0.  1.
         21    1    1    2  503  501 -0.45195265135E+02 -0.48993577835E+02  0.16489108992E+03  0.17785402496E+03  0.00000000000E+00 0.  1.
         -2    1    1    2    0  502 -0.39651523210E+02  0.66843774118E+02  0.77055434991E+02  0.10944347168E+03  0.00000000000E+00 0.  1.
<scales pt_clust_5="13000.00000" pt_clust_6="13000.00000" pt_clust_7="13000.00000" pt_clust_8="13000.00000" pt_clust_9="66.65570" pt_clust_10="74.64140"></scales>
<clustering>
<clus scale="   66.656">  1  9  2 -1</clus>
<clus scale="   74.641">  2 10  1 -1</clus>
<clus scale="   81.573">  5  6 -1 -1</clus>
<clus scale="   91.553">  7  8 -1 -1</clus>
<clus scale="  118.089">  2  5  1 -1</clus>
<clus scale="   74.641">  2  5  1 -1</clus>
</clustering>
</event>
<event>
10    4  0.5389768E-005  0.1049724E+03  0.7546771E-02  0.1275411E+00
         21   -1    0    0  501  502  0.00000000000E+00  0.00000000000E+00  0.34928648246E+03  0.34928648246E+03  0.00000000000E+00 0.  1.
          4   -1    0    0  503    0 -0.00000000000E+00 -0.00000000000E+00 -0.18984949665E+03  0.18984949665E+03  0.00000000000E+00 0. -1.
         24    2    1    2    0    0 -0.26926148392E+02 -0.57494685034E+02 -0.10464399621E+03  0.14723027213E+03  0.81827445355E+02 0.  0.
         23    2    1    2    0    0  0.42853300285E+01 -0.14256599545E+02  0.19073643683E+03  0.21286171295E+03  0.93317232182E+02 0.  0.
        -13    1    3    3    0    0  0.23817669754E+02 -0.43965888601E+02 -0.61513623529E+02  0.79272988039E+02  0.00000000000E+00 0.  1.
         14    1    3    3    0    0 -0.50743818146E+02 -0.13528796433E+02 -0.43130372683E+02  0.67957284089E+02  0.00000000000E+00 0. -1.
        -11    1    4    4    0    0  0.13368772010E+02 -0.50802559777E+02  0.14106547073E+03  0.15052936982E+03  0.00000000000E+00 0. -1.
         11    1    4    4    0    0 -0.90834419814E+01  0.36545960232E+02  0.49670966102E+02  0.62332343137E+02  0.00000000000E+00 0.  1.
         21    1    1    2  503  502 -0.19099860523E+02  0.27573216624E+02 -0.38922172913E+02  0.51381149182E+02  0.00000000000E+00 0.  1.
          3    1    1    2  501    0  0.41740678887E+02  0.44178067955E+02  0.11226671810E+03  0.12766284485E+03  0.00000000000E+00 0. -1.
<scales pt_clust_5="13000.00000" pt_clust_6="13000.00000" pt_clust_7="13000.00000" pt_clust_8="13000.00000" pt_clust_9="33.54232" pt_clust_10="61.17151"></scales>
<clustering>
<clus scale="   33.542">  2  9  1 -1</clus>
<clus scale="   61.172">  1 10  2 -1</clus>
<clus scale="   81.827">  5  6 -1 -1</clus>
<clus scale="   93.317">  7  8 -1 -1</clus>
<clus scale="   94.904">  2  5  1 -1</clus>
<clus scale="   61.172">  1  5  2 -1</clus>
</clustering>
</event>
<event>
10    4  0.5389768E-005  0.1995422E+03  0.7546771E-02  0.1151944E+00
          2   -1    0    0  503    0 -0.00000000000E+00  0.00000000000E+00  0.34163163882E+03  0.34163163882E+03  0.00000000000E+00 0. -1.
         21   -1    0    0  501  502  0.00000000000E+00 -0.00000000000E+00 -0.26726502964E+03  0.26726502964E+03  0.00000000000E+00 0. -1.
         24    2    1    2    0    0  0.14565745701E+03  0.33325506419E+02 -0.26717514663E+02  0.16697294119E+03  0.69566179557E+02 0.  0.
         23    2    1    2    0    0 -0.21581664550E+03  0.60927188006E+02  0.38677955724E+01  0.24171212174E+03  0.90115721392E+02 0.  0.
        -13    1    3    3    0    0  0.29073449698E+02 -0.20769487085E+02 -0.13695195855E+00  0.35730320835E+02  0.00000000000E+00 0.  1.
         14    1    3    3    0    0  0.11658400731E+03  0.54094993505E+02 -0.26580562704E+02  0.13124262035E+03  0.00000000000E+00 0. -1.
        -13    1    4    4    0    0 -0.17351205868E+03  0.59435101795E+02  0.38036293509E+02  0.18731184014E+03  0.00000000000E+00 0. -1.
         13    1    4    4    0    0 -0.42304586820E+02  0.14920862101E+01 -0.34168497937E+02  0.54400281604E+02  0.00000000000E+00 0.  1.
         21    1    1    2  503  502  0.12754883363E+02 -0.39783050401E+02  0.11215183416E+03  0.11968045811E+03  0.00000000000E+00 0. -1.
          1    1    1    2  501    0  0.57404305125E+02 -0.54469644024E+02 -0.14935505886E+02  0.80531147410E+02  0.00000000000E+00 0. -1.
<scales pt_clust_5="13000.00000" pt_clust_6="13000.00000" pt_clust_7="13000.00000" pt_clust_8="13000.00000" pt_clust_9="41.77772" pt_clust_10="84.50785"></scales>
<clustering>
<clus scale="   41.778">  1  9  2 -1</clus>
<clus scale="   69.566">  5  6 -1 -1</clus>
<clus scale="   84.508">  2 10  1 -1</clus>
<clus scale="   90.116">  7  8 -1 -1</clus>
<clus scale="  191.143">  1  5  2 -1</clus>
<clus scale="   84.508">  2  5  1 -1</clus>
</clustering>
</event>
<event>
10    4  0.5389768E-005  0.1467711E+03  0.7546771E-02  0.1207446E+00
         -3   -1    0    0    0  501 -0.00000000000E+00  0.00000000000E+00  0.22857183853E+03  0.22857183853E+03  0.00000000000E+00 0.  1.
         21   -1    0    0  503  502  0.00000000000E+00 -0.00000000000E+00 -0.16721897877E+03  0.16721897877E+03  0.00000000000E+00 0.  1.
         23    2    1    2    0    0  0.11796552336E+03  0.45497339508E+00  0.10503142543E+03  0.18166287148E+03  0.89742558716E+02 0.  0.
         24    2    1    2    0    0 -0.10204164077E+03  0.41508141019E+02 -0.14152120467E+02  0.13350814667E+03  0.74085899408E+02 0.  0.
        -11    1    4    4    0    0 -0.50409974992E+02  0.59587244939E+02 -0.85032407046E+01  0.78511849046E+02  0.00000000000E+00 0.  1.
         12    1    4    4    0    0 -0.51631665776E+02 -0.18079103920E+02 -0.56488797626E+01  0.54996297621E+02  0.00000000000E+00 0. -1.
        -11    1    3    3    0    0  0.76611689656E+02  0.43743208008E+02  0.66359835206E+02  0.11039224143E+03  0.00000000000E+00 0.  1.
         11    1    3    3    0    0  0.41353833703E+02 -0.43288234613E+02  0.38671590228E+02  0.71270630056E+02  0.00000000000E+00 0. -1.
         21    1    1    2  503  501  0.69464843617E+01 -0.18844148047E+02  0.15294390035E+02  0.25244285039E+02  0.00000000000E+00 0.  1.
         -4    1    1    2    0  502 -0.22870366952E+02 -0.23118966367E+02 -0.44820835241E+02  0.55375514102E+02  0.00000000000E+00 0.  1.
<scales pt_clust_5="13000.00000" pt_clust_6="13000.00000" pt_clust_7="13000.00000" pt_clust_8="13000.00000" pt_clust_9="20.08371" pt_clust_10="32.73872"></scales>
<clustering>
<clus scale="   20.084">  1  9  2 -1</clus>
<clus scale="   32.739">  2 10  1 -1</clus>
<clus scale="   74.086">  5  6 -1 -1</clus>
<clus scale="   89.743">  7  8 -1 -1</clus>
<clus scale="  137.756">  2  5  1 -1</clus>
<clus scale="   32.739">  2  5  1 -1</clus>
</clustering>
</event>
<event>
10    4  0.5389768E-005  0.2973306E+03  0.7546771E-02  0.1101180E+00
          2   -1    0    0  503    0 -0.00000000000E+00  0.00000000000E+00  0.37318397142E+04  0.37318397142E+04  0.00000000000E+00 0. -1.
         21   -1    0    0  501  502  0.00000000000E+00 -0.00000000000E+00 -0.70067493393E+02  0.70067493393E+02  0.00000000000E+00 0.  1.
         23    2    1    2    0    0 -0.20003293993E+03  0.62053787713E+02  0.62751977745E+03  0.66752480304E+03  0.89131599156E+02 0.  0.
         24    2    1    2    0    0 -0.18206323623E+02 -0.29856066429E+03  0.68435398023E+03  0.75120378095E+03  0.80602790181E+02 0.  0.
        -13    1    4    4    0    0 -0.37305673404E+02 -0.20124853667E+03  0.52530300311E+03  0.56376939599E+03  0.00000000000E+00 0.  1.
         14    1    4    4    0    0  0.19099349782E+02 -0.97312127627E+02  0.15905097712E+03  0.18743438497E+03  0.00000000000E+00 0. -1.
        -11    1    3    3    0    0 -0.16845952707E+03  0.83819282817E+02  0.49453312318E+03  0.52911935738E+03  0.00000000000E+00 0. -1.
         11    1    3    3    0    0 -0.31573412857E+02 -0.21765495104E+02  0.13298665426E+03  0.13840544566E+03  0.00000000000E+00 0.  1.
         21    1    1    2  503  502  0.11897350762E+03 -0.14489854649E+02  0.94667739924E+03  0.95423411678E+03  0.00000000000E+00 0.  1.
          1    1    1    2  501    0  0.99265755930E+02  0.25099673123E+03  0.14032210639E+04  0.14289445068E+04  0.00000000000E+00 0. -1.
<scales pt_clust_5="13000.00000" pt_clust_6="13000.00000" pt_clust_7="13000.00000" pt_clust_8="13000.00000" pt_clust_9="119.85262" pt_clust_10="286.19705"></scales>
<clustering>
<clus scale="   80.603">  5  6 -1 -1</clus>
<clus scale="   89.132">  7  8 -1 -1</clus>
<clus scale="  119.853">  1  9  2 -1</clus>
<clus scale="  202.700">  1  7  2 -1</clus>
<clus scale="  286.197">  2 10  1 -1</clus>
<clus scale="  286.197">  2  5  1 -1</clus>
</clustering>
</event>
<event>
10    4  0.9192576E-005  0.9701284E+02  0.7546771E-02  0.1293535E+00
          2   -1    0    0  503    0 -0.00000000000E+00  0.00000000000E+00  0.51068844954E+03  0.51068844954E+03  0.00000000000E+00 0. -1.
         21   -1    0    0  501  502  0.00000000000E+00 -0.00000000000E+00 -0.10116011791E+03  0.10116011791E+03  0.00000000000E+00 0. -1.
         23    2    1    2    0    0  0.27943103096E+02  0.48452082215E+00  0.39845387146E+03  0.40934982303E+03  0.89558573925E+02 0.  0.
         24    2    1    2    0    0 -0.20705931083E+02 -0.16861026638E+02  0.45377816702E+02  0.93106955954E+02  0.76790163413E+02 0.  0.
        -11    1    4    4    0    0 -0.30483619708E+02 -0.39504850482E+02  0.11508741564E+02  0.51208743536E+02  0.00000000000E+00 0.  1.
         12    1    4    4    0    0  0.97776886248E+01  0.22643823844E+02  0.33869075138E+02  0.41898212418E+02  0.00000000000E+00 0. -1.
        -11    1    3    3    0    0 -0.17806749991E+02 -0.27622139314E+02  0.81441993006E+02  0.87822896503E+02  0.00000000000E+00 0.  1.
         11    1    3    3    0    0  0.45749853087E+02  0.28106660136E+02  0.31701187845E+03  0.32152692653E+03  0.00000000000E+00 0. -1.
         21    1    1    2  503  502  0.15650061873E+02  0.12942769919E+02  0.32706043958E+02  0.38498377125E+02  0.00000000000E+00 0. -1.
          1    1    1    2  501    0 -0.22887233885E+02  0.34337358966E+01 -0.67009400488E+02  0.70893411336E+02  0.00000000000E+00 0. -1.
<scales pt_clust_5="13000.00000" pt_clust_6="13000.00000" pt_clust_7="13000.00000" pt_clust_8="13000.00000" pt_clust_9="20.30861" pt_clust_10="23.08805"></scales>
<clustering>
<clus scale="   20.309">  1  9  2 -1</clus>
<clus scale="   23.088">  2 10  1 -1</clus>
<clus scale="   76.790">  5  6 -1 -1</clus>
<clus scale="   85.367">  2  5  1 -1</clus>
<clus scale="   89.559">  7  8 -1 -1</clus>
<clus scale="   23.088">  2  5  1 -1</clus>
</clustering>
</event>
<event>
10    4  0.5389768E-005  0.1402671E+03  0.7546771E-02  0.1223933E+00
         21   -1    0    0  501  502  0.00000000000E+00  0.00000000000E+00  0.13143693673E+03  0.13143693673E+03  0.00000000000E+00 0. -1.
          2   -1    0    0  503    0 -0.00000000000E+00 -0.00000000000E+00 -0.11070213088E+04  0.11070213088E+04  0.00000000000E+00 0. -1.
         23    2    1    2    0    0  0.10641730168E+02  0.66205346053E+02 -0.39348991982E+03  0.40943248931E+03  0.91127668851E+02 0.  0.
         24    2    1    2    0    0 -0.13801532940E+02  0.61253967961E+02 -0.68076328559E+02  0.12196820106E+03  0.79368284961E+02 0.  0.
        -13    1    4    4    0    0 -0.11193765311E+01  0.73174094395E+02 -0.28144212897E+02  0.78407893824E+02  0.00000000000E+00 0.  1.
         14    1    4    4    0    0 -0.12682156409E+02 -0.11920126434E+02 -0.39932115662E+02  0.43560307238E+02  0.00000000000E+00 0. -1.
        -11    1    3    3    0    0 -0.17424385707E+01 -0.23003968350E+02 -0.81841588635E+02  0.85030960728E+02  0.00000000000E+00 0. -1.
         11    1    3    3    0    0  0.12384168738E+02  0.89209314403E+02 -0.31164833119E+03  0.32440152858E+03  0.00000000000E+00 0.  1.
         21    1    1    2  503  502 -0.48631653206E+02 -0.15291557318E+03 -0.59012112992E+03  0.61154816507E+03  0.00000000000E+00 0. -1.
          1    1    1    2  501    0  0.51791455978E+02  0.25456259168E+02  0.76103006223E+02  0.95509390111E+02  0.00000000000E+00 0. -1.
<scales pt_clust_5="13000.00000" pt_clust_6="13000.00000" pt_clust_7="13000.00000" pt_clust_8="13000.00000" pt_clust_9="106.63301" pt_clust_10="57.70941"></scales>
<clustering>
<clus scale="   57.709">  1 10  2 -1</clus>
<clus scale="   79.368">  5  6 -1 -1</clus>
<clus scale="   91.128">  7  8 -1 -1</clus>
<clus scale="  111.358">  1  5  2 -1</clus>
<clus scale="  106.633">  1  9  2 -1</clus>
<clus scale="   57.709">  1  5  2 -1</clus>
</clustering>
</event>
<event>
10    4  0.5389768E-005  0.1088000E+03  0.7546771E-02  0.1267842E+00
         -1   -1    0    0    0  501 -0.00000000000E+00  0.00000000000E+00  0.58786144886E+03  0.58786144886E+03  0.00000000000E+00 0.  1.
         21   -1    0    0  503  502  0.00000000000E+00 -0.00000000000E+00 -0.51145456111E+02  0.51145456111E+02  0.00000000000E+00 0.  1.
         23    2    1    2    0    0 -0.20666560758E+02 -0.28575650492E+02  0.19510100713E+03  0.21812447585E+03  0.90940691942E+02 0.  0.
         24    2    1    2    0    0  0.20383218811E+02  0.11534148153E+03  0.17545816365E+03  0.22509168156E+03  0.78495636488E+02 0.  0.
        -13    1    4    4    0    0  0.35654074097E+02  0.65619986718E+02  0.51650454439E+02  0.90801790183E+02  0.00000000000E+00 0.  1.
         14    1    4    4    0    0 -0.15270855287E+02  0.49721494812E+02  0.12380770921E+03  0.13428989138E+03  0.00000000000E+00 0. -1.
        -11    1    3    3    0    0 -0.50644737785E+02  0.10374747496E+01  0.13913029036E+03  0.14806486253E+03  0.00000000000E+00 0.  1.
         11    1    3    3    0    0  0.29978177027E+02 -0.29613125241E+02  0.55970716761E+02  0.70059613324E+02  0.00000000000E+00 0. -1.
         21    1    1    2  503  501  0.20668082461E+02 -0.81345686616E+01  0.31853306109E+02  0.38832640266E+02  0.00000000000E+00 0. -1.
         -2    1    1    2    0  502 -0.20384740514E+02 -0.78631262377E+02  0.13430351587E+03  0.15695810729E+03  0.00000000000E+00 0.  1.
<scales pt_clust_5="13000.00000" pt_clust_6="13000.00000" pt_clust_7="13000.00000" pt_clust_8="13000.00000" pt_clust_9="22.21128" pt_clust_10="82.03704"></scales>
<clustering>
<clus scale="   22.211">  2  9  1 -1</clus>
<clus scale="   78.496">  5  6 -1 -1</clus>
<clus scale="   82.037">  2 10  1 -1</clus>
<clus scale="   90.941">  7  8 -1 -1</clus>
<clus scale="   98.635">  2  5  1 -1</clus>
<clus scale="   22.211">  2  5  1 -1</clus>
</clustering>
</event>
<event>
10    4  0.5389768E-005  0.2877587E+03  0.7546771E-02  0.1092172E+00
          4   -1    0    0  503    0 -0.00000000000E+00  0.00000000000E+00  0.17946740910E+04  0.17946740910E+04  0.00000000000E+00 0. -1.
         21   -1    0    0  501  502  0.00000000000E+00 -0.00000000000E+00 -0.10187820420E+03  0.10187820420E+03  0.00000000000E+00 0. -1.
         23    2    1    2    0    0 -0.13644185423E+03 -0.17994704974E+03  0.78412857687E+03  0.82193213542E+03  0.98577329375E+02 0.  0.
         24    2    1    2    0    0  0.28257919255E+03  0.23155342799E+03  0.61003678935E+03  0.71593125208E+03  0.83334766227E+02 0.  0.
        -11    1    4    4    0    0  0.25761942931E+02  0.56693066914E+02  0.77875991116E+02  0.99711842486E+02  0.00000000000E+00 0.  1.
         12    1    4    4    0    0  0.25681724962E+03  0.17486036107E+03  0.53216079823E+03  0.61621940959E+03  0.00000000000E+00 0. -1.
        -13    1    3    3    0    0 -0.97887897350E+02 -0.50664977449E+02  0.31147774635E+03  0.33040485296E+03  0.00000000000E+00 0.  1.
         13    1    3    3    0    0 -0.38553956884E+02 -0.12928207229E+03  0.47265083052E+03  0.49152728246E+03  0.00000000000E+00 0. -1.
         21    1    1    2  503  502  0.16090133541E+01 -0.30997337985E+02  0.12950898323E+03  0.13317657686E+03  0.00000000000E+00 0.  1.
          3    1    1    2  501    0 -0.14774635168E+03 -0.20609040259E+02  0.16912153739E+03  0.22551233089E+03  0.00000000000E+00 0. -1.
<scales pt_clust_5="13000.00000" pt_clust_6="13000.00000" pt_clust_7="13000.00000" pt_clust_8="13000.00000" pt_clust_9="31.03907" pt_clust_10="149.54076"></scales>
<clustering>
<clus scale="   31.039">  1  9  2 -1</clus>
<clus scale="   83.335">  5  6 -1 -1</clus>
<clus scale="   98.577">  7  8 -1 -1</clus>
<clus scale="  149.541">  2 10  1 -1</clus>
<clus scale="  282.900">  2  5  1 -1</clus>
<clus scale="  149.541">  2  5  1 -1</clus>
</clustering>
</event>
<event>
10    4  0.5389768E-005  0.1656979E+03  0.7546771E-02  0.1184526E+00
          2   -1    0    0  503    0 -0.00000000000E+00  0.00000000000E+00  0.22686382500E+03  0.22686382500E+03  0.00000000000E+00 0. -1.
         21   -1    0    0  501  502  0.00000000000E+00 -0.00000000000E+00 -0.18030534551E+03  0.18030534551E+03  0.00000000000E+00 0. -1.
         23    2    1    2    0    0  0.24063703028E+01  0.14844674696E+03  0.40299042703E+02  0.18066759325E+03  0.94734044087E+02 0.  0.
         24    2    1    2    0    0  0.26934187270E+02 -0.11865978378E+03 -0.28177960179E+02  0.14865034576E+03  0.80606036530E+02 0.  0.
        -13    1    4    4    0    0  0.30330028930E+02 -0.32661945310E+01 -0.53290509651E+01  0.30967361298E+02  0.00000000000E+00 0.  1.
         14    1    4    4    0    0 -0.33958416599E+01 -0.11539358925E+03 -0.22848909213E+02  0.11768298446E+03  0.00000000000E+00 0. -1.
        -13    1    3    3    0    0  0.34214137333E+02  0.75350847907E+02 -0.14387502843E+02  0.83996176769E+02  0.00000000000E+00 0.  1.
         13    1    3    3    0    0 -0.31807767030E+02  0.73095899049E+02  0.54686545546E+02  0.96671416484E+02  0.00000000000E+00 0. -1.
         21    1    1    2  503  502 -0.36866667921E+02  0.13911639489E+01  0.12338296350E+02  0.38901415110E+02  0.00000000000E+00 0. -1.
          1    1    1    2  501    0  0.75261103482E+01 -0.31178127127E+02  0.22099100619E+02  0.38949816383E+02  0.00000000000E+00 0. -1.
<scales pt_clust_5="13000.00000" pt_clust_6="13000.00000" pt_clust_7="13000.00000" pt_clust_8="13000.00000" pt_clust_9="36.29939" pt_clust_10="32.07365"></scales>
<clustering>
<clus scale="   32.074">  2 10  1 -1</clus>
<clus scale="   36.299">  1  9  2 -1</clus>
<clus scale="   80.606">  5  6 -1 -1</clus>
<clus scale="   94.734">  7  8 -1 -1</clus>
<clus scale="  158.046">  2  5  1 -1</clus>
<clus scale="   32.074">  2  5  1 -1</clus>
</clustering>
</event>
<event>
10    4  0.1526650E-004  0.9727496E+02  0.7546771E-02  0.1289666E+00
          2   -1    0    0  503    0 -0.00000000000E+00  0.00000000000E+00  0.14611016041E+04  0.14611016041E+04  0.00000000000E+00 0. -1.
         21   -1    0    0  501  502  0.00000000000E+00 -0.00000000000E+00 -0.76024914382E+02  0.76024914382E+02  0.00000000000E+00 0. -1.
         24    2    1    2    0    0 -0.55406429589E+02 -0.33583504238E+02  0.12475372031E+04  0.12518009042E+04  0.80366077039E+02 0.  0.
         23    2    1    2    0    0  0.36643304558E+02 -0.43736855040E+02  0.50994962601E+02  0.11615350163E+03  0.87381379440E+02 0.  0.
        -13    1    3    3    0    0 -0.34352498703E+02 -0.20987501586E+02  0.20180916315E+03  0.20578510082E+03  0.00000000000E+00 0.  1.
         14    1    3    3    0    0 -0.21053930887E+02 -0.12596002652E+02  0.10457280400E+04  0.10460158034E+04  0.00000000000E+00 0. -1.
        -13    1    4    4    0    0  0.31723508988E+02 -0.69192134747E+02  0.48156842921E+02  0.90072271279E+02  0.00000000000E+00 0. -1.
         13    1    4    4    0    0  0.49197955693E+01  0.25455279706E+02  0.28381196800E+01  0.26081230352E+02  0.00000000000E+00 0.  1.
         21    1    1    2  503  502  0.16128999870E+02  0.15597196762E+02  0.10285676663E+03  0.10527550344E+03  0.00000000000E+00 0.  1.
          1    1    1    2  501    0  0.26341251618E+01  0.61723162516E+02 -0.16312242663E+02  0.63896609198E+02  0.00000000000E+00 0. -1.
<scales pt_clust_5="13000.00000" pt_clust_6="13000.00000" pt_clust_7="13000.00000" pt_clust_8="13000.00000" pt_clust_9="22.43696" pt_clust_10="62.06520"></scales>
<clustering>
<clus scale="   22.437">  1  9  2 -1</clus>
<clus scale="   62.065">  2 10  1 -1</clus>
<clus scale="   80.366">  5  6 -1 -1</clus>
<clus scale="   87.381">  7  8 -1 -1</clus>
<clus scale="   91.025">  1  5  2 -1</clus>
<clus scale="   62.065">  2  5  1 -1</clus>
</clustering>
</event>
<event>
10    4  0.5389768E-005  0.2344205E+03  0.7546771E-02  0.1162681E+00
          4   -1    0    0  503    0 -0.00000000000E+00  0.00000000000E+00  0.11622827969E+03  0.11622827969E+03  0.00000000000E+00 0. -1.
         21   -1    0    0  501  502  0.00000000000E+00 -0.00000000000E+00 -0.81995947559E+03  0.81995947559E+03  0.00000000000E+00 0. -1.
         24    2    1    2    0    0 -0.26689695434E+02  0.32952587651E+02 -0.18926707016E+03  0.21017366864E+03  0.80948960888E+02 0.  0.
         23    2    1    2    0    0  0.18486309808E+02  0.19295797723E+03 -0.27617139144E+03  0.35003514582E+03  0.93163518792E+02 0.  0.
        -13    1    3    3    0    0  0.24355717960E+02  0.17901934350E+01 -0.98446529140E+02  0.10143039431E+03  0.00000000000E+00 0.  1.
         14    1    3    3    0    0 -0.51045413395E+02  0.31162394216E+02 -0.90820541020E+02  0.10874327433E+03  0.00000000000E+00 0. -1.
        -11    1    4    4    0    0  0.18090317235E+02  0.19997362412E+02 -0.35813363886E+01  0.27202574353E+02  0.00000000000E+00 0.  1.
         11    1    4    4    0    0  0.39599257267E+00  0.17296061482E+03 -0.27259005505E+03  0.32283257147E+03  0.00000000000E+00 0. -1.
         21    1    1    2  503  502  0.12868954787E+02  0.18016420600E+02  0.13049807725E+02  0.25700172961E+02  0.00000000000E+00 0.  1.
          3    1    1    2  501    0 -0.46655691602E+01 -0.24392698548E+03 -0.25134254202E+03  0.35027876786E+03  0.00000000000E+00 0. -1.
<scales pt_clust_5="13000.00000" pt_clust_6="13000.00000" pt_clust_7="13000.00000" pt_clust_8="13000.00000" pt_clust_9="22.14049" pt_clust_10="215.11298"></scales>
<clustering>
<clus scale="   22.140">  1  9  2 -1</clus>
<clus scale="   80.949">  5  6 -1 -1</clus>
<clus scale="   91.710">  1  5  2 -1</clus>
<clus scale="   93.164">  7  8 -1 -1</clus>
<clus scale="  215.113">  2 10  1 -1</clus>
<clus scale="  215.113">  2  5  1 -1</clus>
</clustering>
</event>
<event>
10    4  0.5389768E-005  0.2171074E+03  0.7546771E-02  0.1156429E+00
         21   -1    0    0  501  502  0.00000000000E+00  0.00000000000E+00  0.44142054325E+03  0.44142054325E+03  0.00000000000E+00 0.  1.
          2   -1    0    0  503    0 -0.00000000000E+00 -0.00000000000E+00 -0.55057126006E+03  0.55057126006E+03  0.00000000000E+00 0. -1.
         24    2    1    2    0    0  0.10654968848E+03  0.16684784039E+03 -0.13274175409E+03  0.25096485391E+03  0.78561737897E+02 0.  0.
         23    2    1    2    0    0  0.79292572207E+02 -0.81219977427E+02  0.15284222197E+02  0.14706790716E+03  0.92257060047E+02 0.  0.
        -13    1    3    3    0    0  0.11799638906E+03  0.15643754251E+03 -0.13025987133E+03  0.23529446788E+03  0.00000000000E+00 0.  1.
         14    1    3    3    0    0 -0.11446700584E+02  0.10410297884E+02 -0.24818827641E+01  0.15670386030E+02  0.00000000000E+00 0. -1.
        -11    1    4    4    0    0  0.50626094287E+02 -0.82246932445E+02 -0.22950944652E+02  0.99268853019E+02  0.00000000000E+00 0. -1.
         11    1    4    4    0    0  0.28666477921E+02  0.10269550178E+01  0.38235166850E+02  0.47799054143E+02  0.00000000000E+00 0.  1.
         21    1    1    2  503  502 -0.17069873639E+03 -0.12374579324E+03 -0.25306833940E+03  0.32938528254E+03  0.00000000000E+00 0. -1.
          1    1    1    2  501    0 -0.15143524293E+02  0.38117930271E+02  0.26137515448E+03  0.26457375969E+03  0.00000000000E+00 0. -1.
<scales pt_clust_5="13000.00000" pt_clust_6="13000.00000" pt_clust_7="13000.00000" pt_clust_8="13000.00000" pt_clust_9="202.39482" pt_clust_10="41.01589"></scales>
<clustering>
<clus scale="   41.016">  1 10  2 -1</clus>
<clus scale="   78.562">  5  6 -1 -1</clus>
<clus scale="   92.257">  7  8 -1 -1</clus>
<clus scale="  133.545">  1  7  2 -1</clus>
<clus scale="  202.395">  2  9  1 -1</clus>
<clus scale="   41.016">  1  5  2 -1</clus>
</clustering>
</event>
<event>
10    4  0.5389768E-005  0.1647898E+03  0.7546771E-02  0.1185012E+00
         21   -1    0    0  501  502  0.00000000000E+00  0.00000000000E+00  0.29058820680E+03  0.29058820680E+03  0.00000000000E+00 0.  1.
          2   -1    0    0  503    0 -0.00000000000E+00 -0.00000000000E+00 -0.18841953662E+03  0.18841953662E+03  0.00000000000E+00 0. -1.
         23    2    1    2    0    0 -0.12835596149E+03  0.58224562528E+02  0.27675816762E+01  0.16806467001E+03  0.91502575190E+02 0.  0.
         24    2    1    2    0    0  0.11864941227E+03 -0.41518532600E+02  0.15001556704E+03  0.21162546007E+03  0.80493437085E+02 0.  0.
        -13    1    4    4    0    0  0.12284090799E+03 -0.33513237915E+02  0.10307057950E+03  0.16381871123E+03  0.00000000000E+00 0.  1.
         14    1    4    4    0    0 -0.41914957171E+01 -0.80052946845E+01  0.46944987541E+02  0.47806748839E+02  0.00000000000E+00 0. -1.
        -13    1    3    3    0    0 -0.75893553006E+02  0.13473560354E+02  0.42966445079E+02  0.88246720161E+02  0.00000000000E+00 0.  1.
         13    1    3    3    0    0 -0.52462408482E+02  0.44751002174E+02 -0.40198863403E+02  0.79817949849E+02  0.00000000000E+00 0. -1.
         21    1    1    2  503  502  0.60550145103E+01  0.27851376045E+02  0.39528757598E+01  0.28774773241E+02  0.00000000000E+00 0.  1.
          1    1    1    2  501    0  0.36515347053E+01 -0.44557405973E+02 -0.54567354302E+02  0.70542840092E+02  0.00000000000E+00 0. -1.
<scales pt_clust_5="13000.00000" pt_clust_6="13000.00000" pt_clust_7="13000.00000" pt_clust_8="13000.00000" pt_clust_9="28.50197" pt_clust_10="35.14132"></scales>
<clustering>
<clus scale="   28.502">  2  9  1 -1</clus>
<clus scale="   35.141">  1 10  2 -1</clus>
<clus scale="   80.493">  5  6 -1 -1</clus>
<clus scale="   91.503">  7  8 -1 -1</clus>
<clus scale="  158.941">  1  5  2 -1</clus>
<clus scale="   35.141">  1  5  2 -1</clus>
</clustering>
</event>
<event>
10    4  0.5389768E-005  0.1512377E+03  0.7546771E-02  0.1201551E+00
         21   -1    0    0  503  502  0.00000000000E+00  0.00000000000E+00  0.22547946673E+03  0.22547946673E+03  0.00000000000E+00 0.  1.
         -3   -1    0    0    0  501 -0.00000000000E+00 -0.00000000000E+00 -0.32095930876E+03  0.32095930876E+03  0.00000000000E+00 0.  1.
         24    2    1    2    0    0  0.10017819782E+03 -0.83675479952E+02 -0.13360910728E+03  0.20323254785E+03  0.80092557035E+02 0.  0.
         23    2    1    2    0    0 -0.68942913086E+02  0.36556535041E+02  0.14914001246E+03  0.19282285011E+03  0.94065948616E+02 0.  0.
        -11    1    3    3    0    0  0.89646472887E+02 -0.94528500200E+02 -0.13552683960E+03  0.18798843503E+03  0.00000000000E+00 0.  1.
         12    1    3    3    0    0  0.10531724932E+02  0.10853020248E+02  0.19177323165E+01  0.15244112824E+02  0.00000000000E+00 0. -1.
        -11    1    4    4    0    0 -0.19911103738E+02  0.32519969352E+01 -0.10349911817E+02  0.22674836510E+02  0.00000000000E+00 0. -1.
         11    1    4    4    0    0 -0.49031809348E+02  0.33304538106E+02  0.15948992427E+03  0.17014801360E+03  0.00000000000E+00 0.  1.
         21    1    1    2  503  501  0.18878457357E+02  0.34305682677E+02 -0.16190913840E+02  0.42372416819E+02  0.00000000000E+00 0. -1.
         -4    1    1    2    0  502 -0.50113742090E+02  0.12813262234E+02 -0.94819833362E+02  0.10801096071E+03  0.00000000000E+00 0.  1.
<scales pt_clust_5="13000.00000" pt_clust_6="13000.00000" pt_clust_7="13000.00000" pt_clust_8="13000.00000" pt_clust_9="39.15707" pt_clust_10="50.08706"></scales>
<clustering>
<clus scale="   39.157">  2  9  1 -1</clus>
<clus scale="   50.087">  1 10  2 -1</clus>
<clus scale="   80.093">  5  6 -1 -1</clus>
<clus scale="   94.066">  7  8 -1 -1</clus>
<clus scale="  142.966">  2  5  1 -1</clus>
<clus scale="   50.087">  1  5  2 -1</clus>
</clustering>
</event>
<event>
10    4  0.5389768E-005  0.1896038E+03  0.7546771E-02  0.1180712E+00
         -1   -1    0    0    0  501 -0.00000000000E+00  0.00000000000E+00  0.33944183375E+03  0.33944183375E+03  0.00000000000E+00 0.  1.
         21   -1    0    0  503  502  0.00000000000E+00 -0.00000000000E+00 -0.55551777426E+03  0.55551777426E+03  0.00000000000E+00 0.  1.
         23    2    1    2    0    0 -0.25463184179E+01 -0.79793616488E+02  0.19827103822E+03  0.23058679344E+03  0.86517973534E+02 0.  0.
         24    2    1    2    0    0  0.10661564100E+03 -0.12268829422E+03 -0.35885545306E+03  0.40218268411E+03  0.80959019033E+02 0.  0.
        -11    1    4    4    0    0  0.92864923717E+02 -0.74751409136E+02 -0.17545559968E+03  0.21212339494E+03  0.00000000000E+00 0.  1.
         12    1    4    4    0    0  0.13750717285E+02 -0.47936885081E+02 -0.18339985338E+03  0.19005928916E+03  0.00000000000E+00 0. -1.
        -11    1    3    3    0    0  0.17895063572E+02 -0.91623702125E+02  0.16796182859E+03  0.19216220220E+03  0.00000000000E+00 0.  1.
         11    1    3    3    0    0 -0.20441381990E+02  0.11830085637E+02  0.30309209628E+02  0.38424591242E+02  0.00000000000E+00 0. -1.
         21    1    1    2  503  501 -0.24660879011E+02  0.97911165700E+01  0.27176720865E+02  0.37981562293E+02  0.00000000000E+00 0.  1.
         -2    1    1    2    0  502 -0.79408443574E+02  0.19269079413E+03 -0.82668246528E+02  0.22420856817E+03  0.00000000000E+00 0.  1.
<scales pt_clust_5="13000.00000" pt_clust_6="13000.00000" pt_clust_7="13000.00000" pt_clust_8="13000.00000" pt_clust_9="26.53347" pt_clust_10="171.45043"></scales>
<clustering>
<clus scale="   26.533">  1  9  2 -1</clus>
<clus scale="   80.959">  5  6 -1 -1</clus>
<clus scale="   86.518">  7  8 -1 -1</clus>
<clus scale="  114.885">  1  7  2 -1</clus>
<clus scale="  171.450">  2 10  1 -1</clus>
<clus scale="  171.450">  2  5  1 -1</clus>
</clustering>
</event>
<event>
10    4  0.5389768E-005  0.9375190E+02  0.7546771E-02  0.1301394E+00
         21   -1    0    0  501  502  0.00000000000E+00  0.00000000000E+00  0.18234704424E+03  0.18234704424E+03  0.00000000000E+00 0.  1.
          2   -1    0    0  503    0 -0.00000000000E+00 -0.00000000000E+00 -0.15755267644E+03  0.15755267644E+03  0.00000000000E+00 0. -1.
         23    2    1    2    0    0  0.22641184627E+02 -0.36351766594E+02  0.14067477425E+02  0.10110362616E+03  0.90498481349E+02 0.  0.
         24    2    1    2    0    0  0.38114206147E+02  0.37083105727E+01  0.46878152705E+02  0.98756775763E+02  0.78031373694E+02 0.  0.
        -11    1    4    4    0    0  0.50522604857E+02  0.29157865834E+02  0.27823359639E+02  0.64628585651E+02  0.00000000000E+00 0.  1.
         12    1    4    4    0    0 -0.12408398711E+02 -0.25449555261E+02  0.19054793065E+02  0.34128190112E+02  0.00000000000E+00 0. -1.
        -11    1    3    3    0    0  0.54977629752E+02 -0.38956311968E+02  0.13136398212E+02  0.68649100309E+02  0.00000000000E+00 0.  1.
         11    1    3    3    0    0 -0.32336445125E+02  0.26045453731E+01  0.93107921345E+00  0.32454525855E+02  0.00000000000E+00 0. -1.
         21    1    1    2  503  502 -0.37910949724E+00 -0.24574605715E+02 -0.49998671253E+02  0.55712853967E+02  0.00000000000E+00 0.  1.
          1    1    1    2  501    0 -0.60376281276E+02  0.57218061737E+02  0.13847408920E+02  0.84326464787E+02  0.00000000000E+00 0. -1.
<scales pt_clust_5="13000.00000" pt_clust_6="13000.00000" pt_clust_7="13000.00000" pt_clust_8="13000.00000" pt_clust_9="24.57753" pt_clust_10="77.82348"></scales>
<clustering>
<clus scale="   24.578">  2  9  1 -1</clus>
<clus scale="   77.823">  1 10  2 -1</clus>
<clus scale="   78.031">  5  6 -1 -1</clus>
<clus scale="   81.782">  1  5  2 -1</clus>
<clus scale="   90.498">  7  8 -1 -1</clus>
<clus scale="   77.823">  1  5  2 -1</clus>
</clustering>
</event>
<event>
10    4  0.5389768E-005  0.3563520E+03  0.7546771E-02  0.1060289E+00
         21   -1    0    0  501  502  0.00000000000E+00  0.00000000000E+00  0.45986575473E+03  0.45986575473E+03  0.00000000000E+00 0. -1.
          2   -1    0    0  503    0 -0.00000000000E+00 -0.00000000000E+00 -0.78962397185E+03  0.78962397185E+03  0.00000000000E+00 0. -1.
         24    2    1    2    0    0  0.12584082035E+03 -0.36496254553E+03 -0.13656806609E+03  0.41788338567E+03  0.83319359308E+02 0.  0.
         23    2    1    2    0    0 -0.14717573443E+03  0.24259487857E+03  0.19934866858E+03  0.35912190220E+03  0.93357790599E+02 0.  0.
        -13    1    3    3    0    0  0.25053209327E+02 -0.13383560342E+02 -0.16960150661E+02  0.33082165822E+02  0.00000000000E+00 0.  1.
         14    1    3    3    0    0  0.10078761102E+03 -0.35157898519E+03 -0.11960791543E+03  0.38480121985E+03  0.00000000000E+00 0. -1.
        -13    1    4    4    0    0 -0.13287748012E+03  0.14247783281E+03  0.10754647261E+03  0.22253674154E+03  0.00000000000E+00 0.  1.
         13    1    4    4    0    0 -0.14298254306E+02  0.10011704576E+03  0.91802195967E+02  0.13658516066E+03  0.00000000000E+00 0. -1.
         21    1    1    2  503  502 -0.38955148848E+02  0.10106414378E+02 -0.32648371683E+03  0.32895480022E+03  0.00000000000E+00 0. -1.
          1    1    1    2  501    0  0.60290062926E+02  0.11226125258E+03 -0.66055102785E+02  0.14352963848E+03  0.00000000000E+00 0. -1.
<scales pt_clust_5="13000.00000" pt_clust_6="13000.00000" pt_clust_7="13000.00000" pt_clust_8="13000.00000" pt_clust_9="40.24479" pt_clust_10="125.57865"></scales>
<clustering>
<clus scale="   40.245">  2  9  1 -1</clus>
<clus scale="   83.319">  5  6 -1 -1</clus>
<clus scale="   93.358">  7  8 -1 -1</clus>
<clus scale="  125.579">  1 10  2 -1</clus>
<clus scale="  353.855">  2  5  1 -1</clus>
<clus scale="  125.579">  1  5  2 -1</clus>
</clustering>
</event>
<event>
10    4  0.5389768E-005  0.1075942E+03  0.7546771E-02  0.1269253E+00
         21   -1    0    0  501  502  0.00000000000E+00  0.00000000000E+00  0.15374995194E+03  0.15374995194E+03  0.00000000000E+00 0.  1.
          2   -1    0    0  503    0 -0.00000000000E+00 -0.00000000000E+00 -0.32891740543E+03  0.32891740543E+03  0.00000000000E+00 0. -1.
         23    2    1    2    0    0 -0.65289626128E+01 -0.17175308744E+02 -0.19243570701E+03  0.21353763592E+03  0.90714949369E+02 0.  0.
         24    2    1    2    0    0  0.36962285728E+01  0.66558627898E+02  0.50235332304E+02  0.11605118062E+03  0.80626142528E+02 0.  0.
        -11    1    4    4    0    0  0.13361085054E+02  0.71361925206E+02  0.65213167968E+02  0.97589959726E+02  0.00000000000E+00 0.  1.
         12    1    4    4    0    0 -0.96648564814E+01 -0.48032973085E+01 -0.14977835663E+02  0.18461220897E+02  0.00000000000E+00 0. -1.
        -11    1    3    3    0    0  0.26016832099E+02  0.18289420580E+02 -0.13453042779E+03  0.13823825252E+03  0.00000000000E+00 0.  1.
         11    1    3    3    0    0 -0.32545794712E+02 -0.35464729324E+02 -0.57905279221E+02  0.75299383404E+02  0.00000000000E+00 0. -1.
         21    1    1    2  503  502  0.27317379831E+02 -0.45350495271E+02 -0.82298980256E+02  0.97857185803E+02  0.00000000000E+00 0. -1.
          1    1    1    2  501    0 -0.24484645791E+02 -0.40328238827E+01  0.49331901470E+02  0.55221355023E+02  0.00000000000E+00 0. -1.
<scales pt_clust_5="13000.00000" pt_clust_6="13000.00000" pt_clust_7="13000.00000" pt_clust_8="13000.00000" pt_clust_9="52.26869" pt_clust_10="24.81454"></scales>
<clustering>
<clus scale="   24.815">  1 10  2 -1</clus>
<clus scale="   52.269">  2  9  1 -1</clus>
<clus scale="   80.626">  5  6 -1 -1</clus>
<clus scale="   90.715">  7  8 -1 -1</clus>
<clus scale="   99.236">  1  5  2 -1</clus>
<clus scale="   24.815">  1  5  2 -1</clus>
</clustering>
</event>
<event>
10    4  0.5389768E-005  0.9793378E+02  0.7546771E-02  0.1288983E+00
          2   -1    0    0  503    0 -0.00000000000E+00  0.00000000000E+00  0.60732250586E+03  0.60732250586E+03  0.00000000000E+00 0. -1.
         21   -1    0    0  501  502  0.00000000000E+00 -0.00000000000E+00 -0.50021973582E+02  0.50021973582E+02  0.00000000000E+00 0. -1.
         24    2    1    2    0    0  0.29236289104E+02 -0.57791606799E+01  0.22631429789E+03  0.24453076684E+03  0.87686801760E+02 0.  0.
         23    2    1    2    0    0  0.64199237844E+02 -0.44949395565E+01  0.81094924076E+02  0.14083602773E+03  0.95481167646E+02 0.  0.
        -13    1    3    3    0    0  0.57157114871E+01  0.36890508980E+02  0.55372764518E+02  0.66781150492E+02  0.00000000000E+00 0.  1.
         14    1    3    3    0    0  0.23520577617E+02 -0.42669669660E+02  0.17094153337E+03  0.17774961634E+03  0.00000000000E+00 0. -1.
        -13    1    4    4    0    0  0.34535455993E+02  0.10498539863E+02  0.97357203941E+02  0.10383324236E+03  0.00000000000E+00 0.  1.
         13    1    4    4    0    0  0.29663781850E+02 -0.14993479420E+02 -0.16262279866E+02  0.37002785371E+02  0.00000000000E+00 0. -1.
         21    1    1    2  503  502 -0.63751024056E+02  0.22216853774E+02  0.21143043148E+03  0.22194731135E+03  0.00000000000E+00 0. -1.
          1    1    1    2  501    0 -0.29684502892E+02 -0.11942753538E+02  0.38460878834E+02  0.50030373521E+02  0.00000000000E+00 0. -1.
<scales pt_clust_5="13000.00000" pt_clust_6="13000.00000" pt_clust_7="13000.00000" pt_clust_8="13000.00000" pt_clust_9="70.42065" pt_clust_10="31.99686"></scales>
<clustering>
<clus scale="   31.997">  2 10  1 -1</clus>
<clus scale="   70.421">  1  9  2 -1</clus>
<clus scale="   87.687">  5  6 -1 -1</clus>
<clus scale="   90.351">  1  5  2 -1</clus>
<clus scale="   95.481">  7  8 -1 -1</clus>
<clus scale="   31.997">  2  5  1 -1</clus>
</clustering>
</event>
<event>
10    4  0.5389768E-005  0.1817387E+03  0.7546771E-02  0.1169098E+00
          2   -1    0    0  503    0 -0.00000000000E+00  0.00000000000E+00  0.30698343374E+03  0.30698343374E+03  0.00000000000E+00 0. -1.
         21   -1    0    0  501  502  0.00000000000E+00 -0.00000000000E+00 -0.20935968300E+03  0.20935968300E+03  0.00000000000E+00 0. -1.
         23    2    1    2    0    0  0.82955870238E+02 -0.11208265076E+03  0.62926210960E+02  0.18554520719E+03  0.10499104189E+03 0.  0.
         24    2    1    2    0    0 -0.10498679685E+03  0.11615849638E+03  0.60360067944E+01  0.17710366279E+03  0.82548471844E+02 0.  0.
        -11    1    4    4    0    0 -0.23572762947E+02  0.40067369025E+02 -0.35170391454E+02  0.58292586566E+02  0.00000000000E+00 0.  1.
         12    1    4    4    0    0 -0.81414033899E+02  0.76091127356E+02  0.41206398248E+02  0.11881107623E+03  0.00000000000E+00 0. -1.
        -13    1    3    3    0    0  0.10561086778E+03 -0.89500040499E+02  0.34302490383E+02  0.14262038245E+03  0.00000000000E+00 0. -1.
         13    1    3    3    0    0 -0.22654997541E+02 -0.22582610260E+02  0.28623720577E+02  0.42924824745E+02  0.00000000000E+00 0.  1.
         21    1    1    2  503  502 -0.44342413167E+02 -0.50197863193E+02  0.28703108191E+02  0.72869359092E+02  0.00000000000E+00 0.  1.
          1    1    1    2  501    0  0.66373339774E+02  0.46122017571E+02 -0.41575202738E-01  0.80824887665E+02  0.00000000000E+00 0. -1.
<scales pt_clust_5="13000.00000" pt_clust_6="13000.00000" pt_clust_7="13000.00000" pt_clust_8="13000.00000" pt_clust_9="66.97817" pt_clust_10="70.61240"></scales>
<clustering>
<clus scale="   66.978">  1  9  2 -1</clus>
<clus scale="   70.612">  2 10  1 -1</clus>
<clus scale="   82.548">  5  6 -1 -1</clus>
<clus scale="  104.991">  7  8 -1 -1</clus>
<clus scale="  169.765">  2  5  1 -1</clus>
<clus scale="   70.612">  2  5  1 -1</clus>
</clustering>
</event>
<event>
10    4  0.5389768E-005  0.1013882E+03  0.7546771E-02  0.1282402E+00
         21   -1    0    0  503  502  0.00000000000E+00  0.00000000000E+00  0.34500251989E+03  0.34500251989E+03  0.00000000000E+00 0.  1.
         -1   -1    0    0    0  501 -0.00000000000E+00 -0.00000000000E+00 -0.80769806646E+02  0.80769806646E+02  0.00000000000E+00 0.  1.
         23    2    1    2    0    0  0.13238299015E+02  0.32623444611E+02  0.10089513540E+02  0.97891055074E+02  0.90781708956E+02 0.  0.
         24    2    1    2    0    0  0.25149912220E+02 -0.53222891190E+02  0.11858273189E+03  0.15487781784E+03  0.80374622389E+02 0.  0.
        -13    1    4    4    0    0  0.27794059704E+02 -0.36933026274E+02  0.13004339392E+02  0.48017403382E+02  0.00000000000E+00 0.  1.
         14    1    4    4    0    0 -0.26441474838E+01 -0.16289864916E+02  0.10557839250E+03  0.10686041445E+03  0.00000000000E+00 0. -1.
        -13    1    3    3    0    0  0.39525704112E+02  0.44177681232E+02 -0.13421652377E+02  0.60779022344E+02  0.00000000000E+00 0.  1.
         13    1    3    3    0    0 -0.26287405097E+02 -0.11554236621E+02  0.23511165917E+02  0.37112032730E+02  0.00000000000E+00 0. -1.
         21    1    1    2  503  501  0.24115878045E+02  0.14555925253E+02  0.56745666408E+01  0.28734147637E+02  0.00000000000E+00 0.  1.
         -2    1    1    2    0  502 -0.62504089281E+02  0.60435213253E+01  0.12988590118E+03  0.14426930599E+03  0.00000000000E+00 0.  1.
<scales pt_clust_5="13000.00000" pt_clust_6="13000.00000" pt_clust_7="13000.00000" pt_clust_8="13000.00000" pt_clust_9="28.16825" pt_clust_10="60.47310"></scales>
<clustering>
<clus scale="   28.168">  2  9  1 -1</clus>
<clus scale="   60.473">  1 10  2 -1</clus>
<clus scale="   80.375">  5  6 -1 -1</clus>
<clus scale="   90.782">  7  8 -1 -1</clus>
<clus scale="   92.186">  1  5  2 -1</clus>
<clus scale="   60.473">  1  5  2 -1</clus>
</clustering>
</event>
<event>
10    4  0.5389768E-005  0.4895283E+03  0.7546771E-02  0.1046843E+00
         21   -1    0    0  501  502  0.00000000000E+00  0.00000000000E+00  0.47365115777E+03  0.47365115777E+03  0.00000000000E+00 0.  1.
         -3   -1    0    0    0  501 -0.00000000000E+00 -0.00000000000E+00 -0.11712799975E+04  0.11712799975E+04  0.00000000000E+00 0.  1.
         24    2    1    2    0    0  0.17530591055E+03 -0.36317608513E+02  0.17911341747E+03  0.26833102586E+03  0.88706212637E+02 0.  0.
         23    2    1    2    0    0  0.32377347261E+03 -0.82600243971E+02 -0.73816364014E+03  0.81747222220E+03  0.10827378525E+03 0.  0.
        -13    1    3    3    0    0  0.15774223410E+03 -0.56153667375E+02  0.17375161718E+03  0.24129954673E+03  0.00000000000E+00 0.  1.
         14    1    3    3    0    0  0.17563676447E+02  0.19836058862E+02  0.53618002838E+01  0.27031479128E+02  0.00000000000E+00 0. -1.
        -11    1    4    4    0    0  0.14939986789E+03  0.14498803582E+02 -0.35542346877E+03  0.38581910007E+03  0.00000000000E+00 0. -1.
         11    1    4    4    0    0  0.17437360472E+03 -0.97099047553E+02 -0.38274017138E+03  0.43165312213E+03  0.00000000000E+00 0.  1.
         21    1    1    2  503  502 -0.74608653984E+02 -0.22049019433E+02 -0.73729128481E+02  0.10718486317E+03  0.00000000000E+00 0.  1.
         -4    1    1    2    0  503 -0.42447072917E+03  0.14096687192E+03 -0.64849488588E+02  0.45194304406E+03  0.00000000000E+00 0.  1.
<scales pt_clust_5="13000.00000" pt_clust_6="13000.00000" pt_clust_7="13000.00000" pt_clust_8="13000.00000" pt_clust_9="72.47594" pt_clust_10="72.47594"></scales>
<clustering>
<clus scale="   72.476">  9 10 -1 -1</clus>
<clus scale="   88.706">  5  6 -1 -1</clus>
<clus scale="  108.274">  7  8 -1 -1</clus>
<clus scale="  199.800">  2  5  1 -1</clus>
<clus scale="  470.280">  2  7  1 -1</clus>
<clus scale="  489.528">  1  5  2 -1</clus>
</clustering>
</event>
<event>
10    4  0.5389768E-005  0.1031085E+03  0.7546771E-02  0.1275703E+00
         -3   -1    0    0    0  501 -0.00000000000E+00  0.00000000000E+00  0.16610875683E+03  0.16610875683E+03  0.00000000000E+00 0.  1.
         21   -1    0    0  503  502  0.00000000000E+00 -0.00000000000E+00 -0.28330874861E+03  0.28330874861E+03  0.00000000000E+00 0.  1.
         24    2    1    2    0    0 -0.12984539500E+02  0.64440786499E+02  0.10357346923E+03  0.14745287011E+03  0.81814865061E+02 0.  0.
         23    2    1    2    0    0  0.65361147121E+02 -0.14014072077E+02 -0.88648844095E+02  0.14048100137E+03  0.86068695918E+02 0.  0.
        -11    1    3    3    0    0 -0.21207080332E+01  0.83167909819E+02  0.84816995295E+02  0.11880791774E+03  0.00000000000E+00 0.  1.
         12    1    3    3    0    0 -0.10863831467E+02 -0.18727123320E+02  0.18756473934E+02  0.28644952373E+02  0.00000000000E+00 0. -1.
        -13    1    4    4    0    0  0.33957715577E+02 -0.47090624978E+02 -0.27621002803E+02  0.64292870552E+02  0.00000000000E+00 0. -1.
         13    1    4    4    0    0  0.31403431544E+02  0.33076552901E+02 -0.61027841292E+02  0.76188130817E+02  0.00000000000E+00 0.  1.
         21    1    1    2  503  501 -0.18883088754E+02 -0.15487034967E+02 -0.42932471947E+01  0.24796194556E+02  0.00000000000E+00 0. -1.
         -4    1    1    2    0  502 -0.33493518867E+02 -0.34939679455E+02 -0.12783136972E+03  0.13668743940E+03  0.00000000000E+00 0.  1.
<scales pt_clust_5="13000.00000" pt_clust_6="13000.00000" pt_clust_7="13000.00000" pt_clust_8="13000.00000" pt_clust_9="24.42170" pt_clust_10="49.08933"></scales>
<clustering>
<clus scale="   24.422">  1  9  2 -1</clus>
<clus scale="   49.089">  2 10  1 -1</clus>
<clus scale="   81.815">  5  6 -1 -1</clus>
<clus scale="   86.069">  7  8 -1 -1</clus>
<clus scale="   99.585">  1  5  2 -1</clus>
<clus scale="   49.089">  2  5  1 -1</clus>
</clustering>
</event>
<event>
10    4  0.5389768E-005  0.1471043E+03  0.7546771E-02  0.1218488E+00
         21   -1    0    0  501  502  0.00000000000E+00  0.00000000000E+00  0.79241918603E+02  0.79241918603E+02  0.00000000000E+00 0. -1.
          2   -1    0    0  503    0 -0.00000000000E+00 -0.00000000000E+00 -0.10920094082E+04  0.10920094082E+04  0.00000000000E+00 0. -1.
         24    2    1    2    0    0  0.38322845886E+02  0.60468949774E+02 -0.15062217672E+03  0.18488919231E+03  0.79823799142E+02 0.  0.
         23    2    1    2    0    0 -0.11257016829E+03  0.28100562470E+02 -0.48831977009E+02  0.15457058566E+03  0.89698492592E+02 0.  0.
        -13    1    3    3    0    0 -0.10785942694E+02  0.55579748688E+02 -0.66279948667E+02  0.87169241245E+02  0.00000000000E+00 0.  1.
         14    1    3    3    0    0  0.49108788580E+02  0.48892010862E+01 -0.84342228049E+02  0.97719951061E+02  0.00000000000E+00 0. -1.
        -11    1    4    4    0    0 -0.84421544870E+02  0.59713338617E+02 -0.42380032495E+02  0.11175306350E+03  0.00000000000E+00 0. -1.
         11    1    4    4    0    0 -0.28148623421E+02 -0.31612776147E+02 -0.64519445140E+01  0.42817522164E+02  0.00000000000E+00 0.  1.
         21    1    1    2  503  502 -0.18857836363E+02  0.21254685005E+02 -0.93596521826E+02  0.97814561927E+02  0.00000000000E+00 0. -1.
          1    1    1    2  501    0  0.93105158768E+02 -0.10982419725E+03 -0.71971681408E+03  0.73397698694E+03  0.00000000000E+00 0. -1.
<scales pt_clust_5="13000.00000" pt_clust_6="13000.00000" pt_clust_7="13000.00000" pt_clust_8="13000.00000" pt_clust_9="28.41443" pt_clust_10="116.59281"></scales>
<clustering>
<clus scale="   28.414">  2  9  1 -1</clus>
<clus scale="   79.824">  5  6 -1 -1</clus>
<clus scale="   89.698">  7  8 -1 -1</clus>
<clus scale="  108.210">  2  5  1 -1</clus>
<clus scale="  116.593">  1 10  2 -1</clus>
<clus scale="  116.593">  1  5  2 -1</clus>
</clustering>
</event>
<event>
10    4  0.5389768E-005  0.1077090E+03  0.7546771E-02  0.1269554E+00
          2   -1    0    0  503    0 -0.00000000000E+00  0.00000000000E+00  0.49721089392E+03  0.49721089392E+03  0.00000000000E+00 0. -1.
         21   -1    0    0  501  502  0.00000000000E+00 -0.00000000000E+00 -0.62731367642E+02  0.62731367642E+02  0.00000000000E+00 0. -1.
         23    2    1    2    0    0  0.66305305886E+02  0.49169110849E+02  0.24735230624E+03  0.27647385831E+03  0.91872933335E+02 0.  0.
         24    2    1    2    0    0 -0.53695806984E+01 -0.28417181914E+02  0.80752357010E+02  0.11776488609E+03  0.80692357807E+02 0.  0.
        -11    1    4    4    0    0 -0.50203574438E+01  0.25171738436E+02  0.49418421349E+02  0.55686630113E+02  0.00000000000E+00 0.  1.
         12    1    4    4    0    0 -0.34922325454E+00 -0.53588920350E+02  0.31333935661E+02  0.62078255977E+02  0.00000000000E+00 0. -1.
        -13    1    3    3    0    0  0.10621167352E+02 -0.20487617205E+02  0.11221804331E+03  0.11456631659E+03  0.00000000000E+00 0.  1.
         13    1    3    3    0    0  0.55684138533E+02  0.69656728054E+02  0.13513426293E+03  0.16190754172E+03  0.00000000000E+00 0. -1.
         21    1    1    2  503  502 -0.40232053566E+02 -0.14978213948E+02 -0.12649049600E+02  0.44754480033E+02  0.00000000000E+00 0. -1.
          1    1    1    2  501    0 -0.20703671621E+02 -0.57737149876E+01  0.11902391264E+03  0.12094903713E+03  0.00000000000E+00 0. -1.
<scales pt_clust_5="13000.00000" pt_clust_6="13000.00000" pt_clust_7="13000.00000" pt_clust_8="13000.00000" pt_clust_9="52.88824" pt_clust_10="21.49368"></scales>
<clustering>
<clus scale="   21.494">  2 10  1 -1</clus>
<clus scale="   52.888">  2  9  1 -1</clus>
<clus scale="   80.692">  5  6 -1 -1</clus>
<clus scale="   91.873">  7  8 -1 -1</clus>
<clus scale="   98.346">  2  5  1 -1</clus>
<clus scale="   21.494">  2  5  1 -1</clus>
</clustering>
</event>
<event>
10    4  0.5389768E-005  0.1088531E+03  0.7546771E-02  0.1288380E+00
         21   -1    0    0  501  502  0.00000000000E+00  0.00000000000E+00  0.12064631891E+03  0.12064631891E+03  0.00000000000E+00 0. -1.
         -1   -1    0    0    0  501 -0.00000000000E+00 -0.00000000000E+00 -0.24368365308E+03  0.24368365308E+03  0.00000000000E+00 0.  1.
         24    2    1    2    0    0  0.22851823117E+02 -0.30536509750E+02  0.14893863055E+02  0.73728598371E+02  0.61313903918E+02 0.  0.
         23    2    1    2    0    0  0.29061315380E+02 -0.54891236356E+02 -0.11618366228E+02  0.11133336014E+03  0.91665275685E+02 0.  0.
        -11    1    3    3    0    0  0.26352750929E+02  0.86175538941E+01  0.19861280661E+02  0.34105720724E+02  0.00000000000E+00 0.  1.
         12    1    3    3    0    0 -0.35009278121E+01 -0.39154063644E+02 -0.49674176053E+01  0.39622877647E+02  0.00000000000E+00 0. -1.
        -13    1    4    4    0    0  0.44730471451E+02 -0.10097691246E+02  0.24226219548E+02  0.51862203562E+02  0.00000000000E+00 0. -1.
         13    1    4    4    0    0 -0.15669156071E+02 -0.44793545110E+02 -0.35844585776E+02  0.59471156580E+02  0.00000000000E+00 0.  1.
         21    1    1    2  503  502 -0.39012353357E+02  0.12950974621E+02 -0.11157878904E+02  0.42593306044E+02  0.00000000000E+00 0. -1.
         -2    1    1    2    0  503 -0.12900785139E+02  0.72476771484E+02 -0.11515495209E+03  0.13667470744E+03  0.00000000000E+00 0.  1.
<scales pt_clust_5="13000.00000" pt_clust_6="13000.00000" pt_clust_7="13000.00000" pt_clust_8="13000.00000" pt_clust_9="41.10586" pt_clust_10="58.70673"></scales>
<clustering>
<clus scale="   41.106">  1  9  2 -1</clus>
<clus scale="   61.314">  5  6 -1 -1</clus>
<clus scale="   66.546">  2  5  1 -1</clus>
<clus scale="   58.707">  1 10  2 -1</clus>
<clus scale="   91.665">  7  8 -1 -1</clus>
<clus scale="   41.106">  1  5  2 -1</clus>
</clustering>
</event>
<event>
10    4  0.5389768E-005  0.1097628E+03  0.7546771E-02  0.1267231E+00
         21   -1    0    0  501  502  0.00000000000E+00  0.00000000000E+00  0.27650985641E+03  0.27650985641E+03  0.00000000000E+00 0. -1.
          2   -1    0    0  503    0 -0.00000000000E+00 -0.00000000000E+00 -0.62818331339E+03  0.62818331339E+03  0.00000000000E+00 0. -1.
         24    2    1    2    0    0  0.56866710693E+01  0.36445081954E+02 -0.38252257121E+03  0.39100028190E+03  0.72091058588E+02 0.  0.
         23    2    1    2    0    0 -0.51906278135E+02 -0.93488032353E+02  0.62292796996E+02  0.15202004388E+03  0.88291716937E+02 0.  0.
        -11    1    3    3    0    0  0.11628175662E+02  0.44553615394E+02 -0.12385454998E+03  0.13213700718E+03  0.00000000000E+00 0.  1.
         12    1    3    3    0    0 -0.59415045931E+01 -0.81085334405E+01 -0.25866802123E+03  0.25886327472E+03  0.00000000000E+00 0. -1.
        -11    1    4    4    0    0 -0.21276777318E+01 -0.27105946982E+02 -0.21073735000E+02  0.34400024436E+02  0.00000000000E+00 0. -1.
         11    1    4    4    0    0 -0.49778600403E+02 -0.66382085370E+02  0.83366531996E+02  0.11762001944E+03  0.00000000000E+00 0.  1.
         21    1    1    2  503  502  0.67416621277E+02 -0.30911234369E+02 -0.17608523120E+03  0.19106677859E+03  0.00000000000E+00 0. -1.
          1    1    1    2  501    0 -0.21197014211E+02  0.87954184769E+02  0.14464154843E+03  0.17060606543E+03  0.00000000000E+00 0. -1.
<scales pt_clust_5="13000.00000" pt_clust_6="13000.00000" pt_clust_7="13000.00000" pt_clust_8="13000.00000" pt_clust_9="74.16539" pt_clust_10="89.14996"></scales>
<clustering>
<clus scale="   72.091">  5  6 -1 -1</clus>
<clus scale="   74.165">  2  9  1 -1</clus>
<clus scale="   88.292">  7  8 -1 -1</clus>
<clus scale="   89.150">  1 10  2 -1</clus>
<clus scale="   97.209">  2  5  1 -1</clus>
<clus scale="   89.150">  1  5  2 -1</clus>
</clustering>
</event>
<event>
10    4  0.5389768E-005  0.8845914E+02  0.7546771E-02  0.1310041E+00
         21   -1    0    0  503  502  0.00000000000E+00  0.00000000000E+00  0.11411349181E+03  0.11411349181E+03  0.00000000000E+00 0.  1.
         -3   -1    0    0    0  501 -0.00000000000E+00 -0.00000000000E+00 -0.37818126925E+03  0.37818126925E+03  0.00000000000E+00 0.  1.
         24    2    1    2    0    0  0.20180380198E+02  0.45690175062E+01 -0.26753676940E+03  0.28032823519E+03  0.81116415102E+02 0.  0.
         23    2    1    2    0    0 -0.74435403602E+00  0.19139800025E+01  0.44914211405E+01  0.86710507140E+02  0.86569751081E+02 0.  0.
        -13    1    3    3    0    0 -0.31008048161E+02 -0.50550379491E+01 -0.11046553800E+03  0.11484636496E+03  0.00000000000E+00 0.  1.
         14    1    3    3    0    0  0.51188428359E+02  0.96240554553E+01 -0.15707123140E+03  0.16548187023E+03  0.00000000000E+00 0. -1.
        -11    1    4    4    0    0  0.10909844206E+02 -0.37897058899E+02 -0.13237978991E+02  0.41598748317E+02  0.00000000000E+00 0. -1.
         11    1    4    4    0    0 -0.11654198242E+02  0.39811038901E+02  0.17729400131E+02  0.45111758823E+02  0.00000000000E+00 0.  1.
         21    1    1    2  503  501 -0.31173387537E+02  0.28756073607E+02 -0.48855365193E+02  0.64695738407E+02  0.00000000000E+00 0.  1.
         -4    1    1    2    0  502  0.11737361375E+02 -0.35239071115E+02  0.47832936010E+02  0.60560280320E+02  0.00000000000E+00 0.  1.
<scales pt_clust_5="13000.00000" pt_clust_6="13000.00000" pt_clust_7="13000.00000" pt_clust_8="13000.00000" pt_clust_9="38.18595" pt_clust_10="37.14240"></scales>
<clustering>
<clus scale="   37.142">  1 10  2 -1</clus>
<clus scale="   38.186">  1  9  2 -1</clus>
<clus scale="   81.116">  5  6 -1 -1</clus>
<clus scale="   83.130">  2  5  1 -1</clus>
<clus scale="   86.570">  7  8 -1 -1</clus>
<clus scale="   37.142">  1  5  2 -1</clus>
</clustering>
</event>
<event>
10    4  0.5389768E-005  0.9439232E+02  0.7546771E-02  0.1296324E+00
          4   -1    0    0  503    0 -0.00000000000E+00  0.00000000000E+00  0.86123641352E+03  0.86123641352E+03  0.00000000000E+00 0. -1.
         21   -1    0    0  501  502  0.00000000000E+00 -0.00000000000E+00 -0.38071226688E+02  0.38071226688E+02  0.00000000000E+00 0. -1.
         24    2    1    2    0    0 -0.89361235818E+01  0.34473408730E+02  0.30182440902E+03  0.31505992822E+03  0.83045254382E+02 0.  0.
         23    2    1    2    0    0  0.42806837930E+02 -0.17140417082E+02  0.64329911800E+02  0.11969953677E+03  0.89796560509E+02 0.  0.
        -11    1    3    3    0    0 -0.86498069829E+01  0.42716988797E+02  0.66004812679E+02  0.79096116147E+02  0.00000000000E+00 0.  1.
         12    1    3    3    0    0 -0.28631659896E+00 -0.82435800664E+01  0.23581959634E+03  0.23596381207E+03  0.00000000000E+00 0. -1.
        -13    1    4    4    0    0  0.25741610744E+02  0.34207097292E+02  0.12083493616E+02  0.44483332236E+02  0.00000000000E+00 0. -1.
         13    1    4    4    0    0  0.17065227185E+02 -0.51347514374E+02  0.52246418185E+02  0.75216204534E+02  0.00000000000E+00 0.  1.
         21    1    1    2  503  502  0.18778251943E+02 -0.13242624618E+02  0.63890856721E+02  0.67897212206E+02  0.00000000000E+00 0. -1.
          3    1    1    2  501    0 -0.52648966290E+02 -0.40903670296E+01  0.39312000929E+03  0.39665096301E+03  0.00000000000E+00 0. -1.
<scales pt_clust_5="13000.00000" pt_clust_6="13000.00000" pt_clust_7="13000.00000" pt_clust_8="13000.00000" pt_clust_9="22.97803" pt_clust_10="44.61904"></scales>
<clustering>
<clus scale="   22.978">  1  9  2 -1</clus>
<clus scale="   44.619">  2 10  1 -1</clus>
<clus scale="   83.045">  5  6 -1 -1</clus>
<clus scale="   87.994">  1  5  2 -1</clus>
<clus scale="   89.797">  7  8 -1 -1</clus>
<clus scale="   44.619">  2  5  1 -1</clus>
</clustering>
</event>
<event>
10    4  0.5389768E-005  0.1084557E+03  0.7546771E-02  0.1268681E+00
          2   -1    0    0  503    0 -0.00000000000E+00  0.00000000000E+00  0.63989856010E+03  0.63989856010E+03  0.00000000000E+00 0. -1.
         21   -1    0    0  501  502  0.00000000000E+00 -0.00000000000E+00 -0.62749387502E+02  0.62749387502E+02  0.00000000000E+00 0. -1.
         24    2    1    2    0    0 -0.40511929387E+02 -0.34829232021E+02  0.12819183319E+03  0.15948116802E+03  0.78401562697E+02 0.  0.
         23    2    1    2    0    0  0.88477413636E+02 -0.57041464185E+02  0.10343204909E+03  0.17346904282E+03  0.91166543634E+02 0.  0.
        -11    1    3    3    0    0 -0.26882374866E+02  0.19874545034E+02  0.74369234337E+02  0.81537982772E+02  0.00000000000E+00 0.  1.
         12    1    3    3    0    0 -0.13629554521E+02 -0.54703777055E+02  0.53822598848E+02  0.77943185253E+02  0.00000000000E+00 0. -1.
        -13    1    4    4    0    0  0.16054139170E+02 -0.53728857111E+02  0.12999238630E+02  0.57563058257E+02  0.00000000000E+00 0.  1.
         13    1    4    4    0    0  0.72423274466E+02 -0.33126070741E+01  0.90432810460E+02  0.11590598456E+03  0.00000000000E+00 0. -1.
         21    1    1    2  503  502 -0.15675786748E+02  0.34352186990E+02  0.25449518886E+03  0.25728117730E+03  0.00000000000E+00 0. -1.
          1    1    1    2  501    0 -0.32289697501E+02  0.57518509217E+02  0.91030101464E+02  0.11241655946E+03  0.00000000000E+00 0. -1.
<scales pt_clust_5="13000.00000" pt_clust_6="13000.00000" pt_clust_7="13000.00000" pt_clust_8="13000.00000" pt_clust_9="37.75981" pt_clust_10="75.93443"></scales>
<clustering>
<clus scale="   37.760">  1  9  2 -1</clus>
<clus scale="   75.934">  2 10  1 -1</clus>
<clus scale="   78.402">  5  6 -1 -1</clus>
<clus scale="   91.167">  7  8 -1 -1</clus>
<clus scale="   97.970">  1  5  2 -1</clus>
<clus scale="   75.934">  2  5  1 -1</clus>
</clustering>
</event>
<event>
10    4  0.5389768E-005  0.8275248E+02  0.7546771E-02  0.1323513E+00
         -3   -1    0    0    0  501 -0.00000000000E+00  0.00000000000E+00  0.52861357848E+02  0.52861357848E+02  0.00000000000E+00 0.  1.
         21   -1    0    0  503  502  0.00000000000E+00 -0.00000000000E+00 -0.51627546553E+03  0.51627546553E+03  0.00000000000E+00 0.  1.
         24    2    1    2    0    0  0.34907208781E+02  0.13868594919E+01 -0.18140016524E+02  0.85836614832E+02  0.76278618513E+02 0.  0.
         23    2    1    2    0    0  0.19749260622E+02 -0.27724982294E+02 -0.34199554789E+03  0.35134829443E+03  0.72979183936E+02 0.  0.
        -11    1    3    3    0    0  0.57877594998E+02 -0.15021626816E+01 -0.22793322888E+02  0.62222247337E+02  0.00000000000E+00 0.  1.
         12    1    3    3    0    0 -0.22970386217E+02  0.28890221735E+01  0.46533063640E+01  0.23614367495E+02  0.00000000000E+00 0. -1.
        -11    1    4    4    0    0  0.34066643670E+02 -0.45595472531E+02 -0.22146051968E+03  0.22865748425E+03  0.00000000000E+00 0.  1.
         11    1    4    4    0    0 -0.14317383048E+02  0.17870490236E+02 -0.12053502821E+03  0.12269081018E+03  0.00000000000E+00 0. -1.
         21    1    1    2  503  501 -0.34974149778E+02  0.43624401607E+02 -0.71619019693E+02  0.90860131797E+02  0.00000000000E+00 0.  1.
         -4    1    1    2    0  502 -0.19682319625E+02 -0.17286278805E+02 -0.31659523576E+02  0.41091782314E+02  0.00000000000E+00 0.  1.
<scales pt_clust_5="13000.00000" pt_clust_6="13000.00000" pt_clust_7="13000.00000" pt_clust_8="13000.00000" pt_clust_9="55.88998" pt_clust_10="26.19561"></scales>
<clustering>
<clus scale="   26.196">  2 10  1 -1</clus>
<clus scale="   55.890">  1  9  2 -1</clus>
<clus scale="   72.979">  7  8 -1 -1</clus>
<clus scale="   76.279">  5  6 -1 -1</clus>
<clus scale="   79.721">  2  7  1 -1</clus>
<clus scale="   26.196">  2  5  1 -1</clus>
</clustering>
</event>
<event>
10    4  0.5389768E-005  0.3314001E+03  0.7546771E-02  0.1070818E+00
          2   -1    0    0  503    0 -0.00000000000E+00  0.00000000000E+00  0.15021190574E+04  0.15021190574E+04  0.00000000000E+00 0. -1.
         21   -1    0    0  501  502  0.00000000000E+00 -0.00000000000E+00 -0.12728405941E+03  0.12728405941E+03  0.00000000000E+00 0.  1.
         24    2    1    2    0    0  0.71216666185E+02 -0.34969784911E+03  0.66379887394E+03  0.75792441064E+03  0.80374548081E+02 0.  0.
         23    2    1    2    0    0 -0.58473858803E+02  0.27882332338E+03  0.33591359900E+03  0.44971628937E+03  0.90802847487E+02 0.  0.
        -13    1    3    3    0    0  0.10818797571E+02 -0.37646352267E+02  0.31616037523E+02  0.50337541145E+02  0.00000000000E+00 0.  1.
         14    1    3    3    0    0  0.60397868614E+02 -0.31205149684E+03  0.63218283642E+03  0.70758686949E+03  0.00000000000E+00 0. -1.
        -13    1    4    4    0    0 -0.12248649697E+02  0.47012541332E+02  0.14416831904E+02  0.50675965744E+02  0.00000000000E+00 0.  1.
         13    1    4    4    0    0 -0.46225209106E+02  0.23181078205E+03  0.32149676709E+03  0.39904032363E+03  0.00000000000E+00 0. -1.
         21    1    1    2  503  502  0.55116108762E+02  0.52702329533E+02  0.32900560035E+03  0.33772770992E+03  0.00000000000E+00 0.  1.
          1    1    1    2  501    0 -0.67858916144E+02  0.18172196198E+02  0.46116924652E+02  0.84034706843E+02  0.00000000000E+00 0. -1.
<scales pt_clust_5="13000.00000" pt_clust_6="13000.00000" pt_clust_7="13000.00000" pt_clust_8="13000.00000" pt_clust_9="74.82838" pt_clust_10="70.24999"></scales>
<clustering>
<clus scale="   70.250">  2 10  1 -1</clus>
<clus scale="   74.828">  1  9  2 -1</clus>
<clus scale="   80.375">  5  6 -1 -1</clus>
<clus scale="   90.803">  7  8 -1 -1</clus>
<clus scale="  328.696">  1  5  2 -1</clus>
<clus scale="   70.250">  2  5  1 -1</clus>
</clustering>
</event>
<event>
10    4  0.5389768E-005  0.6939457E+03  0.7546771E-02  0.1012841E+00
          2   -1    0    0  503    0 -0.00000000000E+00  0.00000000000E+00  0.27327161198E+04  0.27327161198E+04  0.00000000000E+00 0. -1.
         21   -1    0    0  501  502  0.00000000000E+00 -0.00000000000E+00 -0.63311249750E+03  0.63311249750E+03  0.00000000000E+00 0. -1.
         24    2    1    2    0    0  0.11435271530E+03  0.14140882765E+03 -0.14920107040E+01  0.19932992300E+03  0.81591617675E+02 0.  0.
         23    2    1    2    0    0 -0.43299397675E+03  0.53350751421E+03  0.14604147335E+04  0.16164883683E+04  0.90052203483E+02 0.  0.
        -11    1    3    3    0    0  0.38797730030E+02  0.10787203985E+03 -0.14847076037E+02  0.11559444841E+03  0.00000000000E+00 0.  1.
         12    1    3    3    0    0  0.75554985266E+02  0.33536787796E+02  0.13355065333E+02  0.83735474587E+02  0.00000000000E+00 0. -1.
        -13    1    4    4    0    0 -0.26288363113E+02  0.37734690421E+02  0.55000267384E+02  0.71693893106E+02  0.00000000000E+00 0.  1.
         13    1    4    4    0    0 -0.40670561364E+03  0.49577282378E+03  0.14054144661E+04  0.15447944752E+04  0.00000000000E+00 0. -1.
         21    1    1    2  503  502 -0.84975852943E+02 -0.11725495280E+03  0.82479920656E+03  0.83741468263E+03  0.00000000000E+00 0.  1.
          1    1    1    2  501    0  0.40361711440E+03 -0.55766138905E+03 -0.18411830712E+03  0.71259564333E+03  0.00000000000E+00 0. -1.
<scales pt_clust_5="13000.00000" pt_clust_6="13000.00000" pt_clust_7="13000.00000" pt_clust_8="13000.00000" pt_clust_9="144.80891" pt_clust_10="688.07798"></scales>
<clustering>
<clus scale="   81.592">  5  6 -1 -1</clus>
<clus scale="   90.052">  7  8 -1 -1</clus>
<clus scale="  144.809">  1  9  2 -1</clus>
<clus scale="  192.486">  1  5  2 -1</clus>
<clus scale="  688.078">  2 10  1 -1</clus>
<clus scale="  688.078">  2  5  1 -1</clus>
</clustering>
</event>
<event>
10    4  0.5389768E-005  0.2115457E+03  0.7546771E-02  0.1140592E+00
         -1   -1    0    0    0  501 -0.00000000000E+00  0.00000000000E+00  0.34613574860E+03  0.34613574860E+03  0.00000000000E+00 0.  1.
         21   -1    0    0  503  502  0.00000000000E+00 -0.00000000000E+00 -0.47706157681E+03  0.47706157681E+03  0.00000000000E+00 0.  1.
         23    2    1    2    0    0 -0.86466337515E+02  0.14577779026E+03  0.17024607745E+03  0.25422254360E+03  0.83173211635E+02 0.  0.
         24    2    1    2    0    0  0.89810010096E+02 -0.16101119052E+03 -0.26842490772E+03  0.33531575633E+03  0.79964266868E+02 0.  0.
        -11    1    4    4    0    0 -0.58282276509E+01 -0.61143415231E+02 -0.65866050230E+02  0.90060102357E+02  0.00000000000E+00 0.  1.
         12    1    4    4    0    0  0.95638237747E+02 -0.99867775293E+02 -0.20255885749E+03  0.24525565398E+03  0.00000000000E+00 0. -1.
        -13    1    3    3    0    0 -0.81023574396E+02  0.58090169030E+02  0.10498511745E+03  0.14477970242E+03  0.00000000000E+00 0.  1.
         13    1    3    3    0    0 -0.54427631190E+01  0.87687621227E+02  0.65260959997E+02  0.10944284118E+03  0.00000000000E+00 0. -1.
         21    1    1    2  503  501 -0.57143997367E+02  0.52707491401E+00  0.85545463836E+02  0.10287730861E+03  0.00000000000E+00 0.  1.
         -2    1    1    2    0  502  0.53800324786E+02  0.14706325353E+02 -0.11829246178E+03  0.13078171687E+03  0.00000000000E+00 0.  1.
<scales pt_clust_5="13000.00000" pt_clust_6="13000.00000" pt_clust_7="13000.00000" pt_clust_8="13000.00000" pt_clust_9="55.82852" pt_clust_10="55.77411"></scales>
<clustering>
<clus scale="   55.774">  2 10  1 -1</clus>
<clus scale="   55.829">  1  9  2 -1</clus>
<clus scale="   79.964">  5  6 -1 -1</clus>
<clus scale="   83.173">  7  8 -1 -1</clus>
<clus scale="  210.305">  2  5  1 -1</clus>
<clus scale="   55.774">  2  5  1 -1</clus>
</clustering>
</event>
<event>
10    4  0.5389768E-005  0.1421068E+03  0.7546771E-02  0.1213947E+00
         21   -1    0    0  501  502  0.00000000000E+00  0.00000000000E+00  0.47530274978E+03  0.47530274978E+03  0.00000000000E+00 0. -1.
          2   -1    0    0  503    0 -0.00000000000E+00 -0.00000000000E+00 -0.15495087583E+03  0.15495087583E+03  0.00000000000E+00 0. -1.
         23    2    1    2    0    0 -0.77956689719E+01 -0.79462256567E+02  0.10719513701E+03  0.16411413208E+03  0.95224095034E+02 0.  0.
         24    2    1    2    0    0 -0.10307438227E+02  0.15747729442E+03  0.29059082593E+03  0.34011363381E+03  0.79554473450E+02 0.  0.
        -11    1    4    4    0    0 -0.96855438728E+01  0.16628185460E+03  0.26455636158E+03  0.31262362896E+03  0.00000000000E+00 0.  1.
         12    1    4    4    0    0 -0.62189435377E+00 -0.88045601831E+01  0.26034464349E+02  0.27490004848E+02  0.00000000000E+00 0. -1.
        -11    1    3    3    0    0  0.70530925520E+01 -0.26404388674E+02 -0.14201433983E+02  0.30799652319E+02  0.00000000000E+00 0.  1.
         11    1    3    3    0    0 -0.14848761524E+02 -0.53057867893E+02  0.12139657099E+03  0.13331447976E+03  0.00000000000E+00 0. -1.
         21    1    1    2  503  502 -0.15235832958E+02 -0.15378731455E+02 -0.90987135184E+00  0.21667114551E+02  0.00000000000E+00 0.  1.
          1    1    1    2  501    0  0.33338940156E+02 -0.62636306398E+02 -0.76524217637E+02  0.10435874518E+03  0.00000000000E+00 0. -1.
<scales pt_clust_5="13000.00000" pt_clust_6="13000.00000" pt_clust_7="13000.00000" pt_clust_8="13000.00000" pt_clust_9="21.64800" pt_clust_10="76.11712"></scales>
<clustering>
<clus scale="   21.648">  2  9  1 -1</clus>
<clus scale="   76.117">  1 10  2 -1</clus>
<clus scale="   79.554">  5  6 -1 -1</clus>
<clus scale="   95.224">  7  8 -1 -1</clus>
<clus scale="  132.120">  1  5  2 -1</clus>
<clus scale="   76.117">  1  5  2 -1</clus>
</clustering>
</event>
<event>
10    4  0.5389768E-005  0.1785810E+03  0.7546771E-02  0.1180309E+00
         21   -1    0    0  501  502  0.00000000000E+00  0.00000000000E+00  0.32230105152E+03  0.32230105152E+03  0.00000000000E+00 0. -1.
          2   -1    0    0  503    0 -0.00000000000E+00 -0.00000000000E+00 -0.76015313172E+03  0.76015313172E+03  0.00000000000E+00 0. -1.
         24    2    1    2    0    0 -0.90837864615E+02  0.69349887992E+02 -0.57481296928E+03  0.59252402538E+03  0.87257357220E+02 0.  0.
         23    2    1    2    0    0 -0.56665270025E+02 -0.10780513668E+03  0.56737420489E+02  0.16275020361E+03  0.91845487470E+02 0.  0.
        -11    1    3    3    0    0 -0.55821901749E+02  0.46089665543E+02 -0.16033174422E+03  0.17591648640E+03  0.00000000000E+00 0.  1.
         12    1    3    3    0    0 -0.35015962866E+02  0.23260222450E+02 -0.41448122506E+03  0.41660753898E+03  0.00000000000E+00 0. -1.
        -13    1    4    4    0    0 -0.53954972490E+02 -0.41585508875E+02  0.67159945661E+02  0.95660607912E+02  0.00000000000E+00 0. -1.
         13    1    4    4    0    0 -0.27102975345E+01 -0.66219627809E+02 -0.10422525172E+02  0.67089595697E+02  0.00000000000E+00 0.  1.
         21    1    1    2  503  502 -0.18147435920E+02 -0.59810597611E+02 -0.61782906664E+02  0.87884950776E+02  0.00000000000E+00 0.  1.
          1    1    1    2  501    0  0.16565057056E+03  0.98265846302E+02  0.14200637525E+03  0.23929500347E+03  0.00000000000E+00 0. -1.
<scales pt_clust_5="13000.00000" pt_clust_6="13000.00000" pt_clust_7="13000.00000" pt_clust_8="13000.00000" pt_clust_9="62.50310" pt_clust_10="153.15227"></scales>
<clustering>
<clus scale="   62.503">  2  9  1 -1</clus>
<clus scale="   87.257">  5  6 -1 -1</clus>
<clus scale="   91.845">  7  8 -1 -1</clus>
<clus scale="  138.748">  2  5  1 -1</clus>
<clus scale="  153.152">  1 10  2 -1</clus>
<clus scale="  153.152">  1  5  2 -1</clus>
</clustering>
</event>
<event>
10    4  0.5389768E-005  0.9519494E+02  0.7546771E-02  0.1295243E+00
         -3   -1    0    0    0  501 -0.00000000000E+00  0.00000000000E+00  0.11326848796E+03  0.11326848796E+03  0.00000000000E+00 0.  1.
         21   -1    0    0  503  502  0.00000000000E+00 -0.00000000000E+00 -0.27291032598E+03  0.27291032598E+03  0.00000000000E+00 0.  1.
         23    2    1    2    0    0 -0.16546119573E+02  0.18760957060E+02  0.51222469493E+02  0.10957849504E+03  0.93583960226E+02 0.  0.
         24    2    1    2    0    0  0.13945753181E+02  0.37138564381E+02 -0.88348620456E+02  0.12936777009E+03  0.85771698162E+02 0.  0.
        -11    1    4    4    0    0  0.41138060116E+02  0.49630763713E+02 -0.57350705140E+02  0.86282420440E+02  0.00000000000E+00 0.  1.
         12    1    4    4    0    0 -0.27192306935E+02 -0.12492199332E+02 -0.30997915316E+02  0.43085349651E+02  0.00000000000E+00 0. -1.
        -11    1    3    3    0    0  0.27435630703E+02 -0.22773768776E+02  0.25535148061E+02  0.43856609112E+02  0.00000000000E+00 0.  1.
         11    1    3    3    0    0 -0.43981750275E+02  0.41534725836E+02  0.25687321432E+02  0.65721885928E+02  0.00000000000E+00 0. -1.
         21    1    1    2  503  501  0.24319661342E+02 -0.14362796633E+02 -0.20300983406E+02  0.34783124962E+02  0.00000000000E+00 0. -1.
         -4    1    1    2    0  502 -0.21719294951E+02 -0.41536724809E+02 -0.10221470365E+03  0.11244942385E+03  0.00000000000E+00 0.  1.
<scales pt_clust_5="13000.00000" pt_clust_6="13000.00000" pt_clust_7="13000.00000" pt_clust_8="13000.00000" pt_clust_9="28.24422" pt_clust_10="49.08659"></scales>
<clustering>
<clus scale="   28.244">  2  9  1 -1</clus>
<clus scale="   49.087">  2 10  1 -1</clus>
<clus scale="   85.772">  5  6 -1 -1</clus>
<clus scale="   87.527">  2  5  1 -1</clus>
<clus scale="   93.584">  7  8 -1 -1</clus>
<clus scale="   28.244">  2  5  1 -1</clus>
</clustering>
</event>
<event>
10    4  0.5389768E-005  0.3617242E+03  0.7546771E-02  0.1108970E+00
         21   -1    0    0  501  502  0.00000000000E+00  0.00000000000E+00  0.13232511098E+03  0.13232511098E+03  0.00000000000E+00 0. -1.
          2   -1    0    0  503    0 -0.00000000000E+00 -0.00000000000E+00 -0.18514227445E+04  0.18514227445E+04  0.00000000000E+00 0. -1.
         24    2    1    2    0    0 -0.10043526161E+02  0.51198722421E+02 -0.41771301893E+03  0.42850368909E+03  0.80056628609E+02 0.  0.
         23    2    1    2    0    0 -0.32716161372E+03  0.14835243433E+03 -0.33479759913E+03  0.49884514064E+03  0.87828672401E+02 0.  0.
        -13    1    3    3    0    0  0.19417739681E+02 -0.13900048373E+02 -0.11778683592E+03  0.12018318799E+03  0.00000000000E+00 0.  1.
         14    1    3    3    0    0 -0.29461265842E+02  0.65098770794E+02 -0.29992618301E+03  0.30832050110E+03  0.00000000000E+00 0. -1.
        -13    1    4    4    0    0 -0.93525706673E+02  0.84974243310E+02 -0.94884123401E+02  0.15802112741E+03  0.00000000000E+00 0.  1.
         13    1    4    4    0    0 -0.23363590704E+03  0.63378191022E+02 -0.23991347573E+03  0.34082401323E+03  0.00000000000E+00 0. -1.
         21    1    1    2  503  502  0.49040887384E+02 -0.20436313623E+02 -0.33741028007E+03  0.34156748769E+03  0.00000000000E+00 0. -1.
          1    1    1    2  501    0  0.28816425249E+03 -0.17911484313E+03 -0.62917673539E+03  0.71483153805E+03  0.00000000000E+00 0. -1.
<scales pt_clust_5="13000.00000" pt_clust_6="13000.00000" pt_clust_7="13000.00000" pt_clust_8="13000.00000" pt_clust_9="53.12863" pt_clust_10="350.89977"></scales>
<clustering>
<clus scale="   53.129">  2  9  1 -1</clus>
<clus scale="   80.057">  5  6 -1 -1</clus>
<clus scale="   87.829">  7  8 -1 -1</clus>
<clus scale="   92.147">  2  5  1 -1</clus>
<clus scale="  350.900">  1 10  2 -1</clus>
<clus scale="  350.900">  1  5  2 -1</clus>
</clustering>
</event>
<event>
10    4  0.5389768E-005  0.1445813E+03  0.7546771E-02  0.1210157E+00
         21   -1    0    0  501  502  0.00000000000E+00  0.00000000000E+00  0.33002111411E+03  0.33002111411E+03  0.00000000000E+00 0.  1.
          2   -1    0    0  503    0 -0.00000000000E+00 -0.00000000000E+00 -0.21432345745E+03  0.21432345745E+03  0.00000000000E+00 0. -1.
         24    2    1    2    0    0 -0.22442088534E+02  0.79159717295E+02 -0.18384259777E+02  0.11718107898E+03  0.81384986839E+02 0.  0.
         23    2    1    2    0    0  0.89756161071E+02 -0.14247915743E+03  0.21467800166E+03  0.28892452934E+03  0.95048727024E+02 0.  0.
        -11    1    3    3    0    0 -0.51546230082E+02  0.48535210854E+02 -0.23559148971E+02  0.74617116190E+02  0.00000000000E+00 0.  1.
         12    1    3    3    0    0  0.29104141548E+02  0.30624506441E+02  0.51748891941E+01  0.42563962787E+02  0.00000000000E+00 0. -1.
        -13    1    4    4    0    0  0.58469455181E+02 -0.38158054081E+02  0.33286380995E+02  0.77347898744E+02  0.00000000000E+00 0. -1.
         13    1    4    4    0    0  0.31286705890E+02 -0.10432110335E+03  0.18139162066E+03  0.21157663060E+03  0.00000000000E+00 0.  1.
         21    1    1    2  503  502 -0.31528470492E+02  0.17929197797E+02 -0.70889430338E+02  0.79629215235E+02  0.00000000000E+00 0.  1.
          1    1    1    2  501    0 -0.35785602044E+02  0.45390242335E+02 -0.97066548832E+01  0.58609748011E+02  0.00000000000E+00 0. -1.
<scales pt_clust_5="13000.00000" pt_clust_6="13000.00000" pt_clust_7="13000.00000" pt_clust_8="13000.00000" pt_clust_9="36.26983" pt_clust_10="66.13862"></scales>
<clustering>
<clus scale="   36.270">  2  9  1 -1</clus>
<clus scale="   66.139">  1 10  2 -1</clus>
<clus scale="   81.385">  5  6 -1 -1</clus>
<clus scale="   95.049">  7  8 -1 -1</clus>
<clus scale="  135.989">  2  5  1 -1</clus>
<clus scale="   66.139">  1  5  2 -1</clus>
</clustering>
</event>
<event>
10    4  0.5389768E-005  0.1501102E+03  0.7546771E-02  0.1201938E+00
         21   -1    0    0  501  502  0.00000000000E+00  0.00000000000E+00  0.25609304409E+03  0.25609304409E+03  0.00000000000E+00 0. -1.
          2   -1    0    0  503    0 -0.00000000000E+00 -0.00000000000E+00 -0.63761097027E+03  0.63761097027E+03  0.00000000000E+00 0. -1.
         23    2    1    2    0    0 -0.10081824144E+03  0.11981830714E+03 -0.46976518206E+02  0.18706975476E+03  0.90926098284E+02 0.  0.
         24    2    1    2    0    0  0.49353999724E+02 -0.47932689346E+02  0.76063507374E+02  0.13143762013E+03  0.82199944253E+02 0.  0.
        -13    1    4    4    0    0 -0.14800492583E+02 -0.36622910179E+02  0.15319566302E+02  0.42367218960E+02  0.00000000000E+00 0.  1.
         14    1    4    4    0    0  0.64154492307E+02 -0.11309779167E+02  0.60743941072E+02  0.89070401172E+02  0.00000000000E+00 0. -1.
        -11    1    3    3    0    0 -0.14581893371E+02  0.63474667684E+02  0.15024988154E+02  0.66838726206E+02  0.00000000000E+00 0.  1.
         11    1    3    3    0    0 -0.86236348073E+02  0.56343639460E+02 -0.62001506360E+02  0.12023102856E+03  0.00000000000E+00 0. -1.
         21    1    1    2  503  502 -0.42734436599E+02 -0.53125885975E+02 -0.46149157096E+03  0.46650087021E+03  0.00000000000E+00 0. -1.
          1    1    1    2  501    0  0.94198678319E+02 -0.18759731823E+02  0.50886655613E+02  0.10869576926E+03  0.00000000000E+00 0. -1.
<scales pt_clust_5="13000.00000" pt_clust_6="13000.00000" pt_clust_7="13000.00000" pt_clust_8="13000.00000" pt_clust_9="68.18058" pt_clust_10="91.35439"></scales>
<clustering>
<clus scale="   68.181">  2  9  1 -1</clus>
<clus scale="   82.200">  5  6 -1 -1</clus>
<clus scale="   90.926">  7  8 -1 -1</clus>
<clus scale="   91.354">  1 10  2 -1</clus>
<clus scale="  144.991">  1  5  2 -1</clus>
<clus scale="   91.354">  1  5  2 -1</clus>
</clustering>
</event>
<event>
10    4  0.5389768E-005  0.3461528E+03  0.7546771E-02  0.1064480E+00
         -1   -1    0    0    0  501 -0.00000000000E+00  0.00000000000E+00  0.11742233448E+03  0.11742233448E+03  0.00000000000E+00 0.  1.
         21   -1    0    0  503  502  0.00000000000E+00 -0.00000000000E+00 -0.19743364969E+04  0.19743364969E+04  0.00000000000E+00 0.  1.
         24    2    1    2    0    0 -0.29541626465E+03 -0.28097200738E+03 -0.55862298169E+03  0.69627822432E+03  0.80794131159E+02 0.  0.
         23    2    1    2    0    0  0.14375940560E+03  0.18580486108E+03 -0.80405088814E+03  0.84263265617E+03  0.91333178163E+02 0.  0.
        -11    1    3    3    0    0 -0.27223376885E+03 -0.23474888627E+03 -0.44979690363E+03  0.57579121131E+03  0.00000000000E+00 0.  1.
         12    1    3    3    0    0 -0.23182495808E+02 -0.46223121102E+02 -0.10882607807E+03  0.12048701301E+03  0.00000000000E+00 0. -1.
        -11    1    4    4    0    0  0.37679590042E+02  0.12329685055E+03 -0.41332525765E+03  0.43296608814E+03  0.00000000000E+00 0.  1.
         11    1    4    4    0    0  0.10607981556E+03  0.62508010532E+02 -0.39072563048E+03  0.40966656804E+03  0.00000000000E+00 0. -1.
         21    1    1    2  503  501 -0.14875054119E+02 -0.17100625610E+02 -0.39369662768E+01  0.23004311222E+02  0.00000000000E+00 0.  1.
         -2    1    1    2    0  502  0.16653191317E+03  0.11226777190E+03 -0.49030332631E+03  0.52984363967E+03  0.00000000000E+00 0.  1.
<scales pt_clust_5="13000.00000" pt_clust_6="13000.00000" pt_clust_7="13000.00000" pt_clust_8="13000.00000" pt_clust_9="22.66492" pt_clust_10="196.83167"></scales>
<clustering>
<clus scale="   22.665">  1  9  2 -1</clus>
<clus scale="   80.794">  5  6 -1 -1</clus>
<clus scale="   91.333">  7  8 -1 -1</clus>
<clus scale="  196.832">  2 10  1 -1</clus>
<clus scale="  343.522">  1  5  2 -1</clus>
<clus scale="  196.832">  2  5  1 -1</clus>
</clustering>
</event>
<event>
10    4  0.5389768E-005  0.2128919E+03  0.7546771E-02  0.1139971E+00
          2   -1    0    0  503    0 -0.00000000000E+00  0.00000000000E+00  0.11734861811E+04  0.11734861811E+04  0.00000000000E+00 0. -1.
         21   -1    0    0  501  502  0.00000000000E+00 -0.00000000000E+00 -0.13360707529E+03  0.13360707529E+03  0.00000000000E+00 0. -1.
         23    2    1    2    0    0 -0.16021434893E+03 -0.18202358999E+03  0.68330496514E+03  0.73053598681E+03  0.89308049586E+02 0.  0.
         24    2    1    2    0    0  0.17901609768E+03 -0.13904253408E+02  0.17555720456E+03  0.26378544260E+03  0.80760981690E+02 0.  0.
        -13    1    4    4    0    0  0.11041232735E+03 -0.13428831477E+02  0.15755129592E+03  0.19285649170E+03  0.00000000000E+00 0.  1.
         14    1    4    4    0    0  0.68603770329E+02 -0.47542193102E+00  0.18005908639E+02  0.70928950897E+02  0.00000000000E+00 0. -1.
        -11    1    3    3    0    0 -0.73559679277E+02 -0.14079703462E+03  0.48254772686E+03  0.50802277515E+03  0.00000000000E+00 0. -1.
         11    1    3    3    0    0 -0.86654669657E+02 -0.41226555367E+02  0.20075723828E+03  0.22251321166E+03  0.00000000000E+00 0.  1.
         21    1    1    2  503  502  0.12040596274E+02  0.33288105574E+02  0.13697465928E+03  0.14147484305E+03  0.00000000000E+00 0.  1.
          1    1    1    2  501    0 -0.30842345021E+02  0.16263973782E+03  0.44042276873E+02  0.17129698397E+03  0.00000000000E+00 0. -1.
<scales pt_clust_5="13000.00000" pt_clust_6="13000.00000" pt_clust_7="13000.00000" pt_clust_8="13000.00000" pt_clust_9="35.39878" pt_clust_10="168.71993"></scales>
<clustering>
<clus scale="   35.399">  1  9  2 -1</clus>
<clus scale="   80.761">  5  6 -1 -1</clus>
<clus scale="   89.308">  7  8 -1 -1</clus>
<clus scale="  168.720">  2 10  1 -1</clus>
<clus scale="  209.450">  2  5  1 -1</clus>
<clus scale="  168.720">  2  5  1 -1</clus>
</clustering>
</event>
<event>
10    4  0.5389768E-005  0.1257955E+03  0.7546771E-02  0.1236521E+00
          2   -1    0    0  503    0 -0.00000000000E+00  0.00000000000E+00  0.10418635310E+04  0.10418635310E+04  0.00000000000E+00 0. -1.
         21   -1    0    0  501  502  0.00000000000E+00 -0.00000000000E+00 -0.26583083189E+02  0.26583083189E+02  0.00000000000E+00 0.  1.
         24    2    1    2    0    0  0.81954475653E+02  0.15091253575E+02  0.66707972872E+03  0.67711816289E+03  0.80928116504E+02 0.  0.
         23    2    1    2    0    0 -0.76774803512E+02 -0.35589977806E+01  0.23236090771E+03  0.26095655172E+03  0.90552159181E+02 0.  0.
        -13    1    3    3    0    0  0.97535029755E+02  0.64446123053E+01  0.58670676286E+03  0.59479361180E+03  0.00000000000E+00 0.  1.
         14    1    3    3    0    0 -0.15580554103E+02  0.86466412701E+01  0.80372965860E+02  0.82324551093E+02  0.00000000000E+00 0. -1.
        -13    1    4    4    0    0 -0.11873374649E+02 -0.40068572664E+02  0.59215675239E+02  0.72477332559E+02  0.00000000000E+00 0.  1.
         13    1    4    4    0    0 -0.64901428862E+02  0.36509574883E+02  0.17314523247E+03  0.18847921916E+03  0.00000000000E+00 0. -1.
         21    1    1    2  503  502  0.16481958924E+02 -0.11370596956E+02  0.10354592149E+03  0.10546422760E+03  0.00000000000E+00 0.  1.
          1    1    1    2  501    0 -0.21661631065E+02 -0.16165883865E+00  0.12293889854E+02  0.24907671945E+02  0.00000000000E+00 0. -1.
<scales pt_clust_5="13000.00000" pt_clust_6="13000.00000" pt_clust_7="13000.00000" pt_clust_8="13000.00000" pt_clust_9="20.02362" pt_clust_10="21.33808"></scales>
<clustering>
<clus scale="   20.024">  1  9  2 -1</clus>
<clus scale="   21.338">  2 10  1 -1</clus>
<clus scale="   80.928">  5  6 -1 -1</clus>
<clus scale="   90.552">  7  8 -1 -1</clus>
<clus scale="  119.055">  1  5  2 -1</clus>
<clus scale="   21.338">  2  5  1 -1</clus>
</clustering>
</event>
<event>
10    4  0.5389768E-005  0.8485415E+02  0.7546771E-02  0.1316828E+00
          2   -1    0    0  503    0 -0.00000000000E+00  0.00000000000E+00  0.36020670574E+03  0.36020670574E+03  0.00000000000E+00 0. -1.
         21   -1    0    0  501  502  0.00000000000E+00 -0.00000000000E+00 -0.74314111401E+02  0.74314111401E+02  0.00000000000E+00 0.  1.
         23    2    1    2    0    0 -0.53345103184E+01  0.67096559268E+01  0.23051493073E+03  0.24535165650E+03  0.83587233342E+02 0.  0.
         24    2    1    2    0    0 -0.30742885015E+02  0.32834860784E+02  0.15381481540E+02  0.94810764507E+02  0.82031932991E+02 0.  0.
        -11    1    4    4    0    0  0.12661657647E+02  0.21283681072E+02 -0.24433113435E+02  0.34789217963E+02  0.00000000000E+00 0.  1.
         12    1    4    4    0    0 -0.43404542663E+02  0.11551179712E+02  0.39814594975E+02  0.60021546544E+02  0.00000000000E+00 0. -1.
        -11    1    3    3    0    0 -0.42986478011E+02  0.55328401678E+01  0.15524549329E+03  0.16118192454E+03  0.00000000000E+00 0.  1.
         11    1    3    3    0    0  0.37651967692E+02  0.11768157590E+01  0.75269437442E+02  0.84169731966E+02  0.00000000000E+00 0. -1.
         21    1    1    2  503  502  0.22111816241E+02  0.57773017065E+01  0.40981688747E+02  0.46923431727E+02  0.00000000000E+00 0.  1.
          1    1    1    2  501    0  0.13965579093E+02 -0.45321818417E+02 -0.98550668148E+00  0.47434964398E+02  0.00000000000E+00 0. -1.
<scales pt_clust_5="13000.00000" pt_clust_6="13000.00000" pt_clust_7="13000.00000" pt_clust_8="13000.00000" pt_clust_9="22.85409" pt_clust_10="47.52704"></scales>
<clustering>
<clus scale="   22.854">  1  9  2 -1</clus>
<clus scale="   47.527">  2 10  1 -1</clus>
<clus scale="   82.032">  5  6 -1 -1</clus>
<clus scale="   83.323">  2  5  1 -1</clus>
<clus scale="   83.587">  7  8 -1 -1</clus>
<clus scale="   47.527">  2  5  1 -1</clus>
</clustering>
</event>
<event>
10    4  0.5389768E-005  0.2783053E+03  0.7546771E-02  0.1115871E+00
         21   -1    0    0  501  502  0.00000000000E+00  0.00000000000E+00  0.62756110801E+03  0.62756110801E+03  0.00000000000E+00 0.  1.
          2   -1    0    0  503    0 -0.00000000000E+00 -0.00000000000E+00 -0.10062990425E+04  0.10062990425E+04  0.00000000000E+00 0. -1.
         24    2    1    2    0    0 -0.21454203357E+03 -0.58795385507E+01  0.44039707415E+02  0.23372672099E+03  0.81399208426E+02 0.  0.
         23    2    1    2    0    0 -0.27621291309E+02 -0.15652063001E+03  0.41784932700E+03  0.45623299514E+03  0.91043080096E+02 0.  0.
        -13    1    3    3    0    0 -0.93412278433E+02 -0.32620828731E+02 -0.78702565424E+01  0.99256804135E+02  0.00000000000E+00 0.  1.
         14    1    3    3    0    0 -0.12112975514E+03  0.26741290181E+02  0.51909963957E+02  0.13446991685E+03  0.00000000000E+00 0. -1.
        -11    1    4    4    0    0 -0.24961846654E+02  0.72863956311E+00  0.42958804867E+02  0.49689874417E+02  0.00000000000E+00 0. -1.
         11    1    4    4    0    0 -0.26594446556E+01 -0.15724926957E+03  0.37489052213E+03  0.40654312073E+03  0.00000000000E+00 0.  1.
         21    1    1    2  503  502  0.23939791627E+03  0.14127546835E+03 -0.86672529162E+03  0.91021033361E+03  0.00000000000E+00 0. -1.
          1    1    1    2  501    0  0.27654086034E+01  0.21124700205E+02  0.26098322703E+02  0.33690100793E+02  0.00000000000E+00 0. -1.
<scales pt_clust_5="13000.00000" pt_clust_6="13000.00000" pt_clust_7="13000.00000" pt_clust_8="13000.00000" pt_clust_9="266.13529" pt_clust_10="21.30494"></scales>
<clustering>
<clus scale="   21.305">  1 10  2 -1</clus>
<clus scale="   81.399">  5  6 -1 -1</clus>
<clus scale="   91.043">  7  8 -1 -1</clus>
<clus scale="  169.841">  1  7  2 -1</clus>
<clus scale="  266.135">  2  9  1 -1</clus>
<clus scale="   21.305">  1  5  2 -1</clus>
</clustering>
</event>
<event>
10    4  0.5389768E-005  0.1455290E+03  0.7546771E-02  0.1208231E+00
          2   -1    0    0  503    0 -0.00000000000E+00  0.00000000000E+00  0.61836101315E+03  0.61836101315E+03  0.00000000000E+00 0. -1.
         21   -1    0    0  501  502  0.00000000000E+00 -0.00000000000E+00 -0.80529762274E+02  0.80529762274E+02  0.00000000000E+00 0.  1.
         24    2    1    2    0    0  0.83350503702E+02  0.38346744216E+02  0.13636553475E+03  0.18313345953E+03  0.80774536031E+02 0.  0.
         23    2    1    2    0    0 -0.15841163404E+03 -0.40986889671E+01  0.21169663024E+03  0.27985815653E+03  0.91619209092E+02 0.  0.
        -11    1    3    3    0    0  0.90084850275E+02  0.38245620023E+02  0.80103342943E+02  0.12646957441E+03  0.00000000000E+00 0.  1.
         12    1    3    3    0    0 -0.67343465733E+01  0.10112419239E+00  0.56262191806E+02  0.56663885118E+02  0.00000000000E+00 0. -1.
        -13    1    4    4    0    0 -0.85775882216E+02  0.89193308209E+01  0.17990808424E+03  0.19950933614E+03  0.00000000000E+00 0.  1.
         13    1    4    4    0    0 -0.72635751823E+02 -0.13018019788E+02  0.31788545998E+02  0.80348820394E+02  0.00000000000E+00 0. -1.
         21    1    1    2  503  502 -0.23940308817E+02 -0.19020293213E+02  0.87760223537E+02  0.92934206703E+02  0.00000000000E+00 0. -1.
          1    1    1    2  501    0  0.99001439154E+02 -0.15227762036E+02  0.10200886235E+03  0.14296495266E+03  0.00000000000E+00 0. -1.
<scales pt_clust_5="13000.00000" pt_clust_6="13000.00000" pt_clust_7="13000.00000" pt_clust_8="13000.00000" pt_clust_9="30.57630" pt_clust_10="95.48943"></scales>
<clustering>
<clus scale="   30.576">  1  9  2 -1</clus>
<clus scale="   80.775">  5  6 -1 -1</clus>
<clus scale="   91.619">  7  8 -1 -1</clus>
<clus scale="   95.489">  2 10  1 -1</clus>
<clus scale="  138.957">  1  5  2 -1</clus>
<clus scale="   95.489">  2  5  1 -1</clus>
</clustering>
</event>
<event>
10    4  0.5389768E-005  0.2274838E+03  0.7546771E-02  0.1129734E+00
         21   -1    0    0  501  502  0.00000000000E+00  0.00000000000E+00  0.11160555457E+03  0.11160555457E+03  0.00000000000E+00 0. -1.
          2   -1    0    0  503    0 -0.00000000000E+00 -0.00000000000E+00 -0.63741122773E+03  0.63741122773E+03  0.00000000000E+00 0. -1.
         23    2    1    2    0    0 -0.17977025203E+03 -0.46019882983E+02 -0.18605965861E+03  0.27799128333E+03  0.90696107450E+02 0.  0.
         24    2    1    2    0    0  0.21990441724E+03  0.14552925744E+02 -0.22413130903E+03  0.33205825742E+03  0.10704252551E+03 0.  0.
        -11    1    4    4    0    0  0.10684879362E+03  0.60495202874E+02 -0.11888096493E+03  0.17090646006E+03  0.00000000000E+00 0.  1.
         12    1    4    4    0    0  0.11305562362E+03 -0.45942277129E+02 -0.10525034410E+03  0.16115179736E+03  0.00000000000E+00 0. -1.
        -13    1    3    3    0    0 -0.16147716366E+03 -0.22929327600E+02 -0.11080441462E+03  0.19717567484E+03  0.00000000000E+00 0. -1.
         13    1    3    3    0    0 -0.18293088365E+02 -0.23090555382E+02 -0.75255243982E+02  0.80815608496E+02  0.00000000000E+00 0.  1.
         21    1    1    2  503  502 -0.20062049835E+02  0.27242441784E+02 -0.16296068500E+02  0.37552607452E+02  0.00000000000E+00 0. -1.
          1    1    1    2  501    0 -0.20072115375E+02  0.42245154548E+01 -0.99318637024E+02  0.10141463409E+03  0.00000000000E+00 0. -1.
<scales pt_clust_5="13000.00000" pt_clust_6="13000.00000" pt_clust_7="13000.00000" pt_clust_8="13000.00000" pt_clust_9="35.32811" pt_clust_10="20.51187"></scales>
<clustering>
<clus scale="   20.512">  1 10  2 -1</clus>
<clus scale="   35.328">  1  9  2 -1</clus>
<clus scale="   90.696">  7  8 -1 -1</clus>
<clus scale="  107.043">  5  6 -1 -1</clus>
<clus scale="  220.265">  2  7  1 -1</clus>
<clus scale="   20.512">  1  5  2 -1</clus>
</clustering>
</event>
<event>
10    4  0.5389768E-005  0.1051591E+03  0.7546771E-02  0.1274747E+00
         21   -1    0    0  501  502  0.00000000000E+00  0.00000000000E+00  0.19895526270E+03  0.19895526270E+03  0.00000000000E+00 0. -1.
          2   -1    0    0  503    0 -0.00000000000E+00 -0.00000000000E+00 -0.20595555089E+03  0.20595555089E+03  0.00000000000E+00 0. -1.
         24    2    1    2    0    0 -0.12926906134E+02 -0.30570482619E+02 -0.71443698054E+02  0.11229254674E+03  0.80023463759E+02 0.  0.
         23    2    1    2    0    0  0.89136503132E+02  0.38380422050E+02  0.60342592482E+02  0.14622124327E+03  0.91219792416E+02 0.  0.
        -11    1    3    3    0    0 -0.62454847507E+01  0.26342335493E+02 -0.35514923060E+02  0.44656852542E+02  0.00000000000E+00 0.  1.
         12    1    3    3    0    0 -0.66814213835E+01 -0.56912818112E+02 -0.35928774994E+02  0.67635694198E+02  0.00000000000E+00 0. -1.
        -13    1    4    4    0    0  0.70452257907E+02 -0.18555686615E+02  0.38804168297E+02  0.82544519062E+02  0.00000000000E+00 0. -1.
         13    1    4    4    0    0  0.18684245225E+02  0.56936108664E+02  0.21538424185E+02  0.63676724208E+02  0.00000000000E+00 0.  1.
         21    1    1    2  503  502 -0.83594803037E+01 -0.21478924009E+02 -0.52274237733E+02  0.57129861002E+02  0.00000000000E+00 0. -1.
          1    1    1    2  501    0 -0.67850116694E+02  0.13668984578E+02  0.56375055118E+02  0.89267162576E+02  0.00000000000E+00 0. -1.
<scales pt_clust_5="13000.00000" pt_clust_6="13000.00000" pt_clust_7="13000.00000" pt_clust_8="13000.00000" pt_clust_9="23.04832" pt_clust_10="69.68685"></scales>
<clustering>
<clus scale="   23.048">  2  9  1 -1</clus>
<clus scale="   69.687">  1 10  2 -1</clus>
<clus scale="   80.023">  5  6 -1 -1</clus>
<clus scale="   91.220">  7  8 -1 -1</clus>
<clus scale="   95.609">  2  5  1 -1</clus>
<clus scale="   69.687">  1  5  2 -1</clus>
</clustering>
</event>
<event>
10    4  0.5389768E-005  0.3458807E+03  0.7546771E-02  0.1064592E+00
         21   -1    0    0  501  502  0.00000000000E+00  0.00000000000E+00  0.18589315289E+03  0.18589315289E+03  0.00000000000E+00 0. -1.
          2   -1    0    0  503    0 -0.00000000000E+00 -0.00000000000E+00 -0.12667073825E+04  0.12667073825E+04  0.00000000000E+00 0. -1.
         24    2    1    2    0    0  0.19895601660E+03 -0.27794063670E+03 -0.58391545624E+03  0.68141454826E+03  0.80833362452E+02 0.  0.
         23    2    1    2    0    0 -0.18336168059E+03  0.19752627711E+03 -0.85841461752E+02  0.29722356305E+03  0.91295968241E+02 0.  0.
        -11    1    3    3    0    0  0.11836879633E+03 -0.12257376038E+03 -0.22643090399E+03  0.28338393208E+03  0.00000000000E+00 0.  1.
         12    1    3    3    0    0  0.80587220270E+02 -0.15536687632E+03 -0.35748455224E+03  0.39803061619E+03  0.00000000000E+00 0. -1.
        -11    1    4    4    0    0 -0.40451248741E+02  0.10565651890E+03 -0.49486507218E+02  0.12348488939E+03  0.00000000000E+00 0.  1.
         11    1    4    4    0    0 -0.14291043185E+03  0.91869758205E+02 -0.36354954534E+02  0.17373867365E+03  0.00000000000E+00 0. -1.
         21    1    1    2  503  502  0.36842442551E+02 -0.61346487982E+02 -0.21377880315E+03  0.22543764955E+03  0.00000000000E+00 0.  1.
          1    1    1    2  501    0 -0.52436778556E+02  0.14176084757E+03 -0.19727850847E+03  0.24852477453E+03  0.00000000000E+00 0. -1.
<scales pt_clust_5="13000.00000" pt_clust_6="13000.00000" pt_clust_7="13000.00000" pt_clust_8="13000.00000" pt_clust_9="71.55947" pt_clust_10="136.20852"></scales>
<clustering>
<clus scale="   71.559">  2  9  1 -1</clus>
<clus scale="   80.833">  5  6 -1 -1</clus>
<clus scale="   91.296">  7  8 -1 -1</clus>
<clus scale="  136.209">  1 10  2 -1</clus>
<clus scale="  343.267">  2  5  1 -1</clus>
<clus scale="  136.209">  1  5  2 -1</clus>
</clustering>
</event>
<event>
10    4  0.5389768E-005  0.1356074E+03  0.7546771E-02  0.1220530E+00
         21   -1    0    0  501  502  0.00000000000E+00  0.00000000000E+00  0.17836283686E+03  0.17836283686E+03  0.00000000000E+00 0.  1.
          2   -1    0    0  503    0 -0.00000000000E+00 -0.00000000000E+00 -0.32711950242E+03  0.32711950242E+03  0.00000000000E+00 0. -1.
         23    2    1    2    0    0 -0.12647706151E+03  0.35794686378E+02  0.10398404819E+01  0.15984028832E+03  0.90940254239E+02 0.  0.
         24    2    1    2    0    0  0.45157702581E+02 -0.65234531101E+02  0.46351647148E+02  0.12583861268E+03  0.85977433652E+02 0.  0.
        -11    1    4    4    0    0  0.19098037616E+02 -0.76500902683E+02  0.55027602292E+02  0.96151755918E+02  0.00000000000E+00 0.  1.
         12    1    4    4    0    0  0.26059664965E+02  0.11266371582E+02 -0.86759551434E+01  0.29686856762E+02  0.00000000000E+00 0. -1.
        -11    1    3    3    0    0 -0.71904229548E+02 -0.26837616296E+02 -0.60254306728E+00  0.76751800848E+02  0.00000000000E+00 0. -1.
         11    1    3    3    0    0 -0.54572831961E+02  0.62632302674E+02  0.16423835492E+01  0.83088487471E+02  0.00000000000E+00 0.  1.
         21    1    1    2  503  502  0.62325455393E+01  0.20120238674E+02 -0.65772528085E+02  0.69062971836E+02  0.00000000000E+00 0.  1.
          1    1    1    2  501    0  0.75086813388E+02  0.93196060488E+01 -0.13037562511E+03  0.15074046645E+03  0.00000000000E+00 0. -1.
<scales pt_clust_5="13000.00000" pt_clust_6="13000.00000" pt_clust_7="13000.00000" pt_clust_8="13000.00000" pt_clust_9="21.06344" pt_clust_10="81.02098"></scales>
<clustering>
<clus scale="   21.063">  2  9  1 -1</clus>
<clus scale="   81.021">  1 10  2 -1</clus>
<clus scale="   85.977">  5  6 -1 -1</clus>
<clus scale="   90.940">  7  8 -1 -1</clus>
<clus scale="  132.330">  1  5  2 -1</clus>
<clus scale="   81.021">  1  5  2 -1</clus>
</clustering>
</event>
<event>
10    4  0.5389768E-005  0.5080411E+03  0.7546771E-02  0.1027331E+00
          2   -1    0    0  503    0 -0.00000000000E+00  0.00000000000E+00  0.17768979666E+04  0.17768979666E+04  0.00000000000E+00 0. -1.
         21   -1    0    0  501  502  0.00000000000E+00 -0.00000000000E+00 -0.56914167983E+03  0.56914167983E+03  0.00000000000E+00 0.  1.
         23    2    1    2    0    0  0.41395191191E+03  0.12015431217E+02  0.58851603270E+03  0.72556262736E+03  0.92679283073E+02 0.  0.
         24    2    1    2    0    0  0.29010421299E+03  0.16476081589E+03  0.80879956938E+02  0.35306096217E+03  0.82485724397E+02 0.  0.
        -13    1    4    4    0    0  0.27829251052E+03  0.13141105676E+03  0.66446054697E+02  0.31485022699E+03  0.00000000000E+00 0.  1.
         14    1    4    4    0    0  0.11811702465E+02  0.33349759129E+02  0.14433902240E+02  0.38210735180E+02  0.00000000000E+00 0. -1.
        -13    1    3    3    0    0  0.19241537356E+03  0.39752777759E+02  0.32919395924E+03  0.38337008507E+03  0.00000000000E+00 0. -1.
         13    1    3    3    0    0  0.22153653835E+03 -0.27737346542E+02  0.25932207346E+03  0.34219254229E+03  0.00000000000E+00 0.  1.
         21    1    1    2  503  502 -0.63803209895E+03 -0.15654752151E+03  0.77785770299E+03  0.10181624094E+04  0.00000000000E+00 0. -1.
          1    1    1    2  501    0 -0.66024025955E+02 -0.20228725591E+02 -0.23949740590E+03  0.24925364747E+03  0.00000000000E+00 0. -1.
<scales pt_clust_5="13000.00000" pt_clust_6="13000.00000" pt_clust_7="13000.00000" pt_clust_8="13000.00000" pt_clust_9="499.51609" pt_clust_10="69.05341"></scales>
<clustering>
<clus scale="   69.053">  2 10  1 -1</clus>
<clus scale="   82.486">  5  6 -1 -1</clus>
<clus scale="   92.679">  7  8 -1 -1</clus>
<clus scale="  316.389">  2  5  1 -1</clus>
<clus scale="  499.516">  2  9  1 -1</clus>
<clus scale="   69.053">  2  5  1 -1</clus>
</clustering>
</event>
<event>
10    4  0.5389768E-005  0.1821713E+03  0.7546771E-02  0.1166872E+00
         21   -1    0    0  501  502  0.00000000000E+00  0.00000000000E+00  0.29027905187E+02  0.29027905187E+02  0.00000000000E+00 0. -1.
          2   -1    0    0  503    0 -0.00000000000E+00 -0.00000000000E+00 -0.20378311773E+04  0.20378311773E+04  0.00000000000E+00 0. -1.
         24    2    1    2    0    0  0.13631417366E+03  0.11222748144E+03 -0.10302889816E+04  0.10484206936E+04  0.80709377171E+02 0.  0.
         23    2    1    2    0    0 -0.12412529102E+03 -0.35834704418E+02 -0.41881984887E+03  0.44758556141E+03  0.90727917790E+02 0.  0.
        -11    1    3    3    0    0  0.13457888691E+03  0.70287444689E+02 -0.78069250088E+03  0.79531917028E+03  0.00000000000E+00 0.  1.
         12    1    3    3    0    0  0.17352867438E+01  0.41940036748E+02 -0.24959648077E+03  0.25310152334E+03  0.00000000000E+00 0. -1.
        -11    1    4    4    0    0 -0.48312496930E+02 -0.42074290800E+02 -0.92517280852E+02  0.11253350862E+03  0.00000000000E+00 0. -1.
         11    1    4    4    0    0 -0.75812794085E+02  0.62395863819E+01 -0.32630256802E+03  0.33505205280E+03  0.00000000000E+00 0.  1.
         21    1    1    2  503  502  0.28311051639E+02 -0.47698221060E+01 -0.18638641303E+03  0.18858462771E+03  0.00000000000E+00 0.  1.
          1    1    1    2  501    0 -0.40499934280E+02 -0.71622954912E+02 -0.37330802859E+03  0.38226819978E+03  0.00000000000E+00 0. -1.
<scales pt_clust_5="13000.00000" pt_clust_6="13000.00000" pt_clust_7="13000.00000" pt_clust_8="13000.00000" pt_clust_9="28.71005" pt_clust_10="80.47208"></scales>
<clustering>
<clus scale="   28.710">  2  9  1 -1</clus>
<clus scale="   80.472">  1 10  2 -1</clus>
<clus scale="   80.709">  5  6 -1 -1</clus>
<clus scale="   90.728">  7  8 -1 -1</clus>
<clus scale="  177.395">  2  5  1 -1</clus>
<clus scale="   80.472">  1  5  2 -1</clus>
</clustering>
</event>
<event>
10    4  0.5389768E-005  0.1506369E+03  0.7546771E-02  0.1218601E+00
         21   -1    0    0  501  502  0.00000000000E+00  0.00000000000E+00  0.47077735437E+02  0.47077735437E+02  0.00000000000E+00 0. -1.
          2   -1    0    0  503    0 -0.00000000000E+00 -0.00000000000E+00 -0.14210415511E+04  0.14210415511E+04  0.00000000000E+00 0. -1.
         24    2    1    2    0    0  0.40543000191E+02  0.56854450253E+02 -0.16708520590E+03  0.19824210378E+03  0.80661653239E+02 0.  0.
         23    2    1    2    0    0 -0.18565230087E+02  0.12800989620E+03 -0.33341157165E+03  0.36929686990E+03  0.92117863194E+02 0.  0.
        -11    1    3    3    0    0  0.51648370814E+02  0.87368276487E+01 -0.56029478078E+02  0.76701947686E+02  0.00000000000E+00 0.  1.
         12    1    3    3    0    0 -0.11105370623E+02  0.48117622604E+02 -0.11105572782E+03  0.12154015610E+03  0.00000000000E+00 0. -1.
        -11    1    4    4    0    0 -0.25060453920E+02  0.80542202743E+02 -0.99102754406E+02  0.13014003498E+03  0.00000000000E+00 0. -1.
         11    1    4    4    0    0  0.64952238332E+01  0.47467693457E+02 -0.23430881724E+03  0.23915683492E+03  0.00000000000E+00 0.  1.
         21    1    1    2  503  502  0.16365981253E+02 -0.74520321852E+02 -0.57545675662E+03  0.58049255158E+03  0.00000000000E+00 0. -1.
          1    1    1    2  501    0 -0.38343751357E+02 -0.11034402460E+03 -0.29801028153E+03  0.32008776129E+03  0.00000000000E+00 0. -1.
<scales pt_clust_5="13000.00000" pt_clust_6="13000.00000" pt_clust_7="13000.00000" pt_clust_8="13000.00000" pt_clust_9="76.29629" pt_clust_10="119.18803"></scales>
<clustering>
<clus scale="   76.296">  2  9  1 -1</clus>
<clus scale="   80.662">  5  6 -1 -1</clus>
<clus scale="   92.118">  7  8 -1 -1</clus>
<clus scale="  100.535">  2  5  1 -1</clus>
<clus scale="  119.188">  1 10  2 -1</clus>
<clus scale="  119.188">  1  5  2 -1</clus>
</clustering>
</event>
<event>
10    4  0.5389768E-005  0.1051616E+03  0.7546771E-02  0.1273652E+00
          2   -1    0    0  503    0 -0.00000000000E+00  0.00000000000E+00  0.20635732218E+03  0.20635732218E+03  0.00000000000E+00 0. -1.
         21   -1    0    0  501  502  0.00000000000E+00 -0.00000000000E+00 -0.10042262445E+03  0.10042262445E+03  0.00000000000E+00 0.  1.
         24    2    1    2    0    0 -0.35206643869E+00 -0.69659625745E+02  0.88858803949E+02  0.13889282923E+03  0.80887227445E+02 0.  0.
         23    2    1    2    0    0  0.36449071425E+02  0.40241068805E+02  0.79527418946E+01  0.10526274850E+03  0.89828290038E+02 0.  0.
        -13    1    3    3    0    0  0.31110965052E+02 -0.72527429341E+01  0.98956953116E+01  0.33442775187E+02  0.00000000000E+00 0.  1.
         14    1    3    3    0    0 -0.31463031491E+02 -0.62406882811E+02  0.78963108637E+02  0.10545005405E+03  0.00000000000E+00 0. -1.
        -11    1    4    4    0    0  0.19122914070E+02  0.18063582921E+02 -0.41048881689E+02  0.48754379889E+02  0.00000000000E+00 0.  1.
         11    1    4    4    0    0  0.17326157355E+02  0.22177485884E+02  0.49001623584E+02  0.56508368607E+02  0.00000000000E+00 0. -1.
         21    1    1    2  503  502 -0.10334859386E+01  0.21770097475E+02  0.14723751442E+02  0.26301978895E+02  0.00000000000E+00 0.  1.
          1    1    1    2  501    0 -0.35063519048E+02  0.76484594645E+01 -0.56005995555E+01  0.36322390003E+02  0.00000000000E+00 0. -1.
<scales pt_clust_5="13000.00000" pt_clust_6="13000.00000" pt_clust_7="13000.00000" pt_clust_8="13000.00000" pt_clust_9="21.79461" pt_clust_10="36.39657"></scales>
<clustering>
<clus scale="   21.795">  1  9  2 -1</clus>
<clus scale="   36.397">  2 10  1 -1</clus>
<clus scale="   80.887">  5  6 -1 -1</clus>
<clus scale="   89.828">  7  8 -1 -1</clus>
<clus scale="   97.635">  1  5  2 -1</clus>
<clus scale="   36.397">  2  5  1 -1</clus>
</clustering>
</event>
<event>
10    4  0.5389768E-005  0.1442311E+03  0.7546771E-02  0.1209789E+00
          4   -1    0    0  503    0 -0.00000000000E+00  0.00000000000E+00  0.16626979114E+03  0.16626979114E+03  0.00000000000E+00 0. -1.
         21   -1    0    0  501  502  0.00000000000E+00 -0.00000000000E+00 -0.23234715056E+03  0.23234715056E+03  0.00000000000E+00 0. -1.
         23    2    1    2    0    0 -0.32742584886E+02 -0.13271554060E+03 -0.28064424977E+02  0.16652118488E+03  0.90863642261E+02 0.  0.
         24    2    1    2    0    0  0.34442327529E+02  0.88860944394E+02 -0.33390415761E+02  0.12927634182E+03  0.80715000623E+02 0.  0.
        -11    1    4    4    0    0 -0.21888785861E+02  0.29216873979E+02  0.80199647944E+01  0.37377326106E+02  0.00000000000E+00 0.  1.
         12    1    4    4    0    0  0.56331113390E+02  0.59644070416E+02 -0.41410380555E+02  0.91899015714E+02  0.00000000000E+00 0. -1.
        -13    1    3    3    0    0 -0.17098952912E+02 -0.46759425460E+02  0.33174897626E+02  0.59828019293E+02  0.00000000000E+00 0.  1.
         13    1    3    3    0    0 -0.15643631974E+02 -0.85956115138E+02 -0.61239322604E+02  0.10669316559E+03  0.00000000000E+00 0. -1.
         21    1    1    2  503  502  0.32860406020E+02  0.36710844764E+02  0.26342588286E+02  0.55869708829E+02  0.00000000000E+00 0. -1.
          3    1    1    2  501    0 -0.34560148663E+02  0.71437514401E+01 -0.30965106961E+02  0.46949706169E+02  0.00000000000E+00 0. -1.
<scales pt_clust_5="13000.00000" pt_clust_6="13000.00000" pt_clust_7="13000.00000" pt_clust_8="13000.00000" pt_clust_9="47.97288" pt_clust_10="35.29075"></scales>
<clustering>
<clus scale="   35.291">  2 10  1 -1</clus>
<clus scale="   47.973">  1  9  2 -1</clus>
<clus scale="   80.715">  5  6 -1 -1</clus>
<clus scale="   90.864">  7  8 -1 -1</clus>
<clus scale="  138.063">  2  5  1 -1</clus>
<clus scale="   35.291">  2  5  1 -1</clus>
</clustering>
</event>
<event>
10    4  0.5389768E-005  0.3087375E+03  0.7546771E-02  0.1120352E+00
          2   -1    0    0  503    0 -0.00000000000E+00  0.00000000000E+00  0.60572633308E+03  0.60572633308E+03  0.00000000000E+00 0. -1.
         21   -1    0    0  501  502  0.00000000000E+00 -0.00000000000E+00 -0.37549510185E+03  0.37549510185E+03  0.00000000000E+00 0. -1.
         23    2    1    2    0    0  0.26177620810E+02 -0.42750094109E+02  0.27607850830E+03  0.29462435528E+03  0.89840578839E+02 0.  0.
         24    2    1    2    0    0  0.26429409507E+03  0.36637954045E+02  0.73708434616E+02  0.28793130993E+03  0.79232553520E+02 0.  0.
        -13    1    4    4    0    0  0.11524057846E+03  0.30081686603E+02 -0.50754216026E+01  0.11921014511E+03  0.00000000000E+00 0.  1.
         14    1    4    4    0    0  0.14905351661E+03  0.65562674419E+01  0.78783856219E+02  0.16872116482E+03  0.00000000000E+00 0. -1.
        -13    1    3    3    0    0  0.58788471716E+02 -0.26894047626E+02  0.20297459340E+03  0.21302126600E+03  0.00000000000E+00 0. -1.
         13    1    3    3    0    0 -0.32610850906E+02 -0.15856046483E+02  0.73103914898E+02  0.81603089281E+02  0.00000000000E+00 0.  1.
         21    1    1    2  503  502  0.26833154472E+02 -0.18531121880E+02  0.32418172007E+02  0.45982154509E+02  0.00000000000E+00 0.  1.
          1    1    1    2  501    0 -0.31730487036E+03  0.24643261943E+02 -0.15197388368E+03  0.35268361520E+03  0.00000000000E+00 0. -1.
<scales pt_clust_5="13000.00000" pt_clust_6="13000.00000" pt_clust_7="13000.00000" pt_clust_8="13000.00000" pt_clust_9="32.61013" pt_clust_10="298.39751"></scales>
<clustering>
<clus scale="   32.610">  1  9  2 -1</clus>
<clus scale="   79.233">  5  6 -1 -1</clus>
<clus scale="   89.841">  7  8 -1 -1</clus>
<clus scale="  111.174">  1  7  2 -1</clus>
<clus scale="  298.398">  2 10  1 -1</clus>
<clus scale="  298.398">  2  5  1 -1</clus>
</clustering>
</event>
<event>
10    4  0.5389768E-005  0.1927432E+03  0.7546771E-02  0.1187492E+00
         -3   -1    0    0    0  501 -0.00000000000E+00  0.00000000000E+00  0.42005321159E+03  0.42005321159E+03  0.00000000000E+00 0.  1.
         21   -1    0    0  501  502  0.00000000000E+00 -0.00000000000E+00 -0.13944539303E+03  0.13944539303E+03  0.00000000000E+00 0.  1.
         23    2    1    2    0    0  0.20352438832E+02  0.11391379987E+02  0.61215956353E+02  0.11217882254E+03  0.91064315782E+02 0.  0.
         24    2    1    2    0    0 -0.82882108371E+02  0.14786235850E+03  0.15327747300E+03  0.24586975522E+03  0.90693063976E+02 0.  0.
        -13    1    4    4    0    0 -0.66733199142E+02  0.52657386475E+02  0.11260565956E+03  0.14108917316E+03  0.00000000000E+00 0.  1.
         14    1    4    4    0    0 -0.16148909229E+02  0.95204972030E+02  0.40671813436E+02  0.10478058206E+03  0.00000000000E+00 0. -1.
        -11    1    3    3    0    0 -0.24385046008E+02  0.11277765501E+02  0.61853722583E+02  0.67436647758E+02  0.00000000000E+00 0. -1.
         11    1    3    3    0    0  0.44737484840E+02  0.11361448580E+00 -0.63776623001E+00  0.44742174777E+02  0.00000000000E+00 0.  1.
         21    1    1    2  503  502  0.46214040245E+02 -0.39866819161E+02  0.51901964416E+02  0.80118129634E+02  0.00000000000E+00 0.  1.
         -4    1    1    2    0  503  0.16315629294E+02 -0.11938691933E+03  0.14212424792E+02  0.12133189723E+03  0.00000000000E+00 0.  1.
<scales pt_clust_5="13000.00000" pt_clust_6="13000.00000" pt_clust_7="13000.00000" pt_clust_8="13000.00000" pt_clust_9="59.28632" pt_clust_10="189.37791"></scales>
<clustering>
<clus scale="   59.286">  9 10 -1 -1</clus>
<clus scale="   90.693">  5  6 -1 -1</clus>
<clus scale="   91.064">  7  8 -1 -1</clus>
<clus scale="   94.004">  1  7  2 -1</clus>
<clus scale="  189.378">  2  9  1 -1</clus>
<clus scale="  189.378">  2  5  1 -1</clus>
</clustering>
</event>
<event>
10    4  0.5389768E-005  0.5139309E+03  0.7546771E-02  0.1010320E+00
          2   -1    0    0  503    0 -0.00000000000E+00  0.00000000000E+00  0.13988033826E+04  0.13988033826E+04  0.00000000000E+00 0. -1.
         21   -1    0    0  501  502  0.00000000000E+00 -0.00000000000E+00 -0.69499827838E+03  0.69499827838E+03  0.00000000000E+00 0.  1.
         23    2    1    2    0    0 -0.43219072400E+03 -0.20201743069E+03  0.11958276647E+04  0.12906826079E+04  0.90873133710E+02 0.  0.
         24    2    1    2    0    0  0.44104511381E+03  0.21488151290E+03 -0.40147985946E+03  0.63896897580E+03  0.80002609186E+02 0.  0.
        -11    1    4    4    0    0  0.30879966054E+03  0.18917956576E+03 -0.30110094325E+03  0.47096487818E+03  0.00000000000E+00 0.  1.
         12    1    4    4    0    0  0.13224545327E+03  0.25701947140E+02 -0.10037891621E+03  0.16800409762E+03  0.00000000000E+00 0. -1.
        -11    1    3    3    0    0 -0.38102870778E+03 -0.20793757862E+03  0.10619202929E+04  0.11472121082E+04  0.00000000000E+00 0.  1.
         11    1    3    3    0    0 -0.51162016214E+02  0.59201479306E+01  0.13390737179E+03  0.14347049967E+03  0.00000000000E+00 0. -1.
         21    1    1    2  503  502 -0.31210788067E+02 -0.13285767004E+02  0.27710961420E+02  0.43800939253E+02  0.00000000000E+00 0. -1.
          1    1    1    2  501    0  0.22356398253E+02  0.42168479342E+00 -0.11825366241E+03  0.12034913807E+03  0.00000000000E+00 0. -1.
<scales pt_clust_5="13000.00000" pt_clust_6="13000.00000" pt_clust_7="13000.00000" pt_clust_8="13000.00000" pt_clust_9="33.63130" pt_clust_10="22.36037"></scales>
<clustering>
<clus scale="   22.360">  2 10  1 -1</clus>
<clus scale="   33.631">  1  9  2 -1</clus>
<clus scale="   80.003">  5  6 -1 -1</clus>
<clus scale="   90.873">  7  8 -1 -1</clus>
<clus scale="  512.121">  2  5  1 -1</clus>
<clus scale="   22.360">  2  5  1 -1</clus>
</clustering>
</event>
<event>
10    4  0.8633673E-005  0.1039123E+03  0.7546771E-02  0.1278056E+00
         21   -1    0    0  501  502  0.00000000000E+00  0.00000000000E+00  0.22862260143E+03  0.22862260143E+03  0.00000000000E+00 0. -1.
          2   -1    0    0  503    0 -0.00000000000E+00 -0.00000000000E+00 -0.38313649400E+03  0.38313649400E+03  0.00000000000E+00 0. -1.
         23    2    1    2    0    0  0.15965819793E+02 -0.10873956142E+01 -0.24562713149E+03  0.26234632622E+03  0.90756913386E+02 0.  0.
         24    2    1    2    0    0 -0.46413338045E+02  0.70008686924E+02 -0.49942731023E+02  0.12506017697E+03  0.78040741207E+02 0.  0.
        -11    1    4    4    0    0 -0.19586928852E+02 -0.58789465713E+01  0.11805817311E+02  0.23613282639E+02  0.00000000000E+00 0.  1.
         12    1    4    4    0    0 -0.26826409193E+02  0.75887633496E+02 -0.61748548334E+02  0.10144689433E+03  0.00000000000E+00 0. -1.
        -11    1    3    3    0    0  0.29558952939E+01 -0.34008445416E+02 -0.35468330637E+02  0.49227168868E+02  0.00000000000E+00 0.  1.
         11    1    3    3    0    0  0.13009924499E+02  0.32921049802E+02 -0.21015880085E+03  0.21311915735E+03  0.00000000000E+00 0. -1.
         21    1    1    2  503  502  0.37391117053E+02 -0.12029968585E+02 -0.26422499974E+02  0.47338824272E+02  0.00000000000E+00 0. -1.
          1    1    1    2  501    0 -0.69435988011E+01 -0.56891322726E+02  0.16747846992E+03  0.17701376797E+03  0.00000000000E+00 0. -1.
<scales pt_clust_5="13000.00000" pt_clust_6="13000.00000" pt_clust_7="13000.00000" pt_clust_8="13000.00000" pt_clust_9="39.27869" pt_clust_10="57.41800"></scales>
<clustering>
<clus scale="   39.279">  2  9  1 -1</clus>
<clus scale="   57.418">  1 10  2 -1</clus>
<clus scale="   78.041">  5  6 -1 -1</clus>
<clus scale="   90.757">  7  8 -1 -1</clus>
<clus scale="   93.012">  1  5  2 -1</clus>
<clus scale="   57.418">  1  5  2 -1</clus>
</clustering>
</event>
<event>
10    4  0.5389768E-005  0.2136788E+03  0.7546771E-02  0.1139930E+00
          4   -1    0    0  503    0 -0.00000000000E+00  0.00000000000E+00  0.15484501199E+03  0.15484501199E+03  0.00000000000E+00 0. -1.
         21   -1    0    0  501  502  0.00000000000E+00 -0.00000000000E+00 -0.87203953052E+03  0.87203953052E+03  0.00000000000E+00 0.  1.
         24    2    1    2    0    0  0.20058649000E+03 -0.66155054954E+02 -0.14715749423E+03  0.26810531127E+03  0.74924619130E+02 0.  0.
         23    2    1    2    0    0 -0.13567516659E+03  0.12444967990E+03 -0.25083413082E+03  0.32417785199E+03  0.90983761647E+02 0.  0.
        -11    1    3    3    0    0  0.17449829310E+02 -0.33575706751E+02 -0.29813884062E+02  0.48173564427E+02  0.00000000000E+00 0.  1.
         12    1    3    3    0    0  0.18313666069E+03 -0.32579348203E+02 -0.11734361017E+03  0.21993174684E+03  0.00000000000E+00 0. -1.
        -11    1    4    4    0    0 -0.79755236942E+02  0.10845390401E+03 -0.22108917314E+03  0.25885047729E+03  0.00000000000E+00 0.  1.
         11    1    4    4    0    0 -0.55919929651E+02  0.15995775886E+02 -0.29744957685E+02  0.65327374707E+02  0.00000000000E+00 0. -1.
         21    1    1    2  503  502  0.31298555098E+00  0.33458372966E+02  0.43471475282E+02  0.54857359076E+02  0.00000000000E+00 0. -1.
          3    1    1    2  501    0 -0.65224308963E+02 -0.91752997908E+02 -0.36267436875E+03  0.37974402017E+03  0.00000000000E+00 0. -1.
<scales pt_clust_5="13000.00000" pt_clust_6="13000.00000" pt_clust_7="13000.00000" pt_clust_8="13000.00000" pt_clust_9="33.45984" pt_clust_10="110.36745"></scales>
<clustering>
<clus scale="   33.460">  1  9  2 -1</clus>
<clus scale="   74.925">  5  6 -1 -1</clus>
<clus scale="   90.984">  7  8 -1 -1</clus>
<clus scale="  110.367">  2 10  1 -1</clus>
<clus scale="  207.351">  1  5  2 -1</clus>
<clus scale="  110.367">  2  5  1 -1</clus>
</clustering>
</event>
<event>
10    4  0.5389768E-005  0.1312975E+03  0.7546771E-02  0.1242434E+00
         -1   -1    0    0    0  501 -0.00000000000E+00  0.00000000000E+00  0.89464615963E+02  0.89464615963E+02  0.00000000000E+00 0.  1.
         21   -1    0    0  503  502  0.00000000000E+00 -0.00000000000E+00 -0.37656830057E+03  0.37656830057E+03  0.00000000000E+00 0.  1.
         23    2    1    2    0    0 -0.67635681388E+01  0.11968970634E+02 -0.49158717416E+02  0.10550361193E+03  0.92333257928E+02 0.  0.
         24    2    1    2    0    0 -0.85976327239E+02 -0.63897693970E+02 -0.18422963157E+03  0.22903545666E+03  0.83915666703E+02 0.  0.
        -11    1    4    4    0    0  0.95907380044E+00 -0.47394663249E+02 -0.70012630129E+02  0.84551418111E+02  0.00000000000E+00 0.  1.
         12    1    4    4    0    0 -0.86935401039E+02 -0.16503030721E+02 -0.11421700144E+03  0.14448403854E+03  0.00000000000E+00 0. -1.
        -11    1    3    3    0    0  0.40665259308E+02 -0.83741836379E+01 -0.18290122181E+02  0.45368698852E+02  0.00000000000E+00 0. -1.
         11    1    3    3    0    0 -0.47428827446E+02  0.20343154272E+02 -0.30868595235E+02  0.60134913074E+02  0.00000000000E+00 0.  1.
         21    1    1    2  503  501  0.73229468310E+02  0.63788659370E+02 -0.45278180200E+02  0.10715251605E+03  0.00000000000E+00 0.  1.
         -2    1    1    2    0  502  0.19510427067E+02 -0.11859936035E+02 -0.84371554225E+01  0.24341331901E+02  0.00000000000E+00 0.  1.
<scales pt_clust_5="13000.00000" pt_clust_6="13000.00000" pt_clust_7="13000.00000" pt_clust_8="13000.00000" pt_clust_9="100.98120" pt_clust_10="22.83233"></scales>
<clustering>
<clus scale="   22.832">  2 10  1 -1</clus>
<clus scale="   83.916">  5  6 -1 -1</clus>
<clus scale="   92.333">  7  8 -1 -1</clus>
<clus scale="   92.849">  1  7  2 -1</clus>
<clus scale="  100.981">  1  9  2 -1</clus>
<clus scale="   22.832">  2  5  1 -1</clus>
</clustering>
</event>
<event>
10    4  0.5389768E-005  0.1923540E+03  0.7546771E-02  0.1158595E+00
         21   -1    0    0  501  502  0.00000000000E+00  0.00000000000E+00  0.22939633030E+03  0.22939633030E+03  0.00000000000E+00 0. -1.
          2   -1    0    0  503    0 -0.00000000000E+00 -0.00000000000E+00 -0.63871522544E+03  0.63871522544E+03  0.00000000000E+00 0. -1.
         24    2    1    2    0    0  0.32324164231E+02 -0.15763313580E+03 -0.30416986398E+03  0.35332847203E+03  0.80178836963E+02 0.  0.
         23    2    1    2    0    0  0.46539313460E+02  0.17381941586E+03 -0.24070116185E+03  0.31689842514E+03  0.10054086491E+03 0.  0.
        -11    1    3    3    0    0 -0.10280615579E+02 -0.18214977694E+02 -0.65423825703E+01  0.21915274097E+02  0.00000000000E+00 0.  1.
         12    1    3    3    0    0  0.42604779810E+02 -0.13941815810E+03 -0.29762748141E+03  0.33141319793E+03  0.00000000000E+00 0. -1.
        -13    1    4    4    0    0 -0.21823438589E+02  0.77227374377E+01 -0.49034094861E+02  0.54224031612E+02  0.00000000000E+00 0. -1.
         13    1    4    4    0    0  0.68362752049E+02  0.16609667842E+03 -0.19166706699E+03  0.26267439353E+03  0.00000000000E+00 0.  1.
         21    1    1    2  503  502 -0.54481128376E+02 -0.63996954035E+01 -0.48273689883E+01  0.55067712334E+02  0.00000000000E+00 0.  1.
          1    1    1    2  501    0 -0.24382349315E+02 -0.97865846539E+01  0.14037949968E+03  0.14281694622E+03  0.00000000000E+00 0. -1.
<scales pt_clust_5="13000.00000" pt_clust_6="13000.00000" pt_clust_7="13000.00000" pt_clust_8="13000.00000" pt_clust_9="62.14199" pt_clust_10="26.27311"></scales>
<clustering>
<clus scale="   26.273">  1 10  2 -1</clus>
<clus scale="   62.142">  1  9  2 -1</clus>
<clus scale="   80.179">  5  6 -1 -1</clus>
<clus scale="  100.541">  7  8 -1 -1</clus>
<clus scale="  182.538">  2  5  1 -1</clus>
<clus scale="   26.273">  1  5  2 -1</clus>
</clustering>
</event>
<event>
10    4  0.5389768E-005  0.9558139E+02  0.7546771E-02  0.1296050E+00
         21   -1    0    0  503  502  0.00000000000E+00  0.00000000000E+00  0.29094018047E+02  0.29094018047E+02  0.00000000000E+00 0. -1.
         -1   -1    0    0    0  501 -0.00000000000E+00 -0.00000000000E+00 -0.56595148120E+03  0.56595148120E+03  0.00000000000E+00 0.  1.
         23    2    1    2    0    0  0.39028083496E+01 -0.11350099847E+02 -0.27537606485E+03  0.29044312547E+03  0.91548759461E+02 0.  0.
         24    2    1    2    0    0 -0.22839087803E+02  0.17030141785E+02 -0.87375796647E+02  0.12226083888E+03  0.80632085561E+02 0.  0.
        -11    1    4    4    0    0 -0.43079681729E+01  0.25366826829E+02 -0.96583479494E+02  0.99952003503E+02  0.00000000000E+00 0.  1.
         12    1    4    4    0    0 -0.18531119630E+02 -0.83366850439E+01  0.92076828470E+01  0.22308835373E+02  0.00000000000E+00 0. -1.
        -13    1    3    3    0    0  0.12259578627E+02  0.37212484881E+02 -0.81879530354E+02  0.90770720996E+02  0.00000000000E+00 0.  1.
         13    1    3    3    0    0 -0.83567702769E+01 -0.48562584729E+02 -0.19349653450E+03  0.19967240447E+03  0.00000000000E+00 0. -1.
         21    1    1    2  503  501  0.17702716914E+02 -0.25871101104E+02 -0.13139467036E+03  0.13508241727E+03  0.00000000000E+00 0. -1.
         -2    1    1    2    0  502  0.12335625398E+01  0.20191059166E+02 -0.42710931297E+02  0.47259117629E+02  0.00000000000E+00 0.  1.
<scales pt_clust_5="13000.00000" pt_clust_6="13000.00000" pt_clust_7="13000.00000" pt_clust_8="13000.00000" pt_clust_9="30.26238" pt_clust_10="20.22872"></scales>
<clustering>
<clus scale="   20.229">  1 10  2 -1</clus>
<clus scale="   30.262">  2  9  1 -1</clus>
<clus scale="   80.632">  5  6 -1 -1</clus>
<clus scale="   85.183">  1  5  2 -1</clus>
<clus scale="   91.549">  7  8 -1 -1</clus>
<clus scale="   20.229">  1  5  2 -1</clus>
</clustering>
</event>
<event>
10    4  0.5389768E-005  0.1201678E+03  0.7546771E-02  0.1244055E+00
          2   -1    0    0  503    0 -0.00000000000E+00  0.00000000000E+00  0.40024906107E+03  0.40024906107E+03  0.00000000000E+00 0. -1.
         21   -1    0    0  501  502  0.00000000000E+00 -0.00000000000E+00 -0.37711989543E+03  0.37711989543E+03  0.00000000000E+00 0. -1.
         24    2    1    2    0    0  0.11559410233E+03 -0.61553921851E+02  0.25254057185E+03  0.29656588082E+03  0.83807514271E+02 0.  0.
         23    2    1    2    0    0 -0.11074906031E+02  0.64915011418E+02  0.10609010769E+02  0.11034236185E+03  0.87899223312E+02 0.  0.
        -13    1    3    3    0    0  0.41187778843E+02 -0.46516642143E+02  0.48367536558E+02  0.78737854396E+02  0.00000000000E+00 0.  1.
         14    1    3    3    0    0  0.74406323488E+02 -0.15037279708E+02  0.20417303529E+03  0.21782802642E+03  0.00000000000E+00 0. -1.
        -13    1    4    4    0    0  0.27501498709E+02  0.50941451699E+02  0.29727333126E+02  0.65077478956E+02  0.00000000000E+00 0. -1.
         13    1    4    4    0    0 -0.38576404741E+02  0.13973559719E+02 -0.19118322357E+02  0.45264882897E+02  0.00000000000E+00 0.  1.
         21    1    1    2  503  502 -0.62347556159E+02 -0.40871450286E+01  0.48361243883E+02  0.79010963944E+02  0.00000000000E+00 0.  1.
          1    1    1    2  501    0 -0.42171640141E+02  0.72605546088E+00 -0.28838166086E+03  0.29144974989E+03  0.00000000000E+00 0. -1.
<scales pt_clust_5="13000.00000" pt_clust_6="13000.00000" pt_clust_7="13000.00000" pt_clust_8="13000.00000" pt_clust_9="69.87089" pt_clust_10="42.17789"></scales>
<clustering>
<clus scale="   42.178">  2 10  1 -1</clus>
<clus scale="   69.871">  1  9  2 -1</clus>
<clus scale="   83.808">  5  6 -1 -1</clus>
<clus scale="   87.899">  7  8 -1 -1</clus>
<clus scale="  117.208">  1  5  2 -1</clus>
<clus scale="   42.178">  2  5  1 -1</clus>
</clustering>
</event>
<event>
10    4  0.5389768E-005  0.9753088E+02  0.7546771E-02  0.1290242E+00
          2   -1    0    0  503    0 -0.00000000000E+00  0.00000000000E+00  0.29282209069E+03  0.29282209069E+03  0.00000000000E+00 0. -1.
         21   -1    0    0  501  502  0.00000000000E+00 -0.00000000000E+00 -0.13301161029E+03  0.13301161029E+03  0.00000000000E+00 0. -1.
         24    2    1    2    0    0 -0.12051154258E+02  0.14791659179E+02  0.12104899867E+03  0.14740976149E+03  0.81931399376E+02 0.  0.
         23    2    1    2    0    0  0.20121474698E+02 -0.62955515849E+02  0.56627932424E+02  0.12576899458E+03  0.90790123626E+02 0.  0.
        -13    1    3    3    0    0  0.63269255892E-01  0.43128630866E+02  0.10307284454E+03  0.11173224282E+03  0.00000000000E+00 0.  1.
         14    1    3    3    0    0 -0.12114423514E+02 -0.28336971687E+02  0.17976154131E+02  0.35677518675E+02  0.00000000000E+00 0. -1.
        -13    1    4    4    0    0 -0.15110898030E+02  0.17184302388E+02  0.21635599056E+02  0.31491882039E+02  0.00000000000E+00 0.  1.
         13    1    4    4    0    0  0.35232372729E+02 -0.80139818237E+02  0.34992333368E+02  0.94277112544E+02  0.00000000000E+00 0. -1.
         21    1    1    2  503  502  0.20023821810E+02  0.16566011265E+02  0.59255114720E+02  0.64703591783E+02  0.00000000000E+00 0.  1.
          1    1    1    2  501    0 -0.28094142251E+02  0.31597845405E+02 -0.77121565416E+02  0.87951353118E+02  0.00000000000E+00 0. -1.
<scales pt_clust_5="13000.00000" pt_clust_6="13000.00000" pt_clust_7="13000.00000" pt_clust_8="13000.00000" pt_clust_9="25.98819" pt_clust_10="42.26395"></scales>
<clustering>
<clus scale="   25.988">  1  9  2 -1</clus>
<clus scale="   42.264">  2 10  1 -1</clus>
<clus scale="   81.931">  5  6 -1 -1</clus>
<clus scale="   89.343">  1  5  2 -1</clus>
<clus scale="   90.790">  7  8 -1 -1</clus>
<clus scale="   42.264">  2  5  1 -1</clus>
</clustering>
</event>
<event>
10    4  0.5389768E-005  0.1249976E+03  0.7546771E-02  0.1240034E+00
          2   -1    0    0  503    0 -0.00000000000E+00  0.00000000000E+00  0.87941702067E+03  0.87941702067E+03  0.00000000000E+00 0. -1.
         21   -1    0    0  501  502  0.00000000000E+00 -0.00000000000E+00 -0.32845972302E+02  0.32845972302E+02  0.00000000000E+00 0.  1.
         24    2    1    2    0    0  0.55398572335E+02 -0.36610291278E+01  0.53677186621E+03  0.54552314978E+03  0.79931631065E+02 0.  0.
         23    2    1    2    0    0 -0.75995019903E+02  0.84081451587E+01  0.14306996971E+03  0.18859004443E+03  0.96183411617E+02 0.  0.
        -13    1    3    3    0    0  0.34898051435E+02 -0.26833513315E+02  0.12379878644E+03  0.13139273555E+03  0.00000000000E+00 0.  1.
         14    1    3    3    0    0  0.20500520900E+02  0.23172484188E+02  0.41297307976E+03  0.41413041423E+03  0.00000000000E+00 0. -1.
        -13    1    4    4    0    0 -0.60962672634E+02  0.45792825371E+02  0.62817517260E+02  0.98790033834E+02  0.00000000000E+00 0.  1.
         13    1    4    4    0    0 -0.15032347269E+02 -0.37384680212E+02  0.80252452447E+02  0.89800010595E+02  0.00000000000E+00 0. -1.
         21    1    1    2  503  502  0.41431466490E+02 -0.12697013329E+01  0.11675421869E+03  0.12389401171E+03  0.00000000000E+00 0. -1.
          1    1    1    2  501    0 -0.20835018922E+02 -0.34774146980E+01  0.49974993769E+02  0.54255787052E+02  0.00000000000E+00 0. -1.
<scales pt_clust_5="13000.00000" pt_clust_6="13000.00000" pt_clust_7="13000.00000" pt_clust_8="13000.00000" pt_clust_9="39.04504" pt_clust_10="21.12322"></scales>
<clustering>
<clus scale="   21.123">  2 10  1 -1</clus>
<clus scale="   39.045">  1  9  2 -1</clus>
<clus scale="   79.932">  5  6 -1 -1</clus>
<clus scale="   96.183">  7  8 -1 -1</clus>
<clus scale="  112.970">  1  5  2 -1</clus>
<clus scale="   21.123">  2  5  1 -1</clus>
</clustering>
</event>
<event>
10    4  0.5389768E-005  0.2135910E+03  0.7546771E-02  0.1158968E+00
          2   -1    0    0  503    0 -0.00000000000E+00  0.00000000000E+00  0.10213398154E+04  0.10213398154E+04  0.00000000000E+00 0. -1.
         21   -1    0    0  501  502  0.00000000000E+00 -0.00000000000E+00 -0.10782479950E+03  0.10782479950E+03  0.00000000000E+00 0. -1.
         23    2    1    2    0    0 -0.43297635026E+02  0.97373950162E+02  0.12912148948E+03  0.18983670422E+03  0.89494378888E+02 0.  0.
         24    2    1    2    0    0 -0.69909567061E+02  0.14103173949E+03  0.40577688414E+03  0.44271831918E+03  0.81039072843E+02 0.  0.
        -13    1    4    4    0    0 -0.40432848333E+02  0.11777513332E+02  0.13155837814E+03  0.13813447036E+03  0.00000000000E+00 0.  1.
         14    1    4    4    0    0 -0.29476718728E+02  0.12925422616E+03  0.27421850600E+03  0.30458384882E+03  0.00000000000E+00 0. -1.
        -13    1    3    3    0    0  0.11400952146E+02  0.77251962287E+02  0.92281980916E+02  0.12088759816E+03  0.00000000000E+00 0.  1.
         13    1    3    3    0    0 -0.54698587172E+02  0.20121987875E+02  0.36839508566E+02  0.68949106057E+02  0.00000000000E+00 0. -1.
         21    1    1    2  503  502  0.26469611619E+02 -0.38939790379E+02  0.22611554598E+03  0.23096577181E+03  0.00000000000E+00 0.  1.
          1    1    1    2  501    0  0.86737590468E+02 -0.19946589927E+03  0.15250109633E+03  0.26564381972E+03  0.00000000000E+00 0. -1.
<scales pt_clust_5="13000.00000" pt_clust_6="13000.00000" pt_clust_7="13000.00000" pt_clust_8="13000.00000" pt_clust_9="47.08447" pt_clust_10="197.62032"></scales>
<clustering>
<clus scale="   47.084">  1  9  2 -1</clus>
<clus scale="   81.039">  5  6 -1 -1</clus>
<clus scale="   89.494">  7  8 -1 -1</clus>
<clus scale="  132.169">  1  7  2 -1</clus>
<clus scale="  197.620">  2 10  1 -1</clus>
<clus scale="  197.620">  2  5  1 -1</clus>
</clustering>
</event>
<event>
10    4  0.5389768E-005  0.1263956E+03  0.7546771E-02  0.1257155E+00
         21   -1    0    0  501  502  0.00000000000E+00  0.00000000000E+00  0.82171782615E+02  0.82171782615E+02  0.00000000000E+00 0.  1.
          2   -1    0    0  503    0 -0.00000000000E+00 -0.00000000000E+00 -0.80128746285E+03  0.80128746285E+03  0.00000000000E+00 0. -1.
         23    2    1    2    0    0  0.54997224908E+02  0.14695253359E+02  0.12837307801E+02  0.94510763797E+02  0.74342738604E+02 0.  0.
         24    2    1    2    0    0 -0.86688717023E+02  0.61763631745E+02 -0.40406018343E+03  0.42535036114E+03  0.79552611649E+02 0.  0.
        -11    1    4    4    0    0 -0.16203133312E+02  0.43342595445E+02 -0.73464248985E+02  0.86822335767E+02  0.00000000000E+00 0.  1.
         12    1    4    4    0    0 -0.70485583711E+02  0.18421036300E+02 -0.33059593444E+03  0.33852802537E+03  0.00000000000E+00 0. -1.
        -11    1    3    3    0    0  0.37474127611E+02 -0.28118786462E+02  0.11446632082E+02  0.48228640644E+02  0.00000000000E+00 0.  1.
         11    1    3    3    0    0  0.17523097296E+02  0.42814039821E+02  0.13906757186E+01  0.46282123153E+02  0.00000000000E+00 0. -1.
         21    1    1    2  503  502 -0.44243822968E+02 -0.22278906239E+02 -0.49652762616E+02  0.70137453400E+02  0.00000000000E+00 0. -1.
          1    1    1    2  501    0  0.75935315084E+02 -0.54179978864E+02 -0.27824004199E+03  0.29346066713E+03  0.00000000000E+00 0. -1.
<scales pt_clust_5="13000.00000" pt_clust_6="13000.00000" pt_clust_7="13000.00000" pt_clust_8="13000.00000" pt_clust_9="49.53651" pt_clust_10="98.22028"></scales>
<clustering>
<clus scale="   49.537">  1  9  2 -1</clus>
<clus scale="   74.343">  7  8 -1 -1</clus>
<clus scale="   77.549">  2  7  1 -1</clus>
<clus scale="   79.553">  5  6 -1 -1</clus>
<clus scale="   98.220">  1 10  2 -1</clus>
<clus scale="   49.537">  1  5  2 -1</clus>
</clustering>
</event>
<event>
10    4  0.5389768E-005  0.2339853E+03  0.7546771E-02  0.1157698E+00
          2   -1    0    0  503    0 -0.00000000000E+00  0.00000000000E+00  0.11756100732E+04  0.11756100732E+04  0.00000000000E+00 0. -1.
         21   -1    0    0  501  502  0.00000000000E+00 -0.00000000000E+00 -0.81430537473E+02  0.81430537473E+02  0.00000000000E+00 0. -1.
         23    2    1    2    0    0 -0.11538454570E+01  0.43567256843E+02  0.13846642495E+03  0.17350552028E+03  0.95035664358E+02 0.  0.
         24    2    1    2    0    0  0.55451259561E+02 -0.21993255066E+03  0.28376103778E+03  0.37232459676E+03  0.81609495539E+02 0.  0.
        -11    1    4    4    0    0  0.16238542288E+02 -0.18979646486E+03  0.23895272550E+03  0.30558925595E+03  0.00000000000E+00 0.  1.
         12    1    4    4    0    0  0.39212717273E+02 -0.30136085801E+02  0.44808312284E+02  0.66735340810E+02  0.00000000000E+00 0. -1.
        -13    1    3    3    0    0  0.77360489060E+01  0.71559455610E+02  0.77113040211E+02  0.10548470558E+03  0.00000000000E+00 0. -1.
         13    1    3    3    0    0 -0.88898943630E+01 -0.27992198767E+02  0.61353384742E+02  0.68020814703E+02  0.00000000000E+00 0.  1.
         21    1    1    2  503  502  0.18746983048E+02 -0.16907382288E+02  0.98083339958E+02  0.10128005987E+03  0.00000000000E+00 0. -1.
          1    1    1    2  501    0 -0.73044397152E+02  0.19327267611E+03  0.57386873307E+03  0.60993043381E+03  0.00000000000E+00 0. -1.
<scales pt_clust_5="13000.00000" pt_clust_6="13000.00000" pt_clust_7="13000.00000" pt_clust_8="13000.00000" pt_clust_9="25.24498" pt_clust_10="219.29217"></scales>
<clustering>
<clus scale="   25.245">  1  9  2 -1</clus>
<clus scale="   81.609">  5  6 -1 -1</clus>
<clus scale="   95.036">  7  8 -1 -1</clus>
<clus scale="  103.560">  1  7  2 -1</clus>
<clus scale="  219.292">  2 10  1 -1</clus>
<clus scale="  219.292">  2  5  1 -1</clus>
</clustering>
</event>
<event>
10    4  0.5389768E-005  0.1834133E+03  0.7546771E-02  0.1169677E+00
          2   -1    0    0  503    0 -0.00000000000E+00  0.00000000000E+00  0.39441538640E+03  0.39441538640E+03  0.00000000000E+00 0. -1.
         21   -1    0    0  501  502  0.00000000000E+00 -0.00000000000E+00 -0.16077409467E+03  0.16077409467E+03  0.00000000000E+00 0. -1.
         23    2    1    2    0    0 -0.64761714714E+02  0.15790327055E+03  0.10961963904E+03  0.23408647477E+03  0.11684386960E+03 0.  0.
         24    2    1    2    0    0  0.60308046433E+02 -0.10087550859E+03 -0.34927134284E+02  0.14699822491E+03  0.81090349120E+02 0.  0.
        -11    1    4    4    0    0  0.57448750272E+02 -0.18494344959E+02 -0.15400516954E+02  0.62286239457E+02  0.00000000000E+00 0.  1.
         12    1    4    4    0    0  0.28592961614E+01 -0.82381163626E+02 -0.19526617330E+02  0.84711985453E+02  0.00000000000E+00 0. -1.
        -13    1    3    3    0    0 -0.43800411574E+02  0.10299473291E+02  0.63893627451E+02  0.78146982239E+02  0.00000000000E+00 0.  1.
         13    1    3    3    0    0 -0.20961303140E+02  0.14760379726E+03  0.45726011589E+02  0.15593949253E+03  0.00000000000E+00 0. -1.
         21    1    1    2  503  502 -0.13197451226E+02 -0.38680833104E+02  0.12601985468E+03  0.13248163398E+03  0.00000000000E+00 0. -1.
          1    1    1    2  501    0  0.17651119507E+02 -0.18346928859E+02  0.32928932291E+02  0.41623147409E+02  0.00000000000E+00 0. -1.
<scales pt_clust_5="13000.00000" pt_clust_6="13000.00000" pt_clust_7="13000.00000" pt_clust_8="13000.00000" pt_clust_9="41.11385" pt_clust_10="25.45923"></scales>
<clustering>
<clus scale="   25.459">  2 10  1 -1</clus>
<clus scale="   41.114">  1  9  2 -1</clus>
<clus scale="   81.090">  5  6 -1 -1</clus>
<clus scale="  116.844">  7  8 -1 -1</clus>
<clus scale="  162.983">  2  5  1 -1</clus>
<clus scale="   25.459">  2  5  1 -1</clus>
</clustering>
</event>
<event>
10    4  0.5389768E-005  0.1551761E+03  0.7546771E-02  0.1217333E+00
          4   -1    0    0  503    0 -0.00000000000E+00  0.00000000000E+00  0.42537421939E+03  0.42537421939E+03  0.00000000000E+00 0. -1.
         21   -1    0    0  501  502  0.00000000000E+00 -0.00000000000E+00 -0.14774938869E+03  0.14774938869E+03  0.00000000000E+00 0. -1.
         23    2    1    2    0    0  0.16400488859E+02 -0.73437652527E+01 -0.56577898435E+01  0.94274629755E+02  0.92373092979E+02 0.  0.
         24    2    1    2    0    0  0.89206031903E+02 -0.50543027719E+02  0.27161676402E+03  0.30195764251E+03  0.83008659776E+02 0.  0.
        -11    1    4    4    0    0  0.24046870762E+02 -0.35360377941E+02  0.32650045645E+02  0.53801801105E+02  0.00000000000E+00 0.  1.
         12    1    4    4    0    0  0.65159161141E+02 -0.15182649777E+02  0.23896671837E+03  0.24815584141E+03  0.00000000000E+00 0. -1.
        -13    1    3    3    0    0 -0.17044550027E+02  0.32576223749E+02  0.12937630013E+02  0.38975752844E+02  0.00000000000E+00 0.  1.
         13    1    3    3    0    0  0.33445038886E+02 -0.39919989002E+02 -0.18595419857E+02  0.55298876911E+02  0.00000000000E+00 0. -1.
         21    1    1    2  503  502  0.82982268845E+01 -0.18272974653E+02  0.32598810227E+02  0.38281125902E+02  0.00000000000E+00 0. -1.
          3    1    1    2  501    0 -0.11390474765E+03  0.76159767625E+02 -0.20932953702E+02  0.13861020991E+03  0.00000000000E+00 0. -1.
<scales pt_clust_5="13000.00000" pt_clust_6="13000.00000" pt_clust_7="13000.00000" pt_clust_8="13000.00000" pt_clust_9="20.06894" pt_clust_10="131.10752"></scales>
<clustering>
<clus scale="   20.069">  1  9  2 -1</clus>
<clus scale="   83.009">  5  6 -1 -1</clus>
<clus scale="   92.373">  7  8 -1 -1</clus>
<clus scale="   94.458">  1  7  2 -1</clus>
<clus scale="  131.108">  2 10  1 -1</clus>
<clus scale="  131.108">  2  5  1 -1</clus>
</clustering>
</event>
<event>
10    4  0.5389768E-005  0.9118063E+02  0.7546771E-02  0.1303613E+00
         21   -1    0    0  501  502  0.00000000000E+00  0.00000000000E+00  0.99036110050E+02  0.99036110050E+02  0.00000000000E+00 0.  1.
          2   -1    0    0  503    0 -0.00000000000E+00 -0.00000000000E+00 -0.36068600910E+03  0.36068600910E+03  0.00000000000E+00 0. -1.
         23    2    1    2    0    0  0.18661509816E+02 -0.10188179313E+02 -0.14374944074E+03  0.16765232829E+03  0.83614296164E+02 0.  0.
         24    2    1    2    0    0 -0.73661593631E+01  0.51066270406E+02 -0.80757953111E+02  0.12306825390E+03  0.77213495268E+02 0.  0.
        -11    1    4    4    0    0 -0.33513061593E+02  0.56898241367E+02 -0.55769300385E+02  0.86433500643E+02  0.00000000000E+00 0.  1.
         12    1    4    4    0    0  0.26146902230E+02 -0.58319709604E+01 -0.24988652726E+02  0.36634753262E+02  0.00000000000E+00 0. -1.
        -11    1    3    3    0    0 -0.30825934501E+02 -0.15206735710E+02 -0.41045388316E+02  0.53536968077E+02  0.00000000000E+00 0.  1.
         11    1    3    3    0    0  0.49487444317E+02  0.50185563972E+01 -0.10270405242E+03  0.11411536021E+03  0.00000000000E+00 0. -1.
         21    1    1    2  503  502  0.36330239927E+02 -0.16588490287E+02 -0.87106881059E+02  0.95826265037E+02  0.00000000000E+00 0. -1.
          1    1    1    2  501    0 -0.47625590380E+02 -0.24289600806E+02  0.49964375852E+02  0.73175271921E+02  0.00000000000E+00 0. -1.
<scales pt_clust_5="13000.00000" pt_clust_6="13000.00000" pt_clust_7="13000.00000" pt_clust_8="13000.00000" pt_clust_9="39.93826" pt_clust_10="52.40906"></scales>
<clustering>
<clus scale="   39.938">  2  9  1 -1</clus>
<clus scale="   52.409">  1 10  2 -1</clus>
<clus scale="   77.213">  5  6 -1 -1</clus>
<clus scale="   83.614">  7  8 -1 -1</clus>
<clus scale="   85.349">  1  5  2 -1</clus>
<clus scale="   52.409">  1  5  2 -1</clus>
</clustering>
</event>
<event>
10    4  0.5389768E-005  0.1463353E+03  0.7546771E-02  0.1207106E+00
         21   -1    0    0  501  502  0.00000000000E+00  0.00000000000E+00  0.14570087615E+03  0.14570087615E+03  0.00000000000E+00 0. -1.
          2   -1    0    0  503    0 -0.00000000000E+00 -0.00000000000E+00 -0.63286323237E+03  0.63286323237E+03  0.00000000000E+00 0. -1.
         24    2    1    2    0    0 -0.44452935037E+01 -0.11335956004E+03 -0.48670149471E+03  0.50638599988E+03  0.81720777241E+02 0.  0.
         23    2    1    2    0    0  0.29057443806E+01  0.61541005391E+02 -0.60607999447E+01  0.11100591585E+03  0.92140335152E+02 0.  0.
        -11    1    3    3    0    0  0.34853859363E+02 -0.24391516320E+02 -0.14487695236E+03  0.15099360552E+03  0.00000000000E+00 0.  1.
         12    1    3    3    0    0 -0.39299152867E+02 -0.88968043718E+02 -0.34182454235E+03  0.35539239436E+03  0.00000000000E+00 0. -1.
        -11    1    4    4    0    0  0.18931509539E+02  0.14116090278E+02 -0.42819712153E+02  0.48899834428E+02  0.00000000000E+00 0.  1.
         11    1    4    4    0    0 -0.16025765159E+02  0.47424915113E+02  0.36758912208E+02  0.62106081418E+02  0.00000000000E+00 0. -1.
         21    1    1    2  503  502  0.14639876282E+02 -0.15613953433E+02 -0.61516533297E+02  0.65133749994E+02  0.00000000000E+00 0. -1.
          1    1    1    2  501    0 -0.13100327159E+02  0.67432508081E+02  0.67116471735E+02  0.96038442802E+02  0.00000000000E+00 0. -1.
<scales pt_clust_5="13000.00000" pt_clust_6="13000.00000" pt_clust_7="13000.00000" pt_clust_8="13000.00000" pt_clust_9="21.40377" pt_clust_10="68.23379"></scales>
<clustering>
<clus scale="   21.404">  2  9  1 -1</clus>
<clus scale="   68.234">  1 10  2 -1</clus>
<clus scale="   81.721">  5  6 -1 -1</clus>
<clus scale="   92.140">  7  8 -1 -1</clus>
<clus scale="  140.009">  2  5  1 -1</clus>
<clus scale="   68.234">  1  5  2 -1</clus>
</clustering>
</event>
<event>
10    4  0.5389768E-005  0.1728255E+03  0.7546771E-02  0.1183832E+00
         -3   -1    0    0    0  501 -0.00000000000E+00  0.00000000000E+00  0.64125502123E+02  0.64125502123E+02  0.00000000000E+00 0.  1.
         21   -1    0    0  503  502  0.00000000000E+00 -0.00000000000E+00 -0.13990110371E+04  0.13990110371E+04  0.00000000000E+00 0. -1.
         23    2    1    2    0    0  0.11706224541E+03 -0.44291584745E+02 -0.27605818075E+03  0.31764901608E+03  0.95012970067E+02 0.  0.
         24    2    1    2    0    0 -0.24570845368E+02 -0.13820376777E+03 -0.63181390736E+03  0.65180983441E+03  0.77222010065E+02 0.  0.
        -13    1    4    4    0    0 -0.39975627335E+02 -0.32800667782E+02 -0.16119780155E+03  0.16928870551E+03  0.00000000000E+00 0.  1.
         14    1    4    4    0    0  0.15404781967E+02 -0.10540309999E+03 -0.47061610581E+03  0.48252112891E+03  0.00000000000E+00 0. -1.
        -11    1    3    3    0    0  0.10319086637E+03 -0.25908074830E+02 -0.27469469972E+03  0.29457895596E+03  0.00000000000E+00 0.  1.
         11    1    3    3    0    0  0.13871379048E+02 -0.18383509915E+02 -0.13634810294E+01  0.23070060122E+02  0.00000000000E+00 0. -1.
         21    1    1    2  503  501 -0.95107200796E+02  0.14242973482E+03 -0.20074849591E+03  0.26387794075E+03  0.00000000000E+00 0.  1.
         -4    1    1    2    0  502  0.26158007499E+01  0.40065617694E+02 -0.22626495095E+03  0.22979974796E+03  0.00000000000E+00 0.  1.
<scales pt_clust_5="13000.00000" pt_clust_6="13000.00000" pt_clust_7="13000.00000" pt_clust_8="13000.00000" pt_clust_9="144.36483" pt_clust_10="40.15092"></scales>
<clustering>
<clus scale="   40.151">  2 10  1 -1</clus>
<clus scale="   77.222">  5  6 -1 -1</clus>
<clus scale="   95.013">  7  8 -1 -1</clus>
<clus scale="  141.461">  2  5  1 -1</clus>
<clus scale="  144.365">  1  9  2 -1</clus>
<clus scale="   40.151">  2  5  1 -1</clus>
</clustering>
</event>
<event>
10    4  0.5389768E-005  0.1562261E+03  0.7546771E-02  0.1202094E+00
         21   -1    0    0  501  502  0.00000000000E+00  0.00000000000E+00  0.25596922086E+03  0.25596922086E+03  0.00000000000E+00 0.  1.
          2   -1    0    0  503    0 -0.00000000000E+00 -0.00000000000E+00 -0.42739667433E+03  0.42739667433E+03  0.00000000000E+00 0. -1.
         24    2    1    2    0    0 -0.90919067667E+02  0.39555516868E+02  0.99363523404E+02  0.16187989286E+03  0.80629238805E+02 0.  0.
         23    2    1    2    0    0 -0.25974839395E+02 -0.72267048968E+02 -0.29425320715E+03  0.31692448299E+03  0.89212999874E+02 0.  0.
        -11    1    3    3    0    0 -0.10024544755E+03  0.46128231030E+02  0.10188865570E+03  0.15019407982E+03  0.00000000000E+00 0.  1.
         12    1    3    3    0    0  0.93263798873E+01 -0.65727141619E+01 -0.25251322997E+01  0.11685813039E+02  0.00000000000E+00 0. -1.
        -13    1    4    4    0    0  0.99648277152E+01 -0.79245593276E+02 -0.17936565909E+03  0.19634459887E+03  0.00000000000E+00 0. -1.
         13    1    4    4    0    0 -0.35939667110E+02  0.69785443087E+01 -0.11488754806E+03  0.12057988411E+03  0.00000000000E+00 0.  1.
         21    1    1    2  503  502 -0.13469632761E+02 -0.15993629297E+02 -0.44886790626E+02  0.49518190168E+02  0.00000000000E+00 0.  1.
          1    1    1    2  501    0  0.13036353982E+03  0.48705161396E+02  0.68349020908E+02  0.15504332917E+03  0.00000000000E+00 0. -1.
<scales pt_clust_5="13000.00000" pt_clust_6="13000.00000" pt_clust_7="13000.00000" pt_clust_8="13000.00000" pt_clust_9="20.90998" pt_clust_10="128.24830"></scales>
<clustering>
<clus scale="   20.910">  2  9  1 -1</clus>
<clus scale="   80.629">  5  6 -1 -1</clus>
<clus scale="   89.213">  7  8 -1 -1</clus>
<clus scale="  128.189">  2  5  1 -1</clus>
<clus scale="  128.248">  1 10  2 -1</clus>
<clus scale="  128.248">  1  5  2 -1</clus>
</clustering>
</event>
<event>
10    4  0.5389768E-005  0.1570202E+03  0.7546771E-02  0.1193899E+00
         -1   -1    0    0    0  501 -0.00000000000E+00  0.00000000000E+00  0.47856527448E+03  0.47856527448E+03  0.00000000000E+00 0.  1.
         21   -1    0    0  503  502  0.00000000000E+00 -0.00000000000E+00 -0.12693711579E+03  0.12693711579E+03  0.00000000000E+00 0.  1.
         23    2    1    2    0    0 -0.10865663882E+03 -0.51664296293E+02  0.12594496633E+03  0.19625089489E+03  0.90425740417E+02 0.  0.
         24    2    1    2    0    0  0.13183711805E+03  0.10030495674E+03  0.56125388564E+02  0.19208549341E+03  0.79401936343E+02 0.  0.
        -11    1    4    4    0    0  0.94384392942E+02  0.96673267130E+02  0.69770569018E+02  0.15205941769E+03  0.00000000000E+00 0.  1.
         12    1    4    4    0    0  0.37452725110E+02  0.36316896062E+01 -0.13645180454E+02  0.40026075715E+02  0.00000000000E+00 0. -1.
        -11    1    3    3    0    0 -0.99631417504E+01 -0.31775811251E+02 -0.20985375729E+01  0.33367202972E+02  0.00000000000E+00 0. -1.
         11    1    3    3    0    0 -0.98693497067E+02 -0.19888485042E+02  0.12804350390E+03  0.16288369192E+03  0.00000000000E+00 0.  1.
         21    1    1    2  503  501  0.14027715615E+02  0.26490217483E+02  0.11080862042E+03  0.11479137070E+03  0.00000000000E+00 0.  1.
         -2    1    1    2    0  502 -0.37208194849E+02 -0.75130877926E+02  0.58749183371E+02  0.10237463127E+03  0.00000000000E+00 0.  1.
<scales pt_clust_5="13000.00000" pt_clust_6="13000.00000" pt_clust_7="13000.00000" pt_clust_8="13000.00000" pt_clust_9="29.97513" pt_clust_10="77.24021"></scales>
<clustering>
<clus scale="   29.975">  1  9  2 -1</clus>
<clus scale="   77.240">  2 10  1 -1</clus>
<clus scale="   79.402">  5  6 -1 -1</clus>
<clus scale="   90.426">  7  8 -1 -1</clus>
<clus scale="  150.941">  2  5  1 -1</clus>
<clus scale="   77.240">  2  5  1 -1</clus>
</clustering>
</event>
<event>
10    4  0.5389768E-005  0.1437330E+03  0.7546771E-02  0.1213903E+00
         21   -1    0    0  501  502  0.00000000000E+00  0.00000000000E+00  0.49851454150E+03  0.49851454150E+03  0.00000000000E+00 0.  1.
          4   -1    0    0  503    0 -0.00000000000E+00 -0.00000000000E+00 -0.15522362941E+03  0.15522362941E+03  0.00000000000E+00 0. -1.
         23    2    1    2    0    0  0.42899607030E+02  0.62515538743E+02  0.32099683410E+01  0.11929184648E+03  0.92041685517E+02 0.  0.
         24    2    1    2    0    0  0.87516726543E+02 -0.79267835926E+02  0.29753365854E+03  0.32990792427E+03  0.79814743593E+02 0.  0.
        -11    1    4    4    0    0  0.97023238721E+02 -0.79459097323E+02  0.29423079671E+03  0.31984217785E+03  0.00000000000E+00 0.  1.
         12    1    4    4    0    0 -0.95065121780E+01  0.19126139677E+00  0.33028618289E+01  0.10065746419E+02  0.00000000000E+00 0. -1.
        -11    1    3    3    0    0  0.66775400597E+02  0.67246326553E+02  0.21657133203E+00  0.94768504594E+02  0.00000000000E+00 0.  1.
         11    1    3    3    0    0 -0.23875793567E+02 -0.47307878104E+01  0.29933970090E+01  0.24523341889E+02  0.00000000000E+00 0. -1.
         21    1    1    2  503  502  0.22791793597E+02  0.17535489300E+02 -0.24042064905E+02  0.37483064512E+02  0.00000000000E+00 0. -1.
          3    1    1    2  501    0 -0.15320812717E+03 -0.78319211690E+00  0.66589350112E+02  0.16705533565E+03  0.00000000000E+00 0. -1.
<scales pt_clust_5="13000.00000" pt_clust_6="13000.00000" pt_clust_7="13000.00000" pt_clust_8="13000.00000" pt_clust_9="28.75690" pt_clust_10="119.53580"></scales>
<clustering>
<clus scale="   28.757">  2  9  1 -1</clus>
<clus scale="   79.815">  5  6 -1 -1</clus>
<clus scale="   92.042">  7  8 -1 -1</clus>
<clus scale="  127.806">  2  7  1 -1</clus>
<clus scale="  119.536">  1 10  2 -1</clus>
<clus scale="  119.536">  1  5  2 -1</clus>
</clustering>
</event>
<event>
10    4  0.5389768E-005  0.1083104E+03  0.7546771E-02  0.1266536E+00
          2   -1    0    0  503    0 -0.00000000000E+00  0.00000000000E+00  0.37154141574E+03  0.37154141574E+03  0.00000000000E+00 0. -1.
         21   -1    0    0  501  502  0.00000000000E+00 -0.00000000000E+00 -0.32551338990E+03  0.32551338990E+03  0.00000000000E+00 0. -1.
         24    2    1    2    0    0 -0.32223244085E+02  0.49453636069E+02  0.28336835166E+01  0.99517705016E+02  0.80073368042E+02 0.  0.
         23    2    1    2    0    0  0.15494160902E+00  0.68405286517E+02 -0.22514945164E+03  0.24839886178E+03  0.79563884579E+02 0.  0.
        -11    1    3    3    0    0  0.21389637080E+02  0.38807191224E+02 -0.37152162964E+01  0.44467038323E+02  0.00000000000E+00 0.  1.
         12    1    3    3    0    0 -0.53612881165E+02  0.10646444845E+02  0.65488998129E+01  0.55050666693E+02  0.00000000000E+00 0. -1.
        -13    1    4    4    0    0  0.19593751978E+02  0.45528385263E+02 -0.48957389597E+02  0.69667603500E+02  0.00000000000E+00 0.  1.
         13    1    4    4    0    0 -0.19438810369E+02  0.22876901253E+02 -0.17619206204E+03  0.17873125828E+03  0.00000000000E+00 0. -1.
         21    1    1    2  503  502 -0.25210900399E+02  0.32756765478E+01  0.19447838480E+03  0.19613302045E+03  0.00000000000E+00 0. -1.
          1    1    1    2  501    0  0.57279202875E+02 -0.12113459913E+03  0.73865409161E+02  0.15300521841E+03  0.00000000000E+00 0. -1.
<scales pt_clust_5="13000.00000" pt_clust_6="13000.00000" pt_clust_7="13000.00000" pt_clust_8="13000.00000" pt_clust_9="25.42282" pt_clust_10="73.48972"></scales>
<clustering>
<clus scale="   25.423">  1  9  2 -1</clus>
<clus scale="   79.564">  7  8 -1 -1</clus>
<clus scale="   80.073">  5  6 -1 -1</clus>
<clus scale="  102.548">  1  5  2 -1</clus>
<clus scale="   73.490">  2 10  1 -1</clus>
<clus scale="   73.490">  2  5  1 -1</clus>
</clustering>
</event>
<event>
10    4  0.5389768E-005  0.7548040E+03  0.7546771E-02  0.9627844E-01
          2   -1    0    0  503    0 -0.00000000000E+00  0.00000000000E+00  0.11936673829E+04  0.11936673829E+04  0.00000000000E+00 0. -1.
         21   -1    0    0  501  502  0.00000000000E+00 -0.00000000000E+00 -0.18287236890E+04  0.18287236890E+04  0.00000000000E+00 0. -1.
         24    2    1    2    0    0  0.45640110958E+03  0.17633610670E+03  0.61251539527E+03  0.78801518858E+03  0.79977700820E+02 0.  0.
         23    2    1    2    0    0  0.10634568941E+03  0.14294974561E+03  0.34500956079E+03  0.39868848292E+03  0.90426068983E+02 0.  0.
        -13    1    3    3    0    0  0.13403949600E+03  0.90924064449E+02  0.21368733597E+03  0.26813438709E+03  0.00000000000E+00 0.  1.
         14    1    3    3    0    0  0.32236161358E+03  0.85412042252E+02  0.39882805930E+03  0.51988080149E+03  0.00000000000E+00 0. -1.
        -13    1    4    4    0    0  0.78068689710E+02  0.96622826456E+02  0.31035976479E+03  0.33429608808E+03  0.00000000000E+00 0. -1.
         13    1    4    4    0    0  0.28276999700E+02  0.46326919158E+02  0.34649796000E+02  0.64392394842E+02  0.00000000000E+00 0.  1.
         21    1    1    2  503  502  0.64207449309E+02  0.11736580338E+02  0.24734063596E+02  0.69800557067E+02  0.00000000000E+00 0. -1.
          1    1    1    2  501    0 -0.62695424830E+03 -0.33102243265E+03 -0.16173153258E+04  0.17658868433E+04  0.00000000000E+00 0. -1.
<scales pt_clust_5="13000.00000" pt_clust_6="13000.00000" pt_clust_7="13000.00000" pt_clust_8="13000.00000" pt_clust_9="65.27131" pt_clust_10="704.94317"></scales>
<clustering>
<clus scale="   65.271">  1  9  2 -1</clus>
<clus scale="   79.978">  5  6 -1 -1</clus>
<clus scale="   90.426">  7  8 -1 -1</clus>
<clus scale="  149.863">  5  7 -1 -1</clus>
<clus scale="  704.943">  2 10  1 -1</clus>
<clus scale="  704.943">  2  5  1 -1</clus>
</clustering>
</event>
<event>
10    4  0.5389768E-005  0.9429609E+02  0.7546771E-02  0.1300084E+00
         21   -1    0    0  501  502  0.00000000000E+00  0.00000000000E+00  0.91031789985E+02  0.91031789985E+02  0.00000000000E+00 0.  1.
          2   -1    0    0  503    0 -0.00000000000E+00 -0.00000000000E+00 -0.75956858363E+03  0.75956858363E+03  0.00000000000E+00 0. -1.
         24    2    1    2    0    0 -0.16032578957E+02  0.18946264514E+02 -0.34051570419E+03  0.35038813001E+03  0.78771138906E+02 0.  0.
         23    2    1    2    0    0 -0.88575606865E+02 -0.67650727285E+02 -0.57967524970E+01  0.14412851675E+03  0.91198508588E+02 0.  0.
        -11    1    3    3    0    0 -0.18952152447E+02  0.48636407795E+02 -0.19650166369E+03  0.20331647272E+03  0.00000000000E+00 0.  1.
         12    1    3    3    0    0  0.29195734904E+01 -0.29690143281E+02 -0.14401404050E+03  0.14707165729E+03  0.00000000000E+00 0. -1.
        -11    1    4    4    0    0 -0.24892733650E+02 -0.55536472922E+02 -0.37996119108E+02  0.71747146846E+02  0.00000000000E+00 0. -1.
         11    1    4    4    0    0 -0.63682873215E+02 -0.12114254363E+02  0.32199366611E+02  0.72381369909E+02  0.00000000000E+00 0.  1.
         21    1    1    2  503  502  0.35085950578E+02  0.10520897119E+02 -0.16386171810E+02  0.40127544539E+02  0.00000000000E+00 0. -1.
          1    1    1    2  501    0  0.69522235243E+02  0.38183565652E+02 -0.30583816514E+03  0.31595618231E+03  0.00000000000E+00 0. -1.
<scales pt_clust_5="13000.00000" pt_clust_6="13000.00000" pt_clust_7="13000.00000" pt_clust_8="13000.00000" pt_clust_9="36.62940" pt_clust_10="81.60842"></scales>
<clustering>
<clus scale="   36.629">  1  9  2 -1</clus>
<clus scale="   78.771">  5  6 -1 -1</clus>
<clus scale="   81.608">  1 10  2 -1</clus>
<clus scale="   82.338">  2  5  1 -1</clus>
<clus scale="   91.199">  7  8 -1 -1</clus>
<clus scale="   36.629">  1  5  2 -1</clus>
</clustering>
</event>
<event>
10    4  0.5389768E-005  0.1210540E+03  0.7546771E-02  0.1246749E+00
         -1   -1    0    0    0  501 -0.00000000000E+00  0.00000000000E+00  0.27270002023E+03  0.27270002023E+03  0.00000000000E+00 0.  1.
         21   -1    0    0  503  502  0.00000000000E+00 -0.00000000000E+00 -0.22495816298E+03  0.22495816298E+03  0.00000000000E+00 0.  1.
         23    2    1    2    0    0  0.40450439202E+02 -0.79414699682E+02  0.10341727255E+03  0.16737386355E+03  0.96829465459E+02 0.  0.
         24    2    1    2    0    0 -0.78162870241E+02 -0.71341311252E+01 -0.10801690166E+03  0.15602550577E+03  0.80721603648E+02 0.  0.
        -11    1    4    4    0    0 -0.32175591755E+02 -0.35789424263E+02 -0.83885223889E+02  0.96710301316E+02  0.00000000000E+00 0.  1.
         12    1    4    4    0    0 -0.45987278486E+02  0.28655293138E+02 -0.24131677772E+02  0.59315204455E+02  0.00000000000E+00 0. -1.
        -11    1    3    3    0    0  0.57298142007E+02 -0.59722450327E+02  0.27591863537E+02  0.87241957130E+02  0.00000000000E+00 0.  1.
         11    1    3    3    0    0 -0.16847702805E+02 -0.19692249355E+02  0.75825409015E+02  0.80131906421E+02  0.00000000000E+00 0. -1.
         21    1    1    2  503  501  0.95023720175E+01  0.23044296620E+02  0.91267641567E+02  0.94610343398E+02  0.00000000000E+00 0.  1.
         -2    1    1    2    0  502  0.28210059022E+02  0.63504534187E+02 -0.38926155204E+02  0.79648470489E+02  0.00000000000E+00 0.  1.
<scales pt_clust_5="13000.00000" pt_clust_6="13000.00000" pt_clust_7="13000.00000" pt_clust_8="13000.00000" pt_clust_9="24.92659" pt_clust_10="72.31077"></scales>
<clustering>
<clus scale="   24.927">  1  9  2 -1</clus>
<clus scale="   72.311">  2 10  1 -1</clus>
<clus scale="   80.722">  5  6 -1 -1</clus>
<clus scale="   96.829">  7  8 -1 -1</clus>
<clus scale="  108.601">  2  5  1 -1</clus>
<clus scale="   72.311">  2  5  1 -1</clus>
</clustering>
</event>
<event>
10    4  0.5389768E-005  0.1883799E+03  0.7546771E-02  0.1191973E+00
          2   -1    0    0  503    0 -0.00000000000E+00  0.00000000000E+00  0.83666552642E+03  0.83666552642E+03  0.00000000000E+00 0. -1.
         21   -1    0    0  501  502  0.00000000000E+00 -0.00000000000E+00 -0.12293421986E+03  0.12293421986E+03  0.00000000000E+00 0. -1.
         23    2    1    2    0    0 -0.72447803653E+01 -0.11041885454E+02 -0.32628432385E+02  0.97024759317E+02  0.90414485807E+02 0.  0.
         24    2    1    2    0    0 -0.15439739471E+03  0.17530903039E+02  0.27126618407E+03  0.32281021436E+03  0.80468651159E+02 0.  0.
        -13    1    4    4    0    0 -0.16905922860E+02  0.11321462528E+02  0.10508046771E+03  0.10703219346E+03  0.00000000000E+00 0.  1.
         14    1    4    4    0    0 -0.13749147185E+03  0.62094405115E+01  0.16618571636E+03  0.21577802090E+03  0.00000000000E+00 0. -1.
        -11    1    3    3    0    0 -0.52309606233E+01  0.24816097060E+02  0.20695649391E+02  0.32733950664E+02  0.00000000000E+00 0.  1.
         11    1    3    3    0    0 -0.20138197419E+01 -0.35857982515E+02 -0.53324081777E+02  0.64290808653E+02  0.00000000000E+00 0. -1.
         21    1    1    2  503  502 -0.17210190647E+02  0.45894738195E+02  0.21046646176E+03  0.21609870240E+03  0.00000000000E+00 0. -1.
          1    1    1    2  501    0  0.17885236572E+03 -0.52383755780E+02  0.26462709311E+03  0.32366607020E+03  0.00000000000E+00 0. -1.
<scales pt_clust_5="13000.00000" pt_clust_6="13000.00000" pt_clust_7="13000.00000" pt_clust_8="13000.00000" pt_clust_9="49.01548" pt_clust_10="170.32849"></scales>
<clustering>
<clus scale="   49.015">  1  9  2 -1</clus>
<clus scale="   80.469">  5  6 -1 -1</clus>
<clus scale="   90.414">  7  8 -1 -1</clus>
<clus scale="   91.193">  1  7  2 -1</clus>
<clus scale="  170.328">  2 10  1 -1</clus>
<clus scale="  170.328">  2  5  1 -1</clus>
</clustering>
</event>
<event>
10    4  0.5389768E-005  0.1001961E+03  0.7546771E-02  0.1289102E+00
          2   -1    0    0  503    0 -0.00000000000E+00  0.00000000000E+00  0.14697103932E+03  0.14697103932E+03  0.00000000000E+00 0. -1.
         21   -1    0    0  501  502  0.00000000000E+00 -0.00000000000E+00 -0.22002097334E+03  0.22002097334E+03  0.00000000000E+00 0.  1.
         24    2    1    2    0    0  0.43235331096E+02 -0.12203071902E+02  0.67724383950E+02  0.10982338566E+03  0.73867279886E+02 0.  0.
         23    2    1    2    0    0 -0.29997241951E+02 -0.30194453096E+02 -0.38312127904E+02  0.10811440636E+03  0.91702596446E+02 0.  0.
        -13    1    3    3    0    0  0.37509344359E+02 -0.40108411047E+02  0.30073815641E+02  0.62610461891E+02  0.00000000000E+00 0.  1.
         14    1    3    3    0    0  0.57259867375E+01  0.27905339146E+02  0.37650568309E+02  0.47212923770E+02  0.00000000000E+00 0. -1.
        -13    1    4    4    0    0  0.20766471527E+02 -0.96569892337E+01 -0.47364155214E+02  0.52610521570E+02  0.00000000000E+00 0.  1.
         13    1    4    4    0    0 -0.50763713478E+02 -0.20537463862E+02  0.90520273100E+01  0.55503884787E+02  0.00000000000E+00 0. -1.
         21    1    1    2  503  502 -0.35026097514E+02  0.24158183083E+02  0.18194461562E+00  0.42549717047E+02  0.00000000000E+00 0.  1.
          1    1    1    2  501    0  0.21788008369E+02  0.18239341914E+02 -0.10264413468E+03  0.10650450359E+03  0.00000000000E+00 0. -1.
<scales pt_clust_5="13000.00000" pt_clust_6="13000.00000" pt_clust_7="13000.00000" pt_clust_8="13000.00000" pt_clust_9="41.46407" pt_clust_10="28.41462"></scales>
<clustering>
<clus scale="   28.415">  2 10  1 -1</clus>
<clus scale="   41.464">  2  9  1 -1</clus>
<clus scale="   73.867">  5  6 -1 -1</clus>
<clus scale="   84.180">  1  5  2 -1</clus>
<clus scale="   91.703">  7  8 -1 -1</clus>
<clus scale="   28.415">  2  5  1 -1</clus>
</clustering>
</event>
<event>
10    4  0.5389768E-005  0.1647504E+03  0.7546771E-02  0.1196991E+00
          2   -1    0    0  503    0 -0.00000000000E+00  0.00000000000E+00  0.57473709415E+03  0.57473709415E+03  0.00000000000E+00 0. -1.
         21   -1    0    0  501  502  0.00000000000E+00 -0.00000000000E+00 -0.40343885902E+03  0.40343885902E+03  0.00000000000E+00 0. -1.
         24    2    1    2    0    0 -0.23844807426E+02 -0.96206051058E+02  0.26665241194E+02  0.13025792260E+03  0.80199203310E+02 0.  0.
         23    2    1    2    0    0 -0.90799521828E+02  0.26914683967E+02  0.41782576089E+03  0.43826636334E+03  0.92358461395E+02 0.  0.
        -11    1    3    3    0    0  0.11875915241E+02 -0.38069503857E+02 -0.22840824838E+02  0.45956803261E+02  0.00000000000E+00 0.  1.
         12    1    3    3    0    0 -0.35720722667E+02 -0.58136547201E+02  0.49506066032E+02  0.84301119342E+02  0.00000000000E+00 0. -1.
        -11    1    4    4    0    0 -0.68960540016E+01  0.45546179113E+02  0.13267969561E+03  0.14044896447E+03  0.00000000000E+00 0.  1.
         11    1    4    4    0    0 -0.83903467826E+02 -0.18631495146E+02  0.28514606528E+03  0.29781739887E+03  0.00000000000E+00 0. -1.
         21    1    1    2  503  502 -0.22681483621E+02  0.54677985631E+02  0.37206170413E+02  0.69917314942E+02  0.00000000000E+00 0.  1.
          1    1    1    2  501    0  0.13732581288E+03  0.14613381460E+02 -0.31039893738E+03  0.33973435229E+03  0.00000000000E+00 0. -1.
<scales pt_clust_5="13000.00000" pt_clust_6="13000.00000" pt_clust_7="13000.00000" pt_clust_8="13000.00000" pt_clust_9="59.19571" pt_clust_10="136.42806"></scales>
<clustering>
<clus scale="   59.196">  1  9  2 -1</clus>
<clus scale="   80.199">  5  6 -1 -1</clus>
<clus scale="   92.358">  7  8 -1 -1</clus>
<clus scale="  122.125">  1  5  2 -1</clus>
<clus scale="  136.428">  2 10  1 -1</clus>
<clus scale="  136.428">  2  5  1 -1</clus>
</clustering>
</event>
<event>
10    4  0.5389768E-005  0.1776472E+03  0.7546771E-02  0.1182927E+00
         21   -1    0    0  501  502  0.00000000000E+00  0.00000000000E+00  0.31230554406E+03  0.31230554406E+03  0.00000000000E+00 0. -1.
          2   -1    0    0  503    0 -0.00000000000E+00 -0.00000000000E+00 -0.56402949040E+03  0.56402949040E+03  0.00000000000E+00 0. -1.
         23    2    1    2    0    0  0.60655906859E+02  0.93565706691E+02 -0.38706841981E+03  0.41114108702E+03  0.82348960593E+02 0.  0.
         24    2    1    2    0    0 -0.15775413966E+03  0.24667277172E+02  0.12412075273E+03  0.21728988225E+03  0.79461239132E+02 0.  0.
        -11    1    4    4    0    0 -0.42854162904E+02  0.37172141973E+02  0.68746778900E+02  0.89131178754E+02  0.00000000000E+00 0.  1.
         12    1    4    4    0    0 -0.11489997676E+03 -0.12504864802E+02  0.55373973831E+02  0.12815870349E+03  0.00000000000E+00 0. -1.
        -13    1    3    3    0    0 -0.10539360379E+02  0.33810987074E+02 -0.48554478544E+02  0.60098239165E+02  0.00000000000E+00 0.  1.
         13    1    3    3    0    0  0.71195267238E+02  0.59754719617E+02 -0.33851394127E+03  0.35104284785E+03  0.00000000000E+00 0. -1.
         21    1    1    2  503  502 -0.28922450465E+02  0.46238713789E+01 -0.53000059975E+02  0.60554889850E+02  0.00000000000E+00 0.  1.
          1    1    1    2  501    0  0.12602068327E+03 -0.12285685524E+03  0.64223780722E+02  0.18734917534E+03  0.00000000000E+00 0. -1.
<scales pt_clust_5="13000.00000" pt_clust_6="13000.00000" pt_clust_7="13000.00000" pt_clust_8="13000.00000" pt_clust_9="29.28973" pt_clust_10="158.88509"></scales>
<clustering>
<clus scale="   29.290">  2  9  1 -1</clus>
<clus scale="   79.461">  5  6 -1 -1</clus>
<clus scale="   82.349">  7  8 -1 -1</clus>
<clus scale="  132.915">  2  7  1 -1</clus>
<clus scale="  158.885">  1 10  2 -1</clus>
<clus scale="  158.885">  1  5  2 -1</clus>
</clustering>
</event>
<event>
10    4  0.5389768E-005  0.1275495E+03  0.7546771E-02  0.1243801E+00
         21   -1    0    0  501  502  0.00000000000E+00  0.00000000000E+00  0.70765260491E+03  0.70765260491E+03  0.00000000000E+00 0.  1.
          2   -1    0    0  503    0 -0.00000000000E+00 -0.00000000000E+00 -0.14908725302E+03  0.14908725302E+03  0.00000000000E+00 0. -1.
         23    2    1    2    0    0  0.41351837193E+02 -0.24266708537E+02 -0.95071343482E+01  0.12395254463E+03  0.11390785809E+03 0.  0.
         24    2    1    2    0    0  0.60971910022E+02  0.49371841022E+02  0.88358889476E+02  0.14273820201E+03  0.80073394244E+02 0.  0.
        -11    1    4    4    0    0  0.47841975940E+02  0.31032235285E+02  0.10165388193E+03  0.11655627825E+03  0.00000000000E+00 0.  1.
         12    1    4    4    0    0  0.13129934082E+02  0.18339605737E+02 -0.13294992449E+02  0.26181923761E+02  0.00000000000E+00 0. -1.
        -13    1    3    3    0    0 -0.60120652591E+01  0.41771630540E+02 -0.58199062623E+01  0.42601471283E+02  0.00000000000E+00 0.  1.
         13    1    3    3    0    0  0.47363902452E+02 -0.66038339077E+02 -0.36872280859E+01  0.81351073345E+02  0.00000000000E+00 0. -1.
         21    1    1    2  503  502 -0.44430761882E+02 -0.94075996292E+02  0.21420867056E+01  0.10406235734E+03  0.00000000000E+00 0. -1.
          1    1    1    2  501    0 -0.57892985333E+02  0.68970863807E+02  0.47757151005E+03  0.48598675395E+03  0.00000000000E+00 0. -1.
<scales pt_clust_5="13000.00000" pt_clust_6="13000.00000" pt_clust_7="13000.00000" pt_clust_8="13000.00000" pt_clust_9="97.11407" pt_clust_10="90.04764"></scales>
<clustering>
<clus scale="   80.073">  5  6 -1 -1</clus>
<clus scale="   90.048">  1 10  2 -1</clus>
<clus scale="   97.114">  2  9  1 -1</clus>
<clus scale="   98.517">  1  5  2 -1</clus>
<clus scale="  113.908">  7  8 -1 -1</clus>
<clus scale="   90.048">  1  5  2 -1</clus>
</clustering>
</event>
<event>
10    4  0.5389768E-005  0.1080835E+03  0.7546771E-02  0.1267899E+00
         -3   -1    0    0    0  501 -0.00000000000E+00  0.00000000000E+00  0.25122383952E+03  0.25122383952E+03  0.00000000000E+00 0.  1.
         21   -1    0    0  501  502  0.00000000000E+00 -0.00000000000E+00 -0.10047398306E+03  0.10047398306E+03  0.00000000000E+00 0.  1.
         23    2    1    2    0    0  0.62075462030E+02  0.28794663632E+02  0.34727664635E+02  0.11926588780E+03  0.91300852465E+02 0.  0.
         24    2    1    2    0    0 -0.53220617489E+02  0.25963025503E+02  0.11444456819E+02  0.10193681433E+03  0.82180445997E+02 0.  0.
        -13    1    4    4    0    0 -0.47394118531E+02 -0.19110960816E+02  0.21413521944E+02  0.55407311943E+02  0.00000000000E+00 0.  1.
         14    1    4    4    0    0 -0.58264989581E+01  0.45073986319E+02 -0.99690651248E+01  0.46529502386E+02  0.00000000000E+00 0. -1.
        -11    1    3    3    0    0  0.31141327993E+02  0.40219764373E+02 -0.20581054801E+02  0.54872502878E+02  0.00000000000E+00 0.  1.
         11    1    3    3    0    0  0.30934134038E+02 -0.11425100741E+02  0.55308719435E+02  0.64393384918E+02  0.00000000000E+00 0. -1.
         21    1    1    2  503  502  0.34014451401E+01 -0.22695465557E+02  0.28412027823E+01  0.23124152291E+02  0.00000000000E+00 0. -1.
         -4    1    1    2    0  503 -0.12256289681E+02 -0.32062223577E+02  0.10173653222E+03  0.10737096817E+03  0.00000000000E+00 0.  1.
<scales pt_clust_5="13000.00000" pt_clust_6="13000.00000" pt_clust_7="13000.00000" pt_clust_8="13000.00000" pt_clust_9="22.94894" pt_clust_10="34.95002"></scales>
<clustering>
<clus scale="   22.949">  2  9  1 -1</clus>
<clus scale="   34.950">  2 10  1 -1</clus>
<clus scale="   82.180">  5  6 -1 -1</clus>
<clus scale="   91.301">  7  8 -1 -1</clus>
<clus scale="  100.498">  2  5  1 -1</clus>
<clus scale="   22.949">  2  5  1 -1</clus>
</clustering>
</event>
<event>
10    4  0.5389768E-005  0.1714035E+03  0.7546771E-02  0.1178393E+00
          2   -1    0    0  503    0 -0.00000000000E+00  0.00000000000E+00  0.55425619514E+03  0.55425619514E+03  0.00000000000E+00 0. -1.
         21   -1    0    0  501  502  0.00000000000E+00 -0.00000000000E+00 -0.86350182837E+02  0.86350182837E+02  0.00000000000E+00 0.  1.
         23    2    1    2    0    0  0.34229512163E+02  0.12456266517E+03  0.29348315345E+03  0.33446107090E+03  0.95101679971E+02 0.  0.
         24    2    1    2    0    0 -0.64131520307E+02 -0.13918460625E+03  0.13753748699E+03  0.22115100964E+03  0.80659793091E+02 0.  0.
        -13    1    4    4    0    0 -0.83120513780E+02 -0.11042193486E+03  0.10309469327E+03  0.17242546010E+03  0.00000000000E+00 0.  1.
         14    1    4    4    0    0  0.18988993474E+02 -0.28762671396E+02  0.34442793717E+02  0.48725549540E+02  0.00000000000E+00 0. -1.
        -13    1    3    3    0    0  0.29078634705E+02  0.36957521002E+02  0.20314110707E+03  0.20851315243E+03  0.00000000000E+00 0. -1.
         13    1    3    3    0    0  0.51508774573E+01  0.87605144164E+02  0.90342046373E+02  0.12594791846E+03  0.00000000000E+00 0.  1.
         21    1    1    2  503  502 -0.97713157923E+01  0.23347421412E+02  0.36443807002E+02  0.44370392918E+02  0.00000000000E+00 0.  1.
          1    1    1    2  501    0  0.39673323936E+02 -0.87254803236E+01  0.44156486501E+00  0.40623904522E+02  0.00000000000E+00 0. -1.
<scales pt_clust_5="13000.00000" pt_clust_6="13000.00000" pt_clust_7="13000.00000" pt_clust_8="13000.00000" pt_clust_9="25.30970" pt_clust_10="40.04832"></scales>
<clustering>
<clus scale="   25.310">  1  9  2 -1</clus>
<clus scale="   40.048">  2 10  1 -1</clus>
<clus scale="   80.660">  5  6 -1 -1</clus>
<clus scale="   95.102">  7  8 -1 -1</clus>
<clus scale="  163.832">  2  5  1 -1</clus>
<clus scale="   40.048">  2  5  1 -1</clus>
</clustering>
</event>
<event>
10    4  0.5389768E-005  0.1908248E+03  0.7546771E-02  0.1185759E+00
         21   -1    0    0  501  502  0.00000000000E+00  0.00000000000E+00  0.72279821744E+02  0.72279821744E+02  0.00000000000E+00 0.  1.
          2   -1    0    0  503    0 -0.00000000000E+00 -0.00000000000E+00 -0.10006142494E+04  0.10006142494E+04  0.00000000000E+00 0. -1.
         24    2    1    2    0    0  0.26939106339E+02 -0.55897547467E+02 -0.12117360003E+03  0.15570695424E+03  0.75573560132E+02 0.  0.
         23    2    1    2    0    0 -0.15216360582E+03  0.10399452114E+03 -0.27919715131E+03  0.34720206593E+03  0.92895650697E+02 0.  0.
        -11    1    3    3    0    0  0.32137648741E+02 -0.14630363500E+02 -0.95409603854E+01  0.36577396406E+02  0.00000000000E+00 0.  1.
         12    1    3    3    0    0 -0.51985424020E+01 -0.41267183967E+02 -0.11163263964E+03  0.11912955783E+03  0.00000000000E+00 0. -1.
        -13    1    4    4    0    0 -0.11455733443E+03  0.95417568124E+02 -0.26859605120E+03  0.30719982731E+03  0.00000000000E+00 0. -1.
         13    1    4    4    0    0 -0.37606271386E+02  0.85769530194E+01 -0.10601100112E+02  0.40002238615E+02  0.00000000000E+00 0.  1.
         21    1    1    2  503  502 -0.34063495533E+02 -0.43751491285E+02 -0.13678452625E+03  0.14759580393E+03  0.00000000000E+00 0.  1.
          1    1    1    2  501    0  0.15928799501E+03 -0.43454823919E+01 -0.39117915002E+03  0.42238924700E+03  0.00000000000E+00 0. -1.
<scales pt_clust_5="13000.00000" pt_clust_6="13000.00000" pt_clust_7="13000.00000" pt_clust_8="13000.00000" pt_clust_9="55.44831" pt_clust_10="166.68692"></scales>
<clustering>
<clus scale="   55.448">  2  9  1 -1</clus>
<clus scale="   75.574">  5  6 -1 -1</clus>
<clus scale="   92.896">  7  8 -1 -1</clus>
<clus scale="  100.670">  2  5  1 -1</clus>
<clus scale="  166.687">  1 10  2 -1</clus>
<clus scale="  166.687">  1  5  2 -1</clus>
</clustering>
</event>
<event>
10    4  0.5389768E-005  0.5673890E+03  0.7546771E-02  0.1017132E+00
          2   -1    0    0  503    0 -0.00000000000E+00  0.00000000000E+00  0.11165788155E+04  0.11165788155E+04  0.00000000000E+00 0. -1.
         21   -1    0    0  501  502  0.00000000000E+00 -0.00000000000E+00 -0.59877731301E+03  0.59877731301E+03  0.00000000000E+00 0.  1.
         23    2    1    2    0    0 -0.13460036042E+03  0.25016913916E+03 -0.11357458499E+03  0.32899323789E+03  0.12097730784E+03 0.  0.
         24    2    1    2    0    0 -0.99194368722E+01  0.42622455588E+03  0.37551239168E+03  0.57496466432E+03  0.88368782084E+02 0.  0.
        -11    1    4    4    0    0 -0.35142254807E+02  0.28592256257E+03  0.28984523600E+03  0.40865260392E+03  0.00000000000E+00 0.  1.
         12    1    4    4    0    0  0.25222817935E+02  0.14030199331E+03  0.85667155682E+02  0.16631206040E+03  0.00000000000E+00 0. -1.
        -11    1    3    3    0    0 -0.13354531608E+03  0.13748397763E+03 -0.44322402341E+02  0.19672486091E+03  0.00000000000E+00 0.  1.
         11    1    3    3    0    0 -0.10550443394E+01  0.11268516154E+03 -0.69252182649E+02  0.13226837699E+03  0.00000000000E+00 0. -1.
         21    1    1    2  503  502 -0.19867605038E+02 -0.98257896958E+01  0.10652237052E+03  0.10880387537E+03  0.00000000000E+00 0.  1.
          1    1    1    2  501    0  0.16438740233E+03 -0.66656790534E+03  0.14934132524E+03  0.70259435089E+03  0.00000000000E+00 0. -1.
<scales pt_clust_5="13000.00000" pt_clust_6="13000.00000" pt_clust_7="13000.00000" pt_clust_8="13000.00000" pt_clust_9="22.16456" pt_clust_10="560.46520"></scales>
<clustering>
<clus scale="   22.165">  1  9  2 -1</clus>
<clus scale="   88.369">  5  6 -1 -1</clus>
<clus scale="  120.977">  7  8 -1 -1</clus>
<clus scale="  308.851">  1  7  2 -1</clus>
<clus scale="  560.465">  2 10  1 -1</clus>
<clus scale="  560.465">  2  5  1 -1</clus>
</clustering>
</event>
<event>
10    4  0.5389768E-005  0.1026420E+03  0.7546771E-02  0.1283382E+00
          2   -1    0    0  503    0 -0.00000000000E+00  0.00000000000E+00  0.12579599953E+03  0.12579599953E+03  0.00000000000E+00 0. -1.
         21   -1    0    0  501  502  0.00000000000E+00 -0.00000000000E+00 -0.22623294029E+03  0.22623294029E+03  0.00000000000E+00 0. -1.
         24    2    1    2    0    0 -0.34828012158E+02 -0.47933985401E+02 -0.86586853923E+01  0.96664274372E+02  0.75883804068E+02 0.  0.
         23    2    1    2    0    0  0.37938089254E+02 -0.25335642880E+02 -0.92822078804E+02  0.13922715210E+03  0.93204442765E+02 0.  0.
        -13    1    3    3    0    0 -0.27380815781E+02 -0.39247946656E+01  0.27661949037E+02  0.39119004467E+02  0.00000000000E+00 0.  1.
         14    1    3    3    0    0 -0.74471963763E+01 -0.44009190736E+02 -0.36320634429E+02  0.57545269905E+02  0.00000000000E+00 0. -1.
        -11    1    4    4    0    0 -0.13908719499E+01 -0.22705923952E+02 -0.96960856231E+02  0.99593680263E+02  0.00000000000E+00 0.  1.
         11    1    4    4    0    0  0.39328961204E+02 -0.26297189276E+01  0.41387774274E+01  0.39633471834E+02  0.00000000000E+00 0. -1.
         21    1    1    2  503  502  0.14989068459E+02 -0.17566479422E+02 -0.37361347081E+01  0.23392564526E+02  0.00000000000E+00 0. -1.
          1    1    1    2  501    0 -0.18099145555E+02  0.90836107703E+02  0.47799581467E+01  0.92744948824E+02  0.00000000000E+00 0. -1.
<scales pt_clust_5="13000.00000" pt_clust_6="13000.00000" pt_clust_7="13000.00000" pt_clust_8="13000.00000" pt_clust_9="23.09228" pt_clust_10="84.27940"></scales>
<clustering>
<clus scale="   23.092">  1  9  2 -1</clus>
<clus scale="   75.884">  5  6 -1 -1</clus>
<clus scale="   84.279">  2 10  1 -1</clus>
<clus scale="   87.216">  1  5  2 -1</clus>
<clus scale="   93.204">  7  8 -1 -1</clus>
<clus scale="   84.279">  2  5  1 -1</clus>
</clustering>
</event>
<event>
10    4  0.5389768E-005  0.1425359E+03  0.7546771E-02  0.1212223E+00
          2   -1    0    0  503    0 -0.00000000000E+00  0.00000000000E+00  0.10471191134E+04  0.10471191134E+04  0.00000000000E+00 0. -1.
         21   -1    0    0  501  502  0.00000000000E+00 -0.00000000000E+00 -0.49909719133E+02  0.49909719133E+02  0.00000000000E+00 0.  1.
         23    2    1    2    0    0  0.89391291212E+02  0.68405425230E+02  0.58462110451E+03  0.60237902280E+03  0.91698124987E+02 0.  0.
         24    2    1    2    0    0 -0.64326761138E+02 -0.10790479407E+03  0.13808735537E+03  0.20343801373E+03  0.80854999456E+02 0.  0.
        -11    1    4    4    0    0 -0.23809766162E+02 -0.59161551372E+02  0.12259187502E+03  0.13818741602E+03  0.00000000000E+00 0.  1.
         12    1    4    4    0    0 -0.40516994977E+02 -0.48743242696E+02  0.15495480349E+02  0.65250597711E+02  0.00000000000E+00 0. -1.
        -13    1    3    3    0    0 -0.13808598440E+02  0.31848514202E+02  0.17286745067E+03  0.17631835057E+03  0.00000000000E+00 0.  1.
         13    1    3    3    0    0  0.10319988965E+03  0.36556911028E+02  0.41175365384E+03  0.42606067223E+03  0.00000000000E+00 0. -1.
         21    1    1    2  503  502  0.52768224158E+01 -0.22152627137E+02  0.11968113444E+03  0.12182839441E+03  0.00000000000E+00 0.  1.
          1    1    1    2  501    0 -0.30341352490E+02  0.61651995974E+02  0.15481979995E+03  0.16938340159E+03  0.00000000000E+00 0. -1.
<scales pt_clust_5="13000.00000" pt_clust_6="13000.00000" pt_clust_7="13000.00000" pt_clust_8="13000.00000" pt_clust_9="22.77243" pt_clust_10="64.83393"></scales>
<clustering>
<clus scale="   22.772">  1  9  2 -1</clus>
<clus scale="   64.834">  2 10  1 -1</clus>
<clus scale="   80.855">  5  6 -1 -1</clus>
<clus scale="   91.698">  7  8 -1 -1</clus>
<clus scale="  135.814">  2  5  1 -1</clus>
<clus scale="   64.834">  2  5  1 -1</clus>
</clustering>
</event>
<event>
10    4  0.5389768E-005  0.1720142E+03  0.7546771E-02  0.1189581E+00
         21   -1    0    0  503  502  0.00000000000E+00  0.00000000000E+00  0.99026406272E+02  0.99026406272E+02  0.00000000000E+00 0.  1.
         -3   -1    0    0    0  501 -0.00000000000E+00 -0.00000000000E+00 -0.79621669484E+03  0.79621669484E+03  0.00000000000E+00 0.  1.
         24    2    1    2    0    0 -0.67698490075E+02  0.32801253628E+02 -0.35603648670E+03  0.37298059711E+03  0.81814046225E+02 0.  0.
         23    2    1    2    0    0 -0.85651995376E+02 -0.56760078060E+02 -0.14066012352E+03  0.19700180004E+03  0.92013412595E+02 0.  0.
        -13    1    3    3    0    0 -0.60989158764E+02  0.57826655874E+02 -0.24696750797E+03  0.26087650260E+03  0.00000000000E+00 0.  1.
         14    1    3    3    0    0 -0.67093313115E+01 -0.25025402246E+02 -0.10906897873E+03  0.11210409451E+03  0.00000000000E+00 0. -1.
        -11    1    4    4    0    0 -0.71569134204E+02 -0.81099173225E+02 -0.12301453730E+03  0.16380413077E+03  0.00000000000E+00 0.  1.
         11    1    4    4    0    0 -0.14082861172E+02  0.24339095165E+02 -0.17645586213E+02  0.33197669271E+02  0.00000000000E+00 0. -1.
         21    1    1    2  503  501 -0.40464180531E+02  0.74821956105E+01 -0.96019430062E+02  0.10446561208E+03  0.00000000000E+00 0. -1.
         -4    1    1    2    0  502  0.19381466598E+03  0.16476628822E+02 -0.10447424829E+03  0.22079509189E+03  0.00000000000E+00 0.  1.
<scales pt_clust_5="13000.00000" pt_clust_6="13000.00000" pt_clust_7="13000.00000" pt_clust_8="13000.00000" pt_clust_9="41.15013" pt_clust_10="145.33565"></scales>
<clustering>
<clus scale="   41.150">  2  9  1 -1</clus>
<clus scale="   81.814">  5  6 -1 -1</clus>
<clus scale="   92.013">  7  8 -1 -1</clus>
<clus scale="  126.268">  2  5  1 -1</clus>
<clus scale="  145.336">  1 10  2 -1</clus>
<clus scale="  145.336">  1  5  2 -1</clus>
</clustering>
</event>
<event>
10    4  0.5389768E-005  0.1392045E+03  0.7546771E-02  0.1216956E+00
         21   -1    0    0  501  502  0.00000000000E+00  0.00000000000E+00  0.22446882832E+03  0.22446882832E+03  0.00000000000E+00 0.  1.
          4   -1    0    0  503    0 -0.00000000000E+00 -0.00000000000E+00 -0.52021724712E+03  0.52021724712E+03  0.00000000000E+00 0. -1.
         24    2    1    2    0    0 -0.54738236580E+02 -0.12653569949E+03 -0.20801723959E+03  0.26205718525E+03  0.79970235602E+02 0.  0.
         23    2    1    2    0    0  0.73257384521E+02  0.75233056700E+02  0.15597885429E+03  0.20912840334E+03  0.91534850694E+02 0.  0.
        -11    1    3    3    0    0  0.18877213590E+02 -0.38615099665E+02 -0.74930684769E+02  0.86383346978E+02  0.00000000000E+00 0.  1.
         12    1    3    3    0    0 -0.73615450171E+02 -0.87920599828E+02 -0.13308655482E+03  0.17567383827E+03  0.00000000000E+00 0. -1.
        -11    1    4    4    0    0  0.54402807199E+02 -0.44808599990E+01  0.83461420202E+02  0.99727389416E+02  0.00000000000E+00 0. -1.
         11    1    4    4    0    0  0.18854577322E+02  0.79713916699E+02  0.72517434086E+02  0.10940101393E+03  0.00000000000E+00 0.  1.
         21    1    1    2  503  502  0.20929764236E+02  0.35781839029E+02 -0.22206683303E+03  0.22590279628E+03  0.00000000000E+00 0. -1.
          3    1    1    2  501    0 -0.39448912176E+02  0.15520803764E+02 -0.21643200464E+02  0.47597690571E+02  0.00000000000E+00 0. -1.
<scales pt_clust_5="13000.00000" pt_clust_6="13000.00000" pt_clust_7="13000.00000" pt_clust_8="13000.00000" pt_clust_9="41.45353" pt_clust_10="41.92143"></scales>
<clustering>
<clus scale="   41.454">  2  9  1 -1</clus>
<clus scale="   41.921">  1 10  2 -1</clus>
<clus scale="   79.970">  5  6 -1 -1</clus>
<clus scale="   91.535">  7  8 -1 -1</clus>
<clus scale="  131.888">  2  5  1 -1</clus>
<clus scale="   41.921">  1  5  2 -1</clus>
</clustering>
</event>
<event>
10    4  0.5389768E-005  0.1203183E+03  0.7546771E-02  0.1245784E+00
          2   -1    0    0  503    0 -0.00000000000E+00  0.00000000000E+00  0.23910519949E+02  0.23910519949E+02  0.00000000000E+00 0. -1.
         21   -1    0    0  501  502  0.00000000000E+00 -0.00000000000E+00 -0.11953437246E+04  0.11953437246E+04  0.00000000000E+00 0.  1.
         24    2    1    2    0    0  0.53195613588E+02  0.19959638926E+02 -0.48739988133E+03  0.49861313331E+03  0.88477408994E+02 0.  0.
         23    2    1    2    0    0 -0.85830053534E+02 -0.12717450541E+02 -0.61823404853E+03  0.63192476302E+03  0.97913409335E+02 0.  0.
        -11    1    3    3    0    0  0.73849325846E+02  0.93110654871E+00 -0.40158864503E+03  0.40832343762E+03  0.00000000000E+00 0.  1.
         12    1    3    3    0    0 -0.20653712259E+02  0.19028532377E+02 -0.85811236296E+02  0.90289695697E+02  0.00000000000E+00 0. -1.
        -13    1    4    4    0    0 -0.10423899576E+03 -0.23538869356E+02 -0.55464735389E+03  0.56484823961E+03  0.00000000000E+00 0.  1.
         13    1    4    4    0    0  0.18408942228E+02  0.10821418815E+02 -0.63586694633E+02  0.67076523416E+02  0.00000000000E+00 0. -1.
         21    1    1    2  503  502  0.11050116497E+02 -0.24069790564E+02 -0.51325336268E+02  0.57755952381E+02  0.00000000000E+00 0. -1.
          1    1    1    2  501    0  0.21584323450E+02  0.16827602180E+02 -0.14473938541E+02  0.30960395844E+02  0.00000000000E+00 0. -1.
<scales pt_clust_5="13000.00000" pt_clust_6="13000.00000" pt_clust_7="13000.00000" pt_clust_8="13000.00000" pt_clust_9="26.48509" pt_clust_10="26.97557"></scales>
<clustering>
<clus scale="   26.485">  1  9  2 -1</clus>
<clus scale="   26.976">  2 10  1 -1</clus>
<clus scale="   88.477">  5  6 -1 -1</clus>
<clus scale="   97.913">  7  8 -1 -1</clus>
<clus scale="  112.773">  1  5  2 -1</clus>
<clus scale="   26.976">  2  5  1 -1</clus>
</clustering>
</event>
<event>
10    4  0.5389768E-005  0.1671591E+03  0.7546771E-02  0.1208433E+00
         -3   -1    0    0    0  501 -0.00000000000E+00  0.00000000000E+00  0.13539658552E+03  0.13539658552E+03  0.00000000000E+00 0.  1.
         21   -1    0    0  503  502  0.00000000000E+00 -0.00000000000E+00 -0.51392317788E+03  0.51392317788E+03  0.00000000000E+00 0. -1.
         23    2    1    2    0    0  0.12081437044E+01 -0.75376968210E+00 -0.54810362071E+02  0.10495098100E+03  0.89490249991E+02 0.  0.
         24    2    1    2    0    0  0.65380831568E+02  0.14715041089E+03 -0.26069740475E+03  0.31696722738E+03  0.81099875632E+02 0.  0.
        -13    1    4    4    0    0  0.24762289343E+02 -0.26808502347E+01 -0.40591047205E+02  0.47623429577E+02  0.00000000000E+00 0.  1.
         14    1    4    4    0    0  0.40618542225E+02  0.14983126113E+03 -0.22010635755E+03  0.26934379781E+03  0.00000000000E+00 0. -1.
        -11    1    3    3    0    0  0.27145924688E+02  0.35506039456E+02 -0.31161565923E+02  0.54485073697E+02  0.00000000000E+00 0.  1.
         11    1    3    3    0    0 -0.25937780983E+02 -0.36259809138E+02 -0.23648796147E+02  0.50465907307E+02  0.00000000000E+00 0. -1.
         21    1    1    2  503  501  0.27615609386E+02 -0.52360875351E+02  0.28667889911E+02  0.65773330927E+02  0.00000000000E+00 0.  1.
         -4    1    1    2    0  502 -0.94204584659E+02 -0.94035765858E+02 -0.91686715446E+02  0.16162822408E+03  0.00000000000E+00 0.  1.
<scales pt_clust_5="13000.00000" pt_clust_6="13000.00000" pt_clust_7="13000.00000" pt_clust_8="13000.00000" pt_clust_9="59.19699" pt_clust_10="146.16774"></scales>
<clustering>
<clus scale="   59.197">  1  9  2 -1</clus>
<clus scale="   81.100">  5  6 -1 -1</clus>
<clus scale="   89.490">  7  8 -1 -1</clus>
<clus scale="   91.297">  1  7  2 -1</clus>
<clus scale="  146.168">  2 10  1 -1</clus>
<clus scale="  146.168">  2  5  1 -1</clus>
</clustering>
</event>
<event>
10    4  0.5389768E-005  0.2669618E+03  0.7546771E-02  0.1127823E+00
         21   -1    0    0  503  502  0.00000000000E+00  0.00000000000E+00  0.83961357897E+03  0.83961357897E+03  0.00000000000E+00 0.  1.
         -1   -1    0    0    0  501 -0.00000000000E+00 -0.00000000000E+00 -0.29449178614E+03  0.29449178614E+03  0.00000000000E+00 0.  1.
         23    2    1    2    0    0 -0.10647224274E+03 -0.38095116481E+02  0.11231858566E+03  0.18287204594E+03  0.89661274412E+02 0.  0.
         24    2    1    2    0    0  0.34305752132E+03 -0.24071146153E+02  0.19538563347E+02  0.35365519202E+03  0.80139605537E+02 0.  0.
        -11    1    4    4    0    0  0.30871817945E+03  0.38218305156E+01  0.20297642931E+02  0.30940833056E+03  0.00000000000E+00 0.  1.
         12    1    4    4    0    0  0.34339341870E+02 -0.27892976668E+02 -0.75907958415E+00  0.44246861463E+02  0.00000000000E+00 0. -1.
        -13    1    3    3    0    0 -0.68974711933E+02  0.17331980646E+02  0.31062107708E+02  0.77606462196E+02  0.00000000000E+00 0.  1.
         13    1    3    3    0    0 -0.37497530805E+02 -0.55427097127E+02  0.81256477947E+02  0.10526558374E+03  0.00000000000E+00 0. -1.
         21    1    1    2  503  501  0.12776324694E+01  0.35068682702E+02 -0.58687501432E+02  0.68378854008E+02  0.00000000000E+00 0.  1.
         -2    1    1    2    0  502 -0.23786291105E+03  0.27097579932E+02  0.47195214525E+03  0.52919927315E+03  0.00000000000E+00 0.  1.
<scales pt_clust_5="13000.00000" pt_clust_6="13000.00000" pt_clust_7="13000.00000" pt_clust_8="13000.00000" pt_clust_9="35.09195" pt_clust_10="254.64922"></scales>
<clustering>
<clus scale="   35.092">  2  9  1 -1</clus>
<clus scale="   80.140">  5  6 -1 -1</clus>
<clus scale="   89.661">  7  8 -1 -1</clus>
<clus scale="  142.849">  2  7  1 -1</clus>
<clus scale="  254.649">  1 10  2 -1</clus>
<clus scale="  254.649">  1  5  2 -1</clus>
</clustering>
</event>
<event>
10    4  0.5389768E-005  0.3556777E+03  0.7546771E-02  0.1112065E+00
         21   -1    0    0  501  502  0.00000000000E+00  0.00000000000E+00  0.71547405276E+03  0.71547405276E+03  0.00000000000E+00 0. -1.
          2   -1    0    0  503    0 -0.00000000000E+00 -0.00000000000E+00 -0.43278536467E+03  0.43278536467E+03  0.00000000000E+00 0. -1.
         24    2    1    2    0    0  0.35139969739E+02  0.87537842912E+01  0.44125350438E+02  0.98961100171E+02  0.80838150542E+02 0.  0.
         23    2    1    2    0    0  0.83712398088E+02 -0.32457252565E+03 -0.13007054936E+03  0.37196519838E+03  0.95313540466E+02 0.  0.
        -13    1    3    3    0    0  0.32161211566E+02 -0.20048368696E+02 -0.85509180971E+01  0.38850982190E+02  0.00000000000E+00 0.  1.
         14    1    3    3    0    0  0.29787581728E+01  0.28802152987E+02  0.52676268535E+02  0.60110117981E+02  0.00000000000E+00 0. -1.
        -13    1    4    4    0    0  0.90992287713E+02 -0.16421930936E+03 -0.63520831299E+02  0.19819806759E+03  0.00000000000E+00 0.  1.
         13    1    4    4    0    0 -0.72798896252E+01 -0.16035321629E+03 -0.66549718061E+02  0.17376713079E+03  0.00000000000E+00 0. -1.
         21    1    1    2  503  502  0.29298389082E+02  0.36796829174E+01 -0.94790493502E+02  0.99283298331E+02  0.00000000000E+00 0.  1.
          1    1    1    2  501    0 -0.14815075691E+03  0.31213905844E+03  0.46342438052E+03  0.57804982055E+03  0.00000000000E+00 0. -1.
<scales pt_clust_5="13000.00000" pt_clust_6="13000.00000" pt_clust_7="13000.00000" pt_clust_8="13000.00000" pt_clust_9="29.52856" pt_clust_10="342.66892"></scales>
<clustering>
<clus scale="   29.529">  2  9  1 -1</clus>
<clus scale="   80.838">  5  6 -1 -1</clus>
<clus scale="   89.585">  2  5  1 -1</clus>
<clus scale="   95.314">  7  8 -1 -1</clus>
<clus scale="  342.669">  1 10  2 -1</clus>
<clus scale="  342.669">  1  5  2 -1</clus>
</clustering>
</event>
<event>
10    4  0.5389768E-005  0.3351072E+03  0.7546771E-02  0.1068911E+00
          2   -1    0    0  503    0 -0.00000000000E+00  0.00000000000E+00  0.56231077225E+03  0.56231077225E+03  0.00000000000E+00 0. -1.
         21   -1    0    0  501  502  0.00000000000E+00 -0.00000000000E+00 -0.66396137573E+03  0.66396137573E+03  0.00000000000E+00 0.  1.
         24    2    1    2    0    0  0.17982615021E+03  0.34082663586E+03  0.14918593365E+03  0.42321311877E+03  0.91392894093E+02 0.  0.
         23    2    1    2    0    0  0.85260356142E+02 -0.29074048548E+03  0.95486277493E+01  0.31672337564E+03  0.91777786842E+02 0.  0.
        -11    1    3    3    0    0  0.14889453888E+03  0.24447059285E+03  0.69902822108E+02  0.29465549208E+03  0.00000000000E+00 0.  1.
         12    1    3    3    0    0  0.30931611337E+02  0.96356043003E+02  0.79283111544E+02  0.12855762669E+03  0.00000000000E+00 0. -1.
        -13    1    4    4    0    0  0.69667551358E+02 -0.13504328163E+03 -0.30987125679E+02  0.15508209949E+03  0.00000000000E+00 0.  1.
         13    1    4    4    0    0  0.15592804783E+02 -0.15569720385E+03  0.40535753428E+02  0.16164127614E+03  0.00000000000E+00 0. -1.
         21    1    1    2  503  502  0.21958103421E+02  0.85043386123E+01  0.52600840056E+02  0.57630985205E+02  0.00000000000E+00 0.  1.
          1    1    1    2  501    0 -0.28704460977E+03 -0.58590488991E+02 -0.31298600493E+03  0.42870466837E+03  0.00000000000E+00 0. -1.
<scales pt_clust_5="13000.00000" pt_clust_6="13000.00000" pt_clust_7="13000.00000" pt_clust_8="13000.00000" pt_clust_9="23.54744" pt_clust_10="290.31524"></scales>
<clustering>
<clus scale="   23.547">  1  9  2 -1</clus>
<clus scale="   91.393">  5  6 -1 -1</clus>
<clus scale="   91.778">  7  8 -1 -1</clus>
<clus scale="  290.315">  2 10  1 -1</clus>
<clus scale="  335.002">  1  5  2 -1</clus>
<clus scale="  290.315">  2  5  1 -1</clus>
</clustering>
</event>
<event>
10    4  0.5389768E-005  0.1639567E+03  0.7546771E-02  0.1186194E+00
         -1   -1    0    0    0  501 -0.00000000000E+00  0.00000000000E+00  0.32470119925E+03  0.32470119925E+03  0.00000000000E+00 0.  1.
         21   -1    0    0  503  502  0.00000000000E+00 -0.00000000000E+00 -0.30796589289E+03  0.30796589289E+03  0.00000000000E+00 0. -1.
         23    2    1    2    0    0 -0.15847480629E+03  0.29415008897E+02  0.11796167242E+02  0.18561096104E+03  0.91284020080E+02 0.  0.
         24    2    1    2    0    0  0.11011567898E+03  0.28198070621E+02 -0.17860808671E+03  0.22578786415E+03  0.78477493695E+02 0.  0.
        -11    1    4    4    0    0  0.68410952109E+02  0.14458585985E+02 -0.40360572872E+02  0.80734657488E+02  0.00000000000E+00 0.  1.
         12    1    4    4    0    0  0.41704726868E+02  0.13739484635E+02 -0.13824751383E+03  0.14505320666E+03  0.00000000000E+00 0. -1.
        -11    1    3    3    0    0 -0.91289795312E+02  0.16238186290E+01  0.49340714977E+02  0.10378328223E+03  0.00000000000E+00 0.  1.
         11    1    3    3    0    0 -0.67185010976E+02  0.27791190268E+02 -0.37544547735E+02  0.81827678819E+02  0.00000000000E+00 0. -1.
         21    1    1    2  503  501  0.19579248409E+02 -0.52042751682E+02  0.18372382922E+03  0.19195374545E+03  0.00000000000E+00 0.  1.
         -2    1    1    2    0  502  0.28779878902E+02 -0.55703278351E+01 -0.17660338661E+00  0.29314521496E+02  0.00000000000E+00 0.  1.
<scales pt_clust_5="13000.00000" pt_clust_6="13000.00000" pt_clust_7="13000.00000" pt_clust_8="13000.00000" pt_clust_9="55.82039" pt_clust_10="29.31399"></scales>
<clustering>
<clus scale="   29.314">  2 10  1 -1</clus>
<clus scale="   55.820">  1  9  2 -1</clus>
<clus scale="   78.477">  5  6 -1 -1</clus>
<clus scale="   91.284">  7  8 -1 -1</clus>
<clus scale="  157.187">  2  5  1 -1</clus>
<clus scale="   29.314">  2  5  1 -1</clus>
</clustering>
</event>
<event>
10    4  0.5389768E-005  0.9698043E+02  0.7546771E-02  0.1293015E+00
          2   -1    0    0  503    0 -0.00000000000E+00  0.00000000000E+00  0.20966631925E+03  0.20966631925E+03  0.00000000000E+00 0. -1.
         21   -1    0    0  501  502  0.00000000000E+00 -0.00000000000E+00 -0.18145690924E+03  0.18145690924E+03  0.00000000000E+00 0.  1.
         24    2    1    2    0    0  0.12422573572E+02  0.21902978579E+02  0.59206438647E+02  0.10369958390E+03  0.81327366364E+02 0.  0.
         23    2    1    2    0    0 -0.81527036077E+02 -0.24780969588E+02 -0.86775291912E+02  0.15285638176E+03  0.92597883844E+02 0.  0.
        -13    1    3    3    0    0  0.65148638947E+01 -0.29416273152E+02  0.36343503408E+02  0.47208164735E+02  0.00000000000E+00 0.  1.
         14    1    3    3    0    0  0.59077096771E+01  0.51319251731E+02  0.22862935239E+02  0.56491419167E+02  0.00000000000E+00 0. -1.
        -11    1    4    4    0    0 -0.89193771142E+02 -0.47636423493E+02 -0.75770072147E+02  0.12635609003E+03  0.00000000000E+00 0.  1.
         11    1    4    4    0    0  0.76667350650E+01  0.22855453905E+02 -0.11005219765E+02  0.26500291731E+02  0.00000000000E+00 0. -1.
         21    1    1    2  503  502 -0.23856325736E+02  0.57526623289E+01  0.28572977201E+02  0.37664737190E+02  0.00000000000E+00 0. -1.
          1    1    1    2  501    0  0.92960788241E+02 -0.28746713193E+01  0.27205286072E+02  0.96902525642E+02  0.00000000000E+00 0. -1.
<scales pt_clust_5="13000.00000" pt_clust_6="13000.00000" pt_clust_7="13000.00000" pt_clust_8="13000.00000" pt_clust_9="24.54012" pt_clust_10="84.57997"></scales>
<clustering>
<clus scale="   24.540">  1  9  2 -1</clus>
<clus scale="   81.327">  5  6 -1 -1</clus>
<clus scale="   84.580">  2 10  1 -1</clus>
<clus scale="   86.284">  1  5  2 -1</clus>
<clus scale="   92.598">  7  8 -1 -1</clus>
<clus scale="   84.580">  2  5  1 -1</clus>
</clustering>
</event>
<event>
10    4  0.5389768E-005  0.1461380E+03  0.7546771E-02  0.1207671E+00
         -1   -1    0    0    0  501 -0.00000000000E+00  0.00000000000E+00  0.79925038107E+03  0.79925038107E+03  0.00000000000E+00 0.  1.
         21   -1    0    0  503  502  0.00000000000E+00 -0.00000000000E+00 -0.69778817552E+02  0.69778817552E+02  0.00000000000E+00 0.  1.
         23    2    1    2    0    0  0.57000902901E+02  0.12967711126E+03  0.28521064596E+03  0.33149108658E+03  0.92065041128E+02 0.  0.
         24    2    1    2    0    0 -0.73233229790E+02 -0.40904635996E+02  0.63465601064E+02  0.13218234931E+03  0.80049957899E+02 0.  0.
        -11    1    4    4    0    0 -0.83463507165E+02 -0.16415827460E+02  0.31672275374E+02  0.90767667409E+02  0.00000000000E+00 0.  1.
         12    1    4    4    0    0  0.10230277375E+02 -0.24488808536E+02  0.31793325690E+02  0.41414681903E+02  0.00000000000E+00 0. -1.
        -11    1    3    3    0    0  0.38927022735E+02  0.75982232453E+02  0.25143100651E+03  0.26552996776E+03  0.00000000000E+00 0. -1.
         11    1    3    3    0    0  0.18073880166E+02  0.53694878806E+02  0.33779639456E+02  0.65961118820E+02  0.00000000000E+00 0.  1.
         21    1    1    2  503  501 -0.19849197124E+02  0.17527108911E+02  0.64126692430E+02  0.69378835788E+02  0.00000000000E+00 0. -1.
         -2    1    1    2    0  502  0.36081524014E+02 -0.10629958417E+03  0.31666862406E+03  0.33597692694E+03  0.00000000000E+00 0.  1.
<scales pt_clust_5="13000.00000" pt_clust_6="13000.00000" pt_clust_7="13000.00000" pt_clust_8="13000.00000" pt_clust_9="26.48000" pt_clust_10="102.18863"></scales>
<clustering>
<clus scale="   26.480">  1  9  2 -1</clus>
<clus scale="   80.050">  5  6 -1 -1</clus>
<clus scale="   92.065">  7  8 -1 -1</clus>
<clus scale="  102.189">  2 10  1 -1</clus>
<clus scale="  138.882">  2  5  1 -1</clus>
<clus scale="  102.189">  2  5  1 -1</clus>
</clustering>
</event>
<event>
10    4  0.5389768E-005  0.1647517E+03  0.7546771E-02  0.1190256E+00
          2   -1    0    0  503    0 -0.00000000000E+00  0.00000000000E+00  0.44268025484E+03  0.44268025484E+03  0.00000000000E+00 0. -1.
         21   -1    0    0  501  502  0.00000000000E+00 -0.00000000000E+00 -0.14540048730E+03  0.14540048730E+03  0.00000000000E+00 0. -1.
         24    2    1    2    0    0  0.52588258920E+02 -0.14968556591E+03  0.17072579752E+03  0.24631350333E+03  0.79697869273E+02 0.  0.
         23    2    1    2    0    0 -0.47836128097E+02  0.25854013321E+02 -0.30309423136E+02  0.13162050014E+03  0.11596796872E+03 0.  0.
        -11    1    3    3    0    0  0.33451278350E+02 -0.27651081113E+02  0.86585850000E+02  0.96853909215E+02  0.00000000000E+00 0.  1.
         12    1    3    3    0    0  0.19136980571E+02 -0.12203448479E+03  0.84139947517E+02  0.14945959411E+03  0.00000000000E+00 0. -1.
        -11    1    4    4    0    0  0.30979011362E+02  0.28769393415E+02 -0.31533123424E+02  0.52741966358E+02  0.00000000000E+00 0. -1.
         11    1    4    4    0    0 -0.78815139459E+02 -0.29153800936E+01  0.12237002880E+01  0.78878533781E+02  0.00000000000E+00 0.  1.
         21    1    1    2  503  502 -0.12478540554E+02  0.17065501980E+02  0.67403955898E+02  0.70641620896E+02  0.00000000000E+00 0. -1.
          1    1    1    2  501    0  0.77264097310E+01  0.10676605061E+03  0.89459437266E+02  0.13950511778E+03  0.00000000000E+00 0. -1.
<scales pt_clust_5="13000.00000" pt_clust_6="13000.00000" pt_clust_7="13000.00000" pt_clust_8="13000.00000" pt_clust_9="21.14108" pt_clust_10="112.06268"></scales>
<clustering>
<clus scale="   21.141">  1  9  2 -1</clus>
<clus scale="   79.698">  5  6 -1 -1</clus>
<clus scale="  112.063">  2 10  1 -1</clus>
<clus scale="  115.968">  7  8 -1 -1</clus>
<clus scale="  141.585">  1  5  2 -1</clus>
<clus scale="  112.063">  2  5  1 -1</clus>
</clustering>
</event>
<event>
10    4  0.5389768E-005  0.1386730E+03  0.7546771E-02  0.1217351E+00
         21   -1    0    0  501  502  0.00000000000E+00  0.00000000000E+00  0.78559516326E+02  0.78559516326E+02  0.00000000000E+00 0.  1.
          2   -1    0    0  503    0 -0.00000000000E+00 -0.00000000000E+00 -0.71781915990E+03  0.71781915990E+03  0.00000000000E+00 0. -1.
         23    2    1    2    0    0 -0.47635653840E+02  0.11082129210E+03 -0.28049298951E+03  0.31859613605E+03  0.90976186128E+02 0.  0.
         24    2    1    2    0    0  0.89045336887E+02 -0.91790723959E+01 -0.40147178579E+02  0.12718435320E+03  0.80936619402E+02 0.  0.
        -13    1    4    4    0    0  0.55438749715E+02 -0.41280059838E+02 -0.57361349395E+01  0.69357058432E+02  0.00000000000E+00 0.  1.
         14    1    4    4    0    0  0.33606587171E+02  0.32100987442E+02 -0.34411043640E+02  0.57827294770E+02  0.00000000000E+00 0. -1.
        -13    1    3    3    0    0 -0.93685594956E+00  0.99295960148E+02 -0.21951800112E+03  0.24093301603E+03  0.00000000000E+00 0.  1.
         13    1    3    3    0    0 -0.46698797890E+02  0.11525331948E+02 -0.60974988392E+02  0.77663120014E+02  0.00000000000E+00 0. -1.
         21    1    1    2  503  502 -0.22629537231E+02  0.13767940788E+02 -0.89928046350E+02  0.93748096883E+02  0.00000000000E+00 0.  1.
          1    1    1    2  501    0 -0.18780145816E+02 -0.11541016049E+03 -0.22869142913E+03  0.25685009009E+03  0.00000000000E+00 0. -1.
<scales pt_clust_5="13000.00000" pt_clust_6="13000.00000" pt_clust_7="13000.00000" pt_clust_8="13000.00000" pt_clust_9="26.48872" pt_clust_10="113.46766"></scales>
<clustering>
<clus scale="   26.489">  2  9  1 -1</clus>
<clus scale="   80.937">  5  6 -1 -1</clus>
<clus scale="   90.976">  7  8 -1 -1</clus>
<clus scale="  113.468">  1 10  2 -1</clus>
<clus scale="  132.304">  1  5  2 -1</clus>
<clus scale="  113.468">  1  5  2 -1</clus>
</clustering>
</event>
<event>
10    4  0.5389768E-005  0.9243796E+02  0.7546771E-02  0.1303541E+00
          2   -1    0    0  503    0 -0.00000000000E+00  0.00000000000E+00  0.64034909448E+03  0.64034909448E+03  0.00000000000E+00 0. -1.
         21   -1    0    0  501  502  0.00000000000E+00 -0.00000000000E+00 -0.22802405590E+02  0.22802405590E+02  0.00000000000E+00 0. -1.
         23    2    1    2    0    0  0.10694627475E+02  0.13311081390E+02  0.28400934436E+03  0.29868300516E+03  0.90877224569E+02 0.  0.
         24    2    1    2    0    0  0.14521955720E+02 -0.21454099755E+02  0.18256488744E+03  0.20110330753E+03  0.80258560762E+02 0.  0.
        -11    1    4    4    0    0 -0.16368404439E+02  0.12598199812E+02  0.10833067989E+02  0.23323693199E+02  0.00000000000E+00 0.  1.
         12    1    4    4    0    0  0.30890360159E+02 -0.34052299567E+02  0.17173181946E+03  0.17777961433E+03  0.00000000000E+00 0. -1.
        -11    1    3    3    0    0  0.10576023626E+02  0.51823266285E+02  0.14152119315E+03  0.15108193577E+03  0.00000000000E+00 0. -1.
         11    1    3    3    0    0  0.11860384903E+00 -0.38512184895E+02  0.14248815121E+03  0.14760106939E+03  0.00000000000E+00 0.  1.
         21    1    1    2  503  502 -0.21842366544E+02  0.30639413567E+02  0.72789248655E+02  0.81939839880E+02  0.00000000000E+00 0. -1.
          1    1    1    2  501    0 -0.33742166512E+01 -0.22496395202E+02  0.78183208434E+02  0.81425347504E+02  0.00000000000E+00 0. -1.
<scales pt_clust_5="13000.00000" pt_clust_6="13000.00000" pt_clust_7="13000.00000" pt_clust_8="13000.00000" pt_clust_9="34.26472" pt_clust_10="22.74805"></scales>
<clustering>
<clus scale="   22.748">  2 10  1 -1</clus>
<clus scale="   34.265">  2  9  1 -1</clus>
<clus scale="   80.259">  5  6 -1 -1</clus>
<clus scale="   82.022">  2  5  1 -1</clus>
<clus scale="   90.877">  7  8 -1 -1</clus>
<clus scale="   22.748">  2  5  1 -1</clus>
</clustering>
</event>
<event>
10    4  0.5389768E-005  0.1110278E+03  0.7546771E-02  0.1260104E+00
          2   -1    0    0  503    0 -0.00000000000E+00  0.00000000000E+00  0.93077277347E+03  0.93077277347E+03  0.00000000000E+00 0. -1.
         21   -1    0    0  501  502  0.00000000000E+00 -0.00000000000E+00 -0.79407804861E+02  0.79407804861E+02  0.00000000000E+00 0. -1.
         24    2    1    2    0    0 -0.31888221016E+02  0.41683203245E+02  0.75605907946E+03  0.76222502058E+03  0.81285314121E+02 0.  0.
         23    2    1    2    0    0 -0.70164709626E+01 -0.35679950380E+02 -0.25676253748E+02  0.96236080813E+02  0.85321881834E+02 0.  0.
        -13    1    3    3    0    0 -0.55999203246E+02  0.28594640290E+02  0.38003422217E+03  0.38520069345E+03  0.00000000000E+00 0.  1.
         14    1    3    3    0    0  0.24110982230E+02  0.13088562956E+02  0.37602485729E+03  0.37702432713E+03  0.00000000000E+00 0. -1.
        -11    1    4    4    0    0 -0.12251073043E+01 -0.60172334952E+02 -0.34733324579E+02  0.69488233664E+02  0.00000000000E+00 0. -1.
         11    1    4    4    0    0 -0.57913636583E+01  0.24492384572E+02  0.90570708303E+01  0.26747847148E+02  0.00000000000E+00 0.  1.
         21    1    1    2  503  502 -0.12793577020E+02  0.24025878607E+02  0.62108554199E+02  0.67811436797E+02  0.00000000000E+00 0.  1.
          1    1    1    2  501    0  0.51698268998E+02 -0.30029131472E+02  0.58873588704E+02  0.83908040147E+02  0.00000000000E+00 0. -1.
<scales pt_clust_5="13000.00000" pt_clust_6="13000.00000" pt_clust_7="13000.00000" pt_clust_8="13000.00000" pt_clust_9="27.21982" pt_clust_10="57.89167"></scales>
<clustering>
<clus scale="   27.220">  1  9  2 -1</clus>
<clus scale="   57.892">  2 10  1 -1</clus>
<clus scale="   81.285">  5  6 -1 -1</clus>
<clus scale="   85.322">  7  8 -1 -1</clus>
<clus scale="  107.957">  1  5  2 -1</clus>
<clus scale="   57.892">  2  5  1 -1</clus>
</clustering>
</event>
<event>
10    4  0.5389768E-005  0.9465167E+02  0.7546771E-02  0.1298540E+00
          2   -1    0    0  503    0 -0.00000000000E+00  0.00000000000E+00  0.19659576388E+03  0.19659576388E+03  0.00000000000E+00 0. -1.
         21   -1    0    0  501  502  0.00000000000E+00 -0.00000000000E+00 -0.11669549791E+03  0.11669549791E+03  0.00000000000E+00 0.  1.
         24    2    1    2    0    0 -0.22025560153E+02  0.13276382194E+02  0.94828880685E+02  0.12713214865E+03  0.80676384297E+02 0.  0.
         23    2    1    2    0    0 -0.76179175556E+01 -0.37298564340E+02 -0.46749249622E+02  0.10993421751E+03  0.91928364886E+02 0.  0.
        -11    1    3    3    0    0 -0.21897397216E+02 -0.18445144559E+02  0.16237632906E+01  0.28676749639E+02  0.00000000000E+00 0.  1.
         12    1    3    3    0    0 -0.12816293670E+00  0.31721526752E+02  0.93205117394E+02  0.98455399007E+02  0.00000000000E+00 0. -1.
        -11    1    4    4    0    0 -0.34428926257E+02 -0.56561645424E+02 -0.34963124647E+02  0.74879842290E+02  0.00000000000E+00 0.  1.
         11    1    4    4    0    0  0.26811008701E+02  0.19263081084E+02 -0.11786124975E+02  0.35054375224E+02  0.00000000000E+00 0. -1.
         21    1    1    2  503  502  0.44582057057E+02  0.48467562100E+01  0.22698185936E+02  0.50261899109E+02  0.00000000000E+00 0.  1.
          1    1    1    2  501    0 -0.14938579349E+02  0.19175425936E+02  0.91224489718E+01  0.25962996515E+02  0.00000000000E+00 0. -1.
<scales pt_clust_5="13000.00000" pt_clust_6="13000.00000" pt_clust_7="13000.00000" pt_clust_8="13000.00000" pt_clust_9="43.29828" pt_clust_10="24.30759"></scales>
<clustering>
<clus scale="   24.308">  2 10  1 -1</clus>
<clus scale="   43.298">  1  9  2 -1</clus>
<clus scale="   80.676">  5  6 -1 -1</clus>
<clus scale="   83.766">  1  5  2 -1</clus>
<clus scale="   91.928">  7  8 -1 -1</clus>
<clus scale="   24.308">  2  5  1 -1</clus>
</clustering>
</event>
<event>
10    4  0.5389768E-005  0.2886464E+03  0.7546771E-02  0.1135487E+00
         21   -1    0    0  501  502  0.00000000000E+00  0.00000000000E+00  0.72489675403E+03  0.72489675403E+03  0.00000000000E+00 0. -1.
          2   -1    0    0  503    0 -0.00000000000E+00 -0.00000000000E+00 -0.33870570132E+03  0.33870570132E+03  0.00000000000E+00 0. -1.
         24    2    1    2    0    0 -0.51574723367E+02 -0.31874809170E+00 -0.83270338802E+02  0.12680664627E+03  0.80535225356E+02 0.  0.
         23    2    1    2    0    0  0.23682601739E+03 -0.20624362290E+03  0.11745866788E+03  0.34760382210E+03  0.91699967156E+02 0.  0.
        -13    1    3    3    0    0 -0.39831529061E+02  0.74101507526E+01  0.18267612216E+01  0.40556110490E+02  0.00000000000E+00 0.  1.
         14    1    3    3    0    0 -0.11743194307E+02 -0.77288988443E+01 -0.85097100023E+02  0.86250535779E+02  0.00000000000E+00 0. -1.
        -13    1    4    4    0    0  0.10967594136E+03 -0.38151824398E+02  0.34998634296E+02  0.12128181323E+03  0.00000000000E+00 0.  1.
         13    1    4    4    0    0  0.12715007603E+03 -0.16809179851E+03  0.82460033582E+02  0.22632200887E+03  0.00000000000E+00 0. -1.
         21    1    1    2  503  502  0.16153430973E+02  0.40743222518E+02 -0.76125046356E+02  0.87840572608E+02  0.00000000000E+00 0. -1.
          1    1    1    2  501    0 -0.20140472500E+03  0.16581914848E+03  0.42812776999E+03  0.50135141437E+03  0.00000000000E+00 0. -1.
<scales pt_clust_5="13000.00000" pt_clust_6="13000.00000" pt_clust_7="13000.00000" pt_clust_8="13000.00000" pt_clust_9="43.82857" pt_clust_10="273.69301"></scales>
<clustering>
<clus scale="   43.829">  2  9  1 -1</clus>
<clus scale="   80.535">  5  6 -1 -1</clus>
<clus scale="   91.700">  7  8 -1 -1</clus>
<clus scale="   93.676">  2  5  1 -1</clus>
<clus scale="  273.693">  1 10  2 -1</clus>
<clus scale="  273.693">  1  5  2 -1</clus>
</clustering>
</event>
<event>
10    4  0.5389768E-005  0.1618159E+03  0.7546771E-02  0.1188374E+00
         21   -1    0    0  501  502  0.00000000000E+00  0.00000000000E+00  0.73880324229E+03  0.73880324229E+03  0.00000000000E+00 0.  1.
          2   -1    0    0  503    0 -0.00000000000E+00 -0.00000000000E+00 -0.16215533516E+03  0.16215533516E+03  0.00000000000E+00 0. -1.
         24    2    1    2    0    0 -0.13049210603E+03 -0.20111008961E+02  0.23721333990E+03  0.28286678835E+03  0.79440599879E+02 0.  0.
         23    2    1    2    0    0  0.12936058595E+03  0.62733013375E+02  0.43529134452E+03  0.46730563552E+03  0.90699560135E+02 0.  0.
        -13    1    3    3    0    0 -0.12264099500E+03 -0.31472175701E+02  0.23740167176E+03  0.26905550590E+03  0.00000000000E+00 0.  1.
         14    1    3    3    0    0 -0.78511110316E+01  0.11361166740E+02 -0.18833186636E+00  0.13811282453E+02  0.00000000000E+00 0. -1.
        -11    1    4    4    0    0  0.98875937875E+02  0.12789958853E+02  0.34963556257E+03  0.36357263477E+03  0.00000000000E+00 0.  1.
         11    1    4    4    0    0  0.30484648079E+02  0.49943054522E+02  0.85655781948E+02  0.10373300075E+03  0.00000000000E+00 0. -1.
         21    1    1    2  503  502  0.13777319830E+01  0.36578337366E+02 -0.37536682178E+02  0.52429718852E+02  0.00000000000E+00 0.  1.
          1    1    1    2  501    0 -0.24621190424E+00 -0.79200341780E+02 -0.58320095104E+02  0.98356434723E+02  0.00000000000E+00 0. -1.
<scales pt_clust_5="13000.00000" pt_clust_6="13000.00000" pt_clust_7="13000.00000" pt_clust_8="13000.00000" pt_clust_9="36.60427" pt_clust_10="54.74920"></scales>
<clustering>
<clus scale="   36.604">  2  9  1 -1</clus>
<clus scale="   54.749">  1 10  2 -1</clus>
<clus scale="   79.441">  5  6 -1 -1</clus>
<clus scale="   90.700">  7  8 -1 -1</clus>
<clus scale="  155.784">  2  5  1 -1</clus>
<clus scale="   54.749">  1  5  2 -1</clus>
</clustering>
</event>
<event>
10    4  0.5389768E-005  0.1046722E+03  0.7546771E-02  0.1273378E+00
         21   -1    0    0  501  502  0.00000000000E+00  0.00000000000E+00  0.29870777443E+02  0.29870777443E+02  0.00000000000E+00 0.  1.
          2   -1    0    0  503    0 -0.00000000000E+00 -0.00000000000E+00 -0.12283218189E+04  0.12283218189E+04  0.00000000000E+00 0. -1.
         24    2    1    2    0    0  0.44536937554E+02 -0.46597436576E+02 -0.90787835505E+03  0.91364227185E+03  0.79650696495E+02 0.  0.
         23    2    1    2    0    0  0.14491887046E+02  0.51657691130E+02 -0.12406249764E+03  0.16019816383E+03  0.85984978509E+02 0.  0.
        -11    1    3    3    0    0  0.23823260069E+02 -0.14754590349E+02 -0.77757970623E+02  0.82653176903E+02  0.00000000000E+00 0.  1.
         12    1    3    3    0    0  0.20713677485E+02 -0.31842846226E+02 -0.83012038442E+03  0.83098909495E+03  0.00000000000E+00 0. -1.
        -13    1    4    4    0    0 -0.31160382391E+02  0.35532591426E+02 -0.87786012205E+02  0.99699139530E+02  0.00000000000E+00 0. -1.
         13    1    4    4    0    0  0.45652269436E+02  0.16125099704E+02 -0.36276485436E+02  0.60499024296E+02  0.00000000000E+00 0.  1.
         21    1    1    2  503  502 -0.43427140388E+02 -0.18439063370E+02 -0.15210508045E+03  0.15925410851E+03  0.00000000000E+00 0. -1.
          1    1    1    2  501    0 -0.15601684212E+02  0.13378808815E+02 -0.14405108302E+02  0.25098052131E+02  0.00000000000E+00 0. -1.
<scales pt_clust_5="13000.00000" pt_clust_6="13000.00000" pt_clust_7="13000.00000" pt_clust_8="13000.00000" pt_clust_9="48.58481" pt_clust_10="20.55250"></scales>
<clustering>
<clus scale="   20.552">  1 10  2 -1</clus>
<clus scale="   48.585">  1  9  2 -1</clus>
<clus scale="   79.651">  5  6 -1 -1</clus>
<clus scale="   85.985">  7  8 -1 -1</clus>
<clus scale="   99.534">  2  5  1 -1</clus>
<clus scale="   20.552">  1  5  2 -1</clus>
</clustering>
</event>
<event>
10    4  0.5389768E-005  0.9026557E+02  0.7546771E-02  0.1308378E+00
         21   -1    0    0  501  502  0.00000000000E+00  0.00000000000E+00  0.41495746841E+03  0.41495746841E+03  0.00000000000E+00 0. -1.
          2   -1    0    0  503    0 -0.00000000000E+00 -0.00000000000E+00 -0.12942563960E+03  0.12942563960E+03  0.00000000000E+00 0. -1.
         23    2    1    2    0    0 -0.25824652737E+02  0.21501983682E+02  0.48846700372E+02  0.10762970016E+03  0.89827079596E+02 0.  0.
         24    2    1    2    0    0 -0.34071655063E+02  0.39535982174E+02  0.27530000116E+03  0.29144079637E+03  0.80147835826E+02 0.  0.
        -11    1    4    4    0    0 -0.45692833650E+02  0.11552661768E+02  0.73055627740E+02  0.86939195909E+02  0.00000000000E+00 0.  1.
         12    1    4    4    0    0  0.11621178587E+02  0.27983320406E+02  0.20224437342E+03  0.20450160046E+03  0.00000000000E+00 0. -1.
        -13    1    3    3    0    0 -0.47595737368E+02  0.43702929980E+02  0.29720482536E+02  0.71123887595E+02  0.00000000000E+00 0. -1.
         13    1    3    3    0    0  0.21771084631E+02 -0.22200946298E+02  0.19126217836E+02  0.36505812568E+02  0.00000000000E+00 0.  1.
         21    1    1    2  503  502  0.35937182900E+02 -0.31898921075E+02 -0.77466330468E+02  0.91159501078E+02  0.00000000000E+00 0. -1.
          1    1    1    2  501    0  0.23959124900E+02 -0.29139044781E+02  0.38851457747E+02  0.54153110398E+02  0.00000000000E+00 0. -1.
<scales pt_clust_5="13000.00000" pt_clust_6="13000.00000" pt_clust_7="13000.00000" pt_clust_8="13000.00000" pt_clust_9="48.74481" pt_clust_10="37.72431"></scales>
<clustering>
<clus scale="   37.724">  1 10  2 -1</clus>
<clus scale="   48.745">  2  9  1 -1</clus>
<clus scale="   80.148">  5  6 -1 -1</clus>
<clus scale="   80.639">  1  5  2 -1</clus>
<clus scale="   89.827">  7  8 -1 -1</clus>
<clus scale="   37.724">  1  5  2 -1</clus>
</clustering>
</event>
<event>
10    4  0.5389768E-005  0.1803283E+03  0.7546771E-02  0.1173583E+00
         -1   -1    0    0    0  501 -0.00000000000E+00  0.00000000000E+00  0.84149803148E+03  0.84149803148E+03  0.00000000000E+00 0.  1.
         21   -1    0    0  503  502  0.00000000000E+00 -0.00000000000E+00 -0.48365866555E+03  0.48365866555E+03  0.00000000000E+00 0. -1.
         24    2    1    2    0    0 -0.11987349033E+03 -0.54951608757E+02 -0.26156779355E+03  0.30225282708E+03  0.74496495673E+02 0.  0.
         23    2    1    2    0    0  0.19767574644E+03 -0.90655521091E+02  0.10850153675E+03  0.25950472834E+03  0.90972503087E+02 0.  0.
        -13    1    3    3    0    0  0.43660481448E+01 -0.22590596177E+02 -0.36701030302E+02  0.43317006329E+02  0.00000000000E+00 0.  1.
         14    1    3    3    0    0 -0.12423953848E+03 -0.32361012581E+02 -0.22486676324E+03  0.25893582075E+03  0.00000000000E+00 0. -1.
        -11    1    4    4    0    0  0.83458105474E+02 -0.88160172928E+02  0.59485160516E+02  0.13518859339E+03  0.00000000000E+00 0.  1.
         11    1    4    4    0    0  0.11421764097E+03 -0.24953481632E+01  0.49016376236E+02  0.12431613496E+03  0.00000000000E+00 0. -1.
         21    1    1    2  503  501 -0.77552807620E+02 -0.20694593979E+02  0.57838519929E+03  0.58392820016E+03  0.00000000000E+00 0.  1.
         -2    1    1    2    0  502 -0.24944849323E+00  0.16630172383E+03 -0.67479576556E+02  0.17947094145E+03  0.00000000000E+00 0.  1.
<scales pt_clust_5="13000.00000" pt_clust_6="13000.00000" pt_clust_7="13000.00000" pt_clust_8="13000.00000" pt_clust_9="80.26646" pt_clust_10="155.69941"></scales>
<clustering>
<clus scale="   74.496">  5  6 -1 -1</clus>
<clus scale="   80.266">  1  9  2 -1</clus>
<clus scale="   90.973">  7  8 -1 -1</clus>
<clus scale="  156.872">  1  5  2 -1</clus>
<clus scale="  155.699">  2 10  1 -1</clus>
<clus scale="  155.699">  2  5  1 -1</clus>
</clustering>
</event>
<event>
10    4  0.5389768E-005  0.2439754E+03  0.7546771E-02  0.1150019E+00
          2   -1    0    0  503    0 -0.00000000000E+00  0.00000000000E+00  0.27975778144E+03  0.27975778144E+03  0.00000000000E+00 0. -1.
         21   -1    0    0  501  502  0.00000000000E+00 -0.00000000000E+00 -0.68371785287E+03  0.68371785287E+03  0.00000000000E+00 0. -1.
         24    2    1    2    0    0 -0.15799868317E+02  0.73457404762E+02  0.34131688131E+02  0.11471577290E+03  0.79681304365E+02 0.  0.
         23    2    1    2    0    0 -0.14408071850E+01 -0.23883640906E+03 -0.56904501668E+03  0.62343138137E+03  0.88371658636E+02 0.  0.
        -13    1    3    3    0    0 -0.19626670028E+02  0.90214505208E+02  0.28294363338E+02  0.96563109535E+02  0.00000000000E+00 0.  1.
         14    1    3    3    0    0  0.38268017111E+01 -0.16757100446E+02  0.58373247929E+01  0.18152663370E+02  0.00000000000E+00 0. -1.
        -11    1    4    4    0    0  0.19840525944E+02 -0.62253477164E+02 -0.24743213631E+03  0.25591366507E+03  0.00000000000E+00 0. -1.
         11    1    4    4    0    0 -0.21281333129E+02 -0.17658293190E+03 -0.32161288037E+03  0.36751771630E+03  0.00000000000E+00 0.  1.
         21    1    1    2  503  502  0.20761971540E+02  0.32164047954E+01  0.18092327444E+02  0.27726107450E+02  0.00000000000E+00 0.  1.
          1    1    1    2  501    0 -0.35212960377E+01  0.16216259951E+03  0.11286092967E+03  0.19760237258E+03  0.00000000000E+00 0. -1.
<scales pt_clust_5="13000.00000" pt_clust_6="13000.00000" pt_clust_7="13000.00000" pt_clust_8="13000.00000" pt_clust_9="21.00963" pt_clust_10="227.40821"></scales>
<clustering>
<clus scale="   21.010">  1  9  2 -1</clus>
<clus scale="   79.681">  5  6 -1 -1</clus>
<clus scale="   88.372">  7  8 -1 -1</clus>
<clus scale="  109.447">  1  5  2 -1</clus>
<clus scale="  227.408">  2 10  1 -1</clus>
<clus scale="  227.408">  2  5  1 -1</clus>
</clustering>
</event>
<event>
10    4  0.5389768E-005  0.1171227E+03  0.7546771E-02  0.1258514E+00
          2   -1    0    0  503    0 -0.00000000000E+00  0.00000000000E+00  0.62771615809E+03  0.62771615809E+03  0.00000000000E+00 0. -1.
         21   -1    0    0  501  502  0.00000000000E+00 -0.00000000000E+00 -0.96508144894E+02  0.96508144894E+02  0.00000000000E+00 0.  1.
         24    2    1    2    0    0 -0.47425010610E+01  0.33569159043E+02  0.39091393652E+03  0.40041451469E+03  0.79804123065E+02 0.  0.
         23    2    1    2    0    0 -0.10685058816E+03 -0.41706736458E+02  0.58373024168E+02  0.16627299647E+03  0.10527487519E+03 0.  0.
        -11    1    3    3    0    0 -0.35591007054E+02  0.12418799109E+02  0.95956863595E+02  0.10309542194E+03  0.00000000000E+00 0.  1.
         12    1    3    3    0    0  0.30848505993E+02  0.21150359935E+02  0.29495707292E+03  0.29731909275E+03  0.00000000000E+00 0. -1.
        -13    1    4    4    0    0 -0.67426659893E+02 -0.74338629211E+02  0.20069547832E+02  0.10234926970E+03  0.00000000000E+00 0.  1.
         13    1    4    4    0    0 -0.39423928269E+02  0.32631892753E+02  0.38303476336E+02  0.63923726771E+02  0.00000000000E+00 0. -1.
         21    1    1    2  503  502  0.31819603610E+02  0.12003621007E+02  0.68598912601E+02  0.76566212530E+02  0.00000000000E+00 0.  1.
          1    1    1    2  501    0  0.79773485613E+02 -0.38660435929E+01  0.13322139915E+02  0.80970579298E+02  0.00000000000E+00 0. -1.
<scales pt_clust_5="13000.00000" pt_clust_6="13000.00000" pt_clust_7="13000.00000" pt_clust_8="13000.00000" pt_clust_9="34.00844" pt_clust_10="82.52497"></scales>
<clustering>
<clus scale="   34.008">  1  9  2 -1</clus>
<clus scale="   79.804">  5  6 -1 -1</clus>
<clus scale="   82.525">  2 10  1 -1</clus>
<clus scale="   94.887">  1  5  2 -1</clus>
<clus scale="  105.275">  7  8 -1 -1</clus>
<clus scale="   82.525">  2  5  1 -1</clus>
</clustering>
</event>
<event>
10    4  0.5389768E-005  0.1460849E+03  0.7546771E-02  0.1205764E+00
         21   -1    0    0  503  502  0.00000000000E+00  0.00000000000E+00  0.65527009537E+02  0.65527009537E+02  0.00000000000E+00 0.  1.
          2   -1    0    0  502    0 -0.00000000000E+00 -0.00000000000E+00 -0.80455821323E+03  0.80455821323E+03  0.00000000000E+00 0. -1.
         24    2    1    2    0    0  0.13455075125E+03  0.50077077902E+02 -0.28848723226E+03  0.33223647553E+03  0.80898542012E+02 0.  0.
         23    2    1    2    0    0 -0.59386890071E+02 -0.58636004946E+02 -0.48266132524E+02  0.12727840418E+03  0.83097465870E+02 0.  0.
        -11    1    3    3    0    0  0.13446250232E+03  0.62895757245E+02 -0.27983531625E+03  0.31677096620E+03  0.00000000000E+00 0.  1.
         12    1    3    3    0    0  0.88248933390E-01 -0.12818679343E+02 -0.86519160124E+01  0.15465509324E+02  0.00000000000E+00 0. -1.
        -13    1    4    4    0    0 -0.61839526187E+02 -0.24685639154E+02  0.19497276483E+01  0.66613130968E+02  0.00000000000E+00 0.  1.
         13    1    4    4    0    0  0.24526361158E+01 -0.33950365792E+02 -0.50215860172E+02  0.60665273214E+02  0.00000000000E+00 0. -1.
         21    1    1    2  503  501 -0.32041075309E+02 -0.58371747258E+01 -0.10807461833E+03  0.11287526852E+03  0.00000000000E+00 0.  1.
          1    1    1    2  501    0 -0.43122785869E+02  0.14396101770E+02 -0.29420322058E+03  0.29769507454E+03  0.00000000000E+00 0. -1.
<scales pt_clust_5="13000.00000" pt_clust_6="13000.00000" pt_clust_7="13000.00000" pt_clust_8="13000.00000" pt_clust_9="27.00098" pt_clust_10="82.10087"></scales>
<clustering>
<clus scale="   27.001">  9 10 -1 -1</clus>
<clus scale="   80.899">  5  6 -1 -1</clus>
<clus scale="   82.101">  1  9  2 -1</clus>
<clus scale="   83.097">  7  8 -1 -1</clus>
<clus scale="  144.845">  2  5  1 -1</clus>
<clus scale="   82.101">  1  5  2 -1</clus>
</clustering>
</event>
<event>
10    4  0.5389768E-005  0.1617068E+03  0.7546771E-02  0.1190236E+00
         21   -1    0    0  501  502  0.00000000000E+00  0.00000000000E+00  0.66262008857E+03  0.66262008857E+03  0.00000000000E+00 0.  1.
          4   -1    0    0  503    0 -0.00000000000E+00 -0.00000000000E+00 -0.11360043429E+03  0.11360043429E+03  0.00000000000E+00 0. -1.
         24    2    1    2    0    0 -0.11017543567E+03 -0.46967153449E+01  0.66683969501E+01  0.13128117530E+03  0.70919628528E+02 0.  0.
         23    2    1    2    0    0  0.12281921444E+03  0.51256164154E+02  0.55287574631E+03  0.57629988485E+03  0.93478407260E+02 0.  0.
        -13    1    3    3    0    0 -0.73591070853E+02 -0.33499696758E+02  0.19111682845E+02  0.83085087792E+02  0.00000000000E+00 0.  1.
         14    1    3    3    0    0 -0.36584364817E+02  0.28802981413E+02 -0.12443285895E+02  0.48196087510E+02  0.00000000000E+00 0. -1.
        -13    1    4    4    0    0  0.27217097388E+02  0.55498249296E+02  0.15046445556E+03  0.16266646382E+03  0.00000000000E+00 0.  1.
         13    1    4    4    0    0  0.95602117047E+02 -0.42420851415E+01  0.40241129075E+03  0.41363342103E+03  0.00000000000E+00 0. -1.
         21    1    1    2  503  502 -0.30186431391E+02 -0.23723056075E+02 -0.10650164122E+02  0.39842565499E+02  0.00000000000E+00 0. -1.
          3    1    1    2  501    0  0.17542652626E+02 -0.22836392734E+02  0.12567514370E+00  0.28796897202E+02  0.00000000000E+00 0. -1.
<scales pt_clust_5="13000.00000" pt_clust_6="13000.00000" pt_clust_7="13000.00000" pt_clust_8="13000.00000" pt_clust_9="38.40539" pt_clust_10="28.79664"></scales>
<clustering>
<clus scale="   28.797">  1 10  2 -1</clus>
<clus scale="   38.405">  2  9  1 -1</clus>
<clus scale="   70.920">  5  6 -1 -1</clus>
<clus scale="   93.478">  7  8 -1 -1</clus>
<clus scale="  149.801">  2  5  1 -1</clus>
<clus scale="   28.797">  1  5  2 -1</clus>
</clustering>
</event>
<event>
10    4  0.5389768E-005  0.1395471E+03  0.7546771E-02  0.1216144E+00
          2   -1    0    0  503    0 -0.00000000000E+00  0.00000000000E+00  0.69837863458E+03  0.69837863458E+03  0.00000000000E+00 0. -1.
         21   -1    0    0  501  502  0.00000000000E+00 -0.00000000000E+00 -0.41526508730E+02  0.41526508730E+02  0.00000000000E+00 0.  1.
         24    2    1    2    0    0 -0.40660574704E+02  0.10698781993E+03  0.33995996493E+03  0.36778659472E+03  0.81206684184E+02 0.  0.
         23    2    1    2    0    0  0.30566724869E+02 -0.88989020876E+02  0.18985316843E+03  0.23071170665E+03  0.91270452602E+02 0.  0.
        -13    1    3    3    0    0  0.18936376696E+02  0.28520545097E+02  0.14924925746E+03  0.15312527129E+03  0.00000000000E+00 0.  1.
         14    1    3    3    0    0 -0.59596951400E+02  0.78467274829E+02  0.19071070747E+03  0.21466132343E+03  0.00000000000E+00 0. -1.
        -11    1    4    4    0    0 -0.19563014012E+02 -0.11112332836E+02  0.96961824932E+02  0.99537887020E+02  0.00000000000E+00 0. -1.
         11    1    4    4    0    0  0.50129738880E+02 -0.77876688039E+02  0.92891343498E+02  0.13117381963E+03  0.00000000000E+00 0.  1.
         21    1    1    2  503  502  0.21990291164E+02  0.42625254610E+01  0.10660145461E+03  0.10892939068E+03  0.00000000000E+00 0. -1.
          1    1    1    2  501    0 -0.11896441329E+02 -0.22261324511E+02  0.20437537878E+02  0.32477451252E+02  0.00000000000E+00 0. -1.
<scales pt_clust_5="13000.00000" pt_clust_6="13000.00000" pt_clust_7="13000.00000" pt_clust_8="13000.00000" pt_clust_9="22.39960" pt_clust_10="24.62030"></scales>
<clustering>
<clus scale="   22.400">  1  9  2 -1</clus>
<clus scale="   24.620">  2 10  1 -1</clus>
<clus scale="   81.207">  5  6 -1 -1</clus>
<clus scale="   91.270">  7  8 -1 -1</clus>
<clus scale="  133.183">  1  5  2 -1</clus>
<clus scale="   24.620">  2  5  1 -1</clus>
</clustering>
</event>
<event>
10    4  0.5389768E-005  0.2784552E+03  0.7546771E-02  0.1096536E+00
         21   -1    0    0  501  502  0.00000000000E+00  0.00000000000E+00  0.60981794367E+03  0.60981794367E+03  0.00000000000E+00 0. -1.
          2   -1    0    0  503    0 -0.00000000000E+00 -0.00000000000E+00 -0.12267188274E+03  0.12267188274E+03  0.00000000000E+00 0. -1.
         24    2    1    2    0    0  0.59491180687E+02 -0.82672198689E+02  0.79478990634E+02  0.15253151264E+03  0.81086739861E+02 0.  0.
         23    2    1    2    0    0  0.21957046516E+02 -0.86591520927E+02  0.18807934751E+03  0.22740026194E+03  0.91415725033E+02 0.  0.
        -13    1    3    3    0    0  0.21544743182E+02  0.44950959575E+01 -0.79230053032E+01  0.23391362925E+02  0.00000000000E+00 0.  1.
         14    1    3    3    0    0  0.37946437505E+02 -0.87167294646E+02  0.87401995937E+02  0.12914014972E+03  0.00000000000E+00 0. -1.
        -13    1    4    4    0    0 -0.15164712491E+02 -0.86584020829E+02  0.10889219605E+03  0.13994381561E+03  0.00000000000E+00 0.  1.
         13    1    4    4    0    0  0.37121759007E+02 -0.75000986155E-02  0.79187151463E+02  0.87456446332E+02  0.00000000000E+00 0. -1.
         21    1    1    2  503  502  0.52678378317E+02  0.47545997918E+01  0.91751446627E+01  0.53682409045E+02  0.00000000000E+00 0.  1.
          1    1    1    2  501    0 -0.13412660552E+03  0.16450911982E+03  0.21041257812E+03  0.29887564278E+03  0.00000000000E+00 0. -1.
<scales pt_clust_5="13000.00000" pt_clust_6="13000.00000" pt_clust_7="13000.00000" pt_clust_8="13000.00000" pt_clust_9="52.89251" pt_clust_10="200.15166"></scales>
<clustering>
<clus scale="   52.893">  2  9  1 -1</clus>
<clus scale="   81.087">  5  6 -1 -1</clus>
<clus scale="   91.416">  7  8 -1 -1</clus>
<clus scale="  119.779">  5  7 -1 -1</clus>
<clus scale="  200.152">  1 10  2 -1</clus>
<clus scale="  200.152">  1  5  2 -1</clus>
</clustering>
</event>
<event>
10    4  0.5389768E-005  0.9325209E+02  0.7546771E-02  0.1303424E+00
         21   -1    0    0  501  502  0.00000000000E+00  0.00000000000E+00  0.16527693927E+03  0.16527693927E+03  0.00000000000E+00 0. -1.
         -3   -1    0    0    0  501 -0.00000000000E+00 -0.00000000000E+00 -0.30066888796E+03  0.30066888796E+03  0.00000000000E+00 0.  1.
         23    2    1    2    0    0 -0.38587275966E+02 -0.41196802641E+02 -0.41132692347E+02  0.11534796962E+03  0.91799244559E+02 0.  0.
         24    2    1    2    0    0 -0.37335161327E+02 -0.65082206359E+02  0.43382657481E+02  0.11684567104E+03  0.78366115218E+02 0.  0.
        -11    1    4    4    0    0  0.10090151915E+02 -0.33400803484E+02 -0.12436594239E+02  0.37041783371E+02  0.00000000000E+00 0.  1.
         12    1    4    4    0    0 -0.47425313242E+02 -0.31681402875E+02  0.55819251719E+02  0.79803887667E+02  0.00000000000E+00 0. -1.
        -11    1    3    3    0    0 -0.24845231799E+02 -0.22451496059E+02 -0.70409303386E+02  0.77966821288E+02  0.00000000000E+00 0. -1.
         11    1    3    3    0    0 -0.13742044167E+02 -0.18745306582E+02  0.29276611039E+02  0.37381148333E+02  0.00000000000E+00 0.  1.
         21    1    1    2  503  502  0.48496282261E+01  0.74688559222E+02  0.92258111136E+00  0.74851525893E+02  0.00000000000E+00 0. -1.
         -4    1    1    2    0  503  0.71072809067E+02  0.31590449778E+02 -0.13856449494E+03  0.15890066068E+03  0.00000000000E+00 0.  1.
<scales pt_clust_5="13000.00000" pt_clust_6="13000.00000" pt_clust_7="13000.00000" pt_clust_8="13000.00000" pt_clust_9="74.84584" pt_clust_10="80.72593"></scales>
<clustering>
<clus scale="   74.846">  1  9  2 -1</clus>
<clus scale="   78.366">  5  6 -1 -1</clus>
<clus scale="   80.726">  1 10  2 -1</clus>
<clus scale="   80.063">  1  5  2 -1</clus>
<clus scale="   91.799">  7  8 -1 -1</clus>
<clus scale="   74.846">  1  5  2 -1</clus>
</clustering>
</event>
<event>
10    4  0.5389768E-005  0.1654871E+03  0.7546771E-02  0.1183583E+00
         21   -1    0    0  501  502  0.00000000000E+00  0.00000000000E+00  0.40134543648E+03  0.40134543648E+03  0.00000000000E+00 0. -1.
          2   -1    0    0  503    0 -0.00000000000E+00 -0.00000000000E+00 -0.21770232834E+03  0.21770232834E+03  0.00000000000E+00 0. -1.
         24    2    1    2    0    0  0.11590651561E+03 -0.23129319185E+02  0.44761176657E+02  0.14896531901E+03  0.78853139235E+02 0.  0.
         23    2    1    2    0    0 -0.15081720604E+03 -0.41546848110E+02  0.23142333442E+03  0.29219830499E+03  0.85738669818E+02 0.  0.
        -13    1    3    3    0    0  0.67330717932E+02 -0.48875089865E+02  0.43700232721E+02  0.93978243899E+02  0.00000000000E+00 0.  1.
         14    1    3    3    0    0  0.48575797674E+02  0.25745770680E+02  0.10609439368E+01  0.54987075114E+02  0.00000000000E+00 0. -1.
        -13    1    4    4    0    0 -0.22825700706E+02  0.25229899309E+02  0.43437348160E+02  0.55175752347E+02  0.00000000000E+00 0.  1.
         13    1    4    4    0    0 -0.12799150533E+03 -0.66776747419E+02  0.18798598626E+03  0.23702255265E+03  0.00000000000E+00 0. -1.
         21    1    1    2  503  502  0.57586903699E+02  0.26676648841E+02 -0.11263481748E+03  0.12928455894E+03  0.00000000000E+00 0. -1.
          1    1    1    2  501    0 -0.22676213266E+02  0.37999518453E+02  0.20093414542E+02  0.48599581878E+02  0.00000000000E+00 0. -1.
<scales pt_clust_5="13000.00000" pt_clust_6="13000.00000" pt_clust_7="13000.00000" pt_clust_8="13000.00000" pt_clust_9="63.36914" pt_clust_10="44.25126"></scales>
<clustering>
<clus scale="   44.251">  1 10  2 -1</clus>
<clus scale="   63.369">  2  9  1 -1</clus>
<clus scale="   78.853">  5  6 -1 -1</clus>
<clus scale="   85.739">  7  8 -1 -1</clus>
<clus scale="  162.027">  2  5  1 -1</clus>
<clus scale="   44.251">  1  5  2 -1</clus>
</clustering>
</event>
<event>
10    4  0.5389768E-005  0.2587513E+03  0.7546771E-02  0.1145250E+00
         21   -1    0    0  501  502  0.00000000000E+00  0.00000000000E+00  0.16590963220E+03  0.16590963220E+03  0.00000000000E+00 0. -1.
          2   -1    0    0  503    0 -0.00000000000E+00 -0.00000000000E+00 -0.13780314440E+04  0.13780314440E+04  0.00000000000E+00 0. -1.
         24    2    1    2    0    0 -0.45848648552E+02  0.44946970234E+02 -0.34388192726E+03  0.35917880599E+03  0.81438971441E+02 0.  0.
         23    2    1    2    0    0 -0.27406960504E+02 -0.25219500656E+03 -0.78569761147E+03  0.83061757792E+03  0.90837003761E+02 0.  0.
        -13    1    3    3    0    0 -0.16223942432E+02  0.58785356688E+02 -0.14019554346E+03  0.15288467835E+03  0.00000000000E+00 0.  1.
         14    1    3    3    0    0 -0.29624706120E+02 -0.13838386454E+02 -0.20368638380E+03  0.20629412764E+03  0.00000000000E+00 0. -1.
        -13    1    4    4    0    0 -0.31500168570E+02 -0.90870241386E+02 -0.18355047703E+03  0.20722074946E+03  0.00000000000E+00 0. -1.
         13    1    4    4    0    0  0.40932080653E+01 -0.16132476518E+03 -0.60214713444E+03  0.62339682845E+03  0.00000000000E+00 0.  1.
         21    1    1    2  503  502 -0.10118175907E+02 -0.19552179756E+02 -0.10887167464E+03  0.11107523017E+03  0.00000000000E+00 0. -1.
          1    1    1    2  501    0  0.83373784964E+02  0.22680021609E+03  0.26329401566E+02  0.24306946214E+03  0.00000000000E+00 0. -1.
<scales pt_clust_5="13000.00000" pt_clust_6="13000.00000" pt_clust_7="13000.00000" pt_clust_8="13000.00000" pt_clust_9="22.01511" pt_clust_10="242.28268"></scales>
<clustering>
<clus scale="   22.015">  2  9  1 -1</clus>
<clus scale="   81.439">  5  6 -1 -1</clus>
<clus scale="   90.837">  7  8 -1 -1</clus>
<clus scale="  102.771">  2  5  1 -1</clus>
<clus scale="  242.283">  1 10  2 -1</clus>
<clus scale="  242.283">  1  5  2 -1</clus>
</clustering>
</event>
<event>
10    4  0.5389768E-005  0.1068089E+03  0.7546771E-02  0.1270791E+00
          4   -1    0    0  503    0 -0.00000000000E+00  0.00000000000E+00  0.12437341534E+03  0.12437341534E+03  0.00000000000E+00 0. -1.
         21   -1    0    0  501  502  0.00000000000E+00 -0.00000000000E+00 -0.17975938895E+03  0.17975938895E+03  0.00000000000E+00 0. -1.
         24    2    1    2    0    0  0.65196312762E+01  0.56273247385E+02 -0.35523586928E+02  0.10501132379E+03  0.80970790609E+02 0.  0.
         23    2    1    2    0    0 -0.21098102035E+02 -0.56754826059E+02 -0.65129131087E+02  0.12718581923E+03  0.90929581038E+02 0.  0.
        -13    1    3    3    0    0  0.30959825509E+02  0.27185559266E+02  0.13165065027E+02  0.43253720826E+02  0.00000000000E+00 0.  1.
         14    1    3    3    0    0 -0.24440194232E+02  0.29087688119E+02 -0.48688651955E+02  0.61757602960E+02  0.00000000000E+00 0. -1.
        -11    1    4    4    0    0 -0.18670640174E+02 -0.21153969195E+02  0.20196996460E+02  0.34698730283E+02  0.00000000000E+00 0.  1.
         11    1    4    4    0    0 -0.24274618603E+01 -0.35600856864E+02 -0.85326127547E+02  0.92487088952E+02  0.00000000000E+00 0. -1.
         21    1    1    2  503  502  0.19672866671E+02 -0.21095903718E+02  0.39706840507E+02  0.49078427235E+02  0.00000000000E+00 0. -1.
          3    1    1    2  501    0 -0.50943959122E+01  0.21577482392E+02  0.55599039009E+01  0.22857234029E+02  0.00000000000E+00 0. -1.
<scales pt_clust_5="13000.00000" pt_clust_6="13000.00000" pt_clust_7="13000.00000" pt_clust_8="13000.00000" pt_clust_9="28.31974" pt_clust_10="22.17073"></scales>
<clustering>
<clus scale="   22.171">  2 10  1 -1</clus>
<clus scale="   28.320">  1  9  2 -1</clus>
<clus scale="   80.971">  5  6 -1 -1</clus>
<clus scale="   90.930">  7  8 -1 -1</clus>
<clus scale="   98.469">  1  5  2 -1</clus>
<clus scale="   22.171">  2  5  1 -1</clus>
</clustering>
</event>
<event>
10    4  0.5389768E-005  0.9532963E+02  0.7546771E-02  0.1299014E+00
          4   -1    0    0  503    0 -0.00000000000E+00  0.00000000000E+00  0.58213990470E+03  0.58213990470E+03  0.00000000000E+00 0. -1.
         21   -1    0    0  501  502  0.00000000000E+00 -0.00000000000E+00 -0.64552148079E+02  0.64552148079E+02  0.00000000000E+00 0. -1.
         23    2    1    2    0    0  0.50539247190E+02  0.59868370415E+02  0.18198075196E+03  0.21763979375E+03  0.90064690393E+02 0.  0.
         24    2    1    2    0    0  0.22605505068E+02 -0.21228112367E+02  0.41611779193E+02  0.91230424682E+02  0.75032050526E+02 0.  0.
        -13    1    4    4    0    0 -0.26330617846E+02 -0.12473083570E+02  0.26200030970E+02  0.39183170784E+02  0.00000000000E+00 0.  1.
         14    1    4    4    0    0  0.48936122913E+02 -0.87550287968E+01  0.15411748223E+02  0.52047253898E+02  0.00000000000E+00 0. -1.
        -11    1    3    3    0    0  0.40741489491E+02  0.20480470091E+02  0.18522841780E+02  0.49218028086E+02  0.00000000000E+00 0.  1.
         11    1    3    3    0    0  0.97977576992E+01  0.39387900324E+02  0.16345791018E+03  0.16842176566E+03  0.00000000000E+00 0. -1.
         21    1    1    2  503  502 -0.46340244131E+02 -0.40738699574E+02  0.30319145122E+03  0.30940606969E+03  0.00000000000E+00 0. -1.
          3    1    1    2  501    0 -0.26804508127E+02  0.20984415264E+01 -0.91962257558E+01  0.28415764655E+02  0.00000000000E+00 0. -1.
<scales pt_clust_5="13000.00000" pt_clust_6="13000.00000" pt_clust_7="13000.00000" pt_clust_8="13000.00000" pt_clust_9="62.98829" pt_clust_10="26.88652"></scales>
<clustering>
<clus scale="   26.887">  2 10  1 -1</clus>
<clus scale="   62.988">  1  9  2 -1</clus>
<clus scale="   75.032">  5  6 -1 -1</clus>
<clus scale="   81.277">  2  5  1 -1</clus>
<clus scale="   90.065">  7  8 -1 -1</clus>
<clus scale="   26.887">  2  5  1 -1</clus>
</clustering>
</event>
<event>
10    4  0.5389768E-005  0.1537685E+03  0.7546771E-02  0.1225668E+00
         21   -1    0    0  501  502  0.00000000000E+00  0.00000000000E+00  0.58247976544E+02  0.58247976544E+02  0.00000000000E+00 0. -1.
          2   -1    0    0  503    0 -0.00000000000E+00 -0.00000000000E+00 -0.73900372384E+03  0.73900372384E+03  0.00000000000E+00 0. -1.
         24    2    1    2    0    0 -0.38016674553E+01  0.10501923659E+02 -0.27399453521E+03  0.28595263357E+03  0.81062693309E+02 0.  0.
         23    2    1    2    0    0 -0.97231214628E+02 -0.81479292031E+02 -0.26143291752E+03  0.30513575741E+03  0.93101428334E+02 0.  0.
        -11    1    3    3    0    0 -0.33128524649E+02  0.29539035844E+02 -0.18698844302E+03  0.19218410862E+03  0.00000000000E+00 0.  1.
         12    1    3    3    0    0  0.29326857194E+02 -0.19037112185E+02 -0.87006092188E+02  0.93768524949E+02  0.00000000000E+00 0. -1.
        -11    1    4    4    0    0 -0.89784369497E+02 -0.10088437977E+03 -0.23926124416E+03  0.27474503461E+03  0.00000000000E+00 0. -1.
         11    1    4    4    0    0 -0.74468451314E+01  0.19405087736E+02 -0.22171673360E+02  0.30390722795E+02  0.00000000000E+00 0.  1.
         21    1    1    2  503  502  0.19977302841E+02 -0.16957907597E+02 -0.20305392631E+02  0.33150750048E+02  0.00000000000E+00 0. -1.
          1    1    1    2  501    0  0.81055579243E+02  0.87935275970E+02 -0.12502290194E+03  0.17301255936E+03  0.00000000000E+00 0. -1.
<scales pt_clust_5="13000.00000" pt_clust_6="13000.00000" pt_clust_7="13000.00000" pt_clust_8="13000.00000" pt_clust_9="26.20426" pt_clust_10="122.38007"></scales>
<clustering>
<clus scale="   26.204">  1  9  2 -1</clus>
<clus scale="   81.063">  5  6 -1 -1</clus>
<clus scale="   81.526">  2  5  1 -1</clus>
<clus scale="   93.101">  7  8 -1 -1</clus>
<clus scale="  122.380">  1 10  2 -1</clus>
<clus scale="   26.204">  1  5  2 -1</clus>
</clustering>
</event>
<event>
10    4  0.5389768E-005  0.9470489E+02  0.7546771E-02  0.1299089E+00
         21   -1    0    0  501  502  0.00000000000E+00  0.00000000000E+00  0.25411547298E+03  0.25411547298E+03  0.00000000000E+00 0.  1.
          4   -1    0    0  503    0 -0.00000000000E+00 -0.00000000000E+00 -0.15981269958E+03  0.15981269958E+03  0.00000000000E+00 0. -1.
         23    2    1    2    0    0 -0.25147009127E+01  0.55724244650E+00 -0.12032445269E+02  0.92618838530E+02  0.91797795571E+02 0.  0.
         24    2    1    2    0    0  0.17789118844E+02  0.30375818608E+02  0.72635538017E+02  0.11324984290E+03  0.79438419091E+02 0.  0.
        -11    1    4    4    0    0  0.33808503607E+02  0.20108808718E+02  0.82806425317E+02  0.91674877572E+02  0.00000000000E+00 0.  1.
         12    1    4    4    0    0 -0.16019384763E+02  0.10267009890E+02 -0.10170887300E+02  0.21574965324E+02  0.00000000000E+00 0. -1.
        -13    1    3    3    0    0  0.22244978748E+02 -0.35084515297E+02 -0.23503851652E+02  0.47730423584E+02  0.00000000000E+00 0. -1.
         13    1    3    3    0    0 -0.24759679660E+02  0.35641757743E+02  0.11471406383E+02  0.44888414945E+02  0.00000000000E+00 0.  1.
         21    1    1    2  503  502 -0.30607620049E+02 -0.89452921109E+01 -0.82688572095E+02  0.88624176223E+02  0.00000000000E+00 0. -1.
          3    1    1    2  501    0  0.15333202118E+02 -0.21987768944E+02  0.11638825274E+03  0.11943531491E+03  0.00000000000E+00 0. -1.
<scales pt_clust_5="13000.00000" pt_clust_6="13000.00000" pt_clust_7="13000.00000" pt_clust_8="13000.00000" pt_clust_9="31.70655" pt_clust_10="26.80614"></scales>
<clustering>
<clus scale="   26.806">  1 10  2 -1</clus>
<clus scale="   31.707">  2  9  1 -1</clus>
<clus scale="   79.438">  5  6 -1 -1</clus>
<clus scale="   82.781">  1  5  2 -1</clus>
<clus scale="   91.798">  7  8 -1 -1</clus>
<clus scale="   26.806">  1  5  2 -1</clus>
</clustering>
</event>
<event>
10    4  0.5389768E-005  0.1141542E+03  0.7546771E-02  0.1256377E+00
         -1   -1    0    0    0  501 -0.00000000000E+00  0.00000000000E+00  0.79839497624E+02  0.79839497624E+02  0.00000000000E+00 0.  1.
         21   -1    0    0  503  502  0.00000000000E+00 -0.00000000000E+00 -0.13256960887E+04  0.13256960887E+04  0.00000000000E+00 0. -1.
         23    2    1    2    0    0  0.40781206571E+02  0.34236827324E+02 -0.25965395826E+03  0.27925671665E+03  0.87913984101E+02 0.  0.
         24    2    1    2    0    0 -0.11136365956E+03 -0.68330000853E+02 -0.10064326904E+04  0.10178913426E+04  0.78263473651E+02 0.  0.
        -13    1    4    4    0    0 -0.26512791196E+02 -0.48304672334E+02 -0.22673124984E+03  0.23333094334E+03  0.00000000000E+00 0.  1.
         14    1    4    4    0    0 -0.84850868367E+02 -0.20025328518E+02 -0.77970144053E+03  0.78456039921E+03  0.00000000000E+00 0. -1.
        -11    1    3    3    0    0 -0.61880364299E+01  0.48124924898E+02 -0.17345998691E+03  0.18011848114E+03  0.00000000000E+00 0.  1.
         11    1    3    3    0    0  0.46969243000E+02 -0.13888097574E+02 -0.86193971352E+02  0.99138235508E+02  0.00000000000E+00 0. -1.
         21    1    1    2  503  501  0.39758175154E+01  0.23628287141E+02  0.31966994480E+02  0.39949866260E+02  0.00000000000E+00 0.  1.
         -2    1    1    2    0  502  0.66606635477E+02  0.10464886388E+02 -0.11736936934E+02  0.68437660870E+02  0.00000000000E+00 0.  1.
<scales pt_clust_5="13000.00000" pt_clust_6="13000.00000" pt_clust_7="13000.00000" pt_clust_8="13000.00000" pt_clust_9="23.96045" pt_clust_10="73.80573"></scales>
<clustering>
<clus scale="   23.960">  1  9  2 -1</clus>
<clus scale="   73.806">  2 10  1 -1</clus>
<clus scale="   78.263">  5  6 -1 -1</clus>
<clus scale="   87.914">  7  8 -1 -1</clus>
<clus scale="  106.899">  2  5  1 -1</clus>
<clus scale="   73.806">  2  5  1 -1</clus>
</clustering>
</event>
<event>
10    4  0.5389768E-005  0.2800303E+03  0.7546771E-02  0.1096029E+00
         21   -1    0    0  501  502  0.00000000000E+00  0.00000000000E+00  0.10128425429E+03  0.10128425429E+03  0.00000000000E+00 0.  1.
          2   -1    0    0  503    0 -0.00000000000E+00 -0.00000000000E+00 -0.17208882446E+04  0.17208882446E+04  0.00000000000E+00 0. -1.
         23    2    1    2    0    0  0.23051982851E+03 -0.19771764685E+02 -0.61225433794E+03  0.66095237672E+03  0.92045401512E+02 0.  0.
         24    2    1    2    0    0 -0.30263217209E+03 -0.44838444683E+02 -0.69323124905E+03  0.76235926163E+03  0.83817429153E+02 0.  0.
        -11    1    4    4    0    0 -0.78809782988E+02  0.15254501826E+02 -0.24412924814E+03  0.25698788204E+03  0.00000000000E+00 0.  1.
         12    1    4    4    0    0 -0.22382238910E+03 -0.60092946509E+02 -0.44910200091E+03  0.50537137959E+03  0.00000000000E+00 0. -1.
        -13    1    3    3    0    0  0.51185424017E+02  0.34121562249E+02 -0.13942753838E+03  0.15239510196E+03  0.00000000000E+00 0. -1.
         13    1    3    3    0    0  0.17933440449E+03 -0.53893326933E+02 -0.47282679956E+03  0.50855727476E+03  0.00000000000E+00 0.  1.
         21    1    1    2  503  502  0.30867317263E+02  0.41654974375E+02 -0.34074465326E+03  0.34466628337E+03  0.00000000000E+00 0. -1.
          1    1    1    2  501    0  0.41245026315E+02  0.22955234993E+02  0.26626249948E+02  0.54194577179E+02  0.00000000000E+00 0. -1.
<scales pt_clust_5="13000.00000" pt_clust_6="13000.00000" pt_clust_7="13000.00000" pt_clust_8="13000.00000" pt_clust_9="53.23399" pt_clust_10="47.20270"></scales>
<clustering>
<clus scale="   47.203">  1 10  2 -1</clus>
<clus scale="   53.234">  2  9  1 -1</clus>
<clus scale="   83.817">  5  6 -1 -1</clus>
<clus scale="   92.045">  7  8 -1 -1</clus>
<clus scale="  277.435">  1  5  2 -1</clus>
<clus scale="   47.203">  1  5  2 -1</clus>
</clustering>
</event>
<event>
10    4  0.5389768E-005  0.1707283E+03  0.7546771E-02  0.1179402E+00
         21   -1    0    0  503  502  0.00000000000E+00  0.00000000000E+00  0.57504119113E+02  0.57504119113E+02  0.00000000000E+00 0. -1.
         -3   -1    0    0    0  501 -0.00000000000E+00 -0.00000000000E+00 -0.14693459003E+04  0.14693459003E+04  0.00000000000E+00 0.  1.
         23    2    1    2    0    0 -0.10020894938E+03 -0.35135731272E+02 -0.85292496242E+03  0.86494486963E+03  0.96810551236E+02 0.  0.
         24    2    1    2    0    0  0.15712090972E+03 -0.85869684083E+01 -0.22897914744E+03  0.28927332847E+03  0.80541245978E+02 0.  0.
        -13    1    4    4    0    0  0.14112258743E+03 -0.18030807083E+02 -0.23024364822E+03  0.27065260434E+03  0.00000000000E+00 0.  1.
         14    1    4    4    0    0  0.15998322285E+02  0.94438386744E+01  0.12645007853E+01  0.18620724128E+02  0.00000000000E+00 0. -1.
        -13    1    3    3    0    0 -0.64068895150E+02  0.28803471628E+02 -0.42039697105E+03  0.42622538237E+03  0.00000000000E+00 0. -1.
         13    1    3    3    0    0 -0.36140054231E+02 -0.63939202901E+02 -0.43252799136E+03  0.43871948726E+03  0.00000000000E+00 0.  1.
         21    1    1    2  503  501 -0.47131579189E+02 -0.24209423139E+01 -0.32121490901E+03  0.32466330943E+03  0.00000000000E+00 0. -1.
         -4    1    1    2    0  502 -0.97803811489E+01  0.46143641994E+02 -0.87227623386E+01  0.47968511909E+02  0.00000000000E+00 0.  1.
<scales pt_clust_5="13000.00000" pt_clust_6="13000.00000" pt_clust_7="13000.00000" pt_clust_8="13000.00000" pt_clust_9="47.57782" pt_clust_10="47.16876"></scales>
<clustering>
<clus scale="   47.169">  1 10  2 -1</clus>
<clus scale="   47.578">  2  9  1 -1</clus>
<clus scale="   80.541">  5  6 -1 -1</clus>
<clus scale="   96.811">  7  8 -1 -1</clus>
<clus scale="  162.058">  1  5  2 -1</clus>
<clus scale="   47.169">  1  5  2 -1</clus>
</clustering>
</event>
<event>
10    4  0.5389768E-005  0.1359026E+03  0.7546771E-02  0.1221082E+00
          2   -1    0    0  503    0 -0.00000000000E+00  0.00000000000E+00  0.29449037809E+03  0.29449037809E+03  0.00000000000E+00 0. -1.
         21   -1    0    0  501  502  0.00000000000E+00 -0.00000000000E+00 -0.49701413914E+03  0.49701413914E+03  0.00000000000E+00 0.  1.
         23    2    1    2    0    0  0.19660014543E+02  0.10480721806E+03  0.21437751610E+03  0.25544099771E+03  0.89001768370E+02 0.  0.
         24    2    1    2    0    0 -0.92690014606E+02 -0.13164271762E+02 -0.35883398846E+03  0.37929802822E+03  0.79626792479E+02 0.  0.
        -13    1    4    4    0    0 -0.89242844033E+02  0.17476059060E+02 -0.24395505227E+03  0.26035315512E+03  0.00000000000E+00 0.  1.
         14    1    4    4    0    0 -0.34471705729E+01 -0.30640330822E+02 -0.11487893619E+03  0.11894487311E+03  0.00000000000E+00 0. -1.
        -11    1    3    3    0    0  0.51112904121E+02  0.33918929007E+02  0.95100659766E+02  0.11316871564E+03  0.00000000000E+00 0. -1.
         11    1    3    3    0    0 -0.31452889578E+02  0.70888289048E+02  0.11927685633E+03  0.14227228206E+03  0.00000000000E+00 0.  1.
         21    1    1    2  503  502  0.50335033626E+02 -0.10130817303E+02 -0.50168068353E+02  0.71784985558E+02  0.00000000000E+00 0.  1.
          1    1    1    2  501    0  0.22694966437E+02 -0.81512128990E+02 -0.78992203390E+01  0.84980505742E+02  0.00000000000E+00 0. -1.
<scales pt_clust_5="13000.00000" pt_clust_6="13000.00000" pt_clust_7="13000.00000" pt_clust_8="13000.00000" pt_clust_9="51.34442" pt_clust_10="87.22631"></scales>
<clustering>
<clus scale="   51.344">  2  9  1 -1</clus>
<clus scale="   79.627">  5  6 -1 -1</clus>
<clus scale="   87.226">  2 10  1 -1</clus>
<clus scale="   89.002">  7  8 -1 -1</clus>
<clus scale="  129.956">  2  5  1 -1</clus>
<clus scale="   51.344">  2  5  1 -1</clus>
</clustering>
</event>
<event>
10    4  0.5389768E-005  0.1311477E+03  0.7546771E-02  0.1230126E+00
         -3   -1    0    0    0  501 -0.00000000000E+00  0.00000000000E+00  0.60670383422E+02  0.60670383422E+02  0.00000000000E+00 0.  1.
         21   -1    0    0  503  502  0.00000000000E+00 -0.00000000000E+00 -0.58590271172E+03  0.58590271172E+03  0.00000000000E+00 0.  1.
         24    2    1    2    0    0 -0.31523983631E+01 -0.74107844751E+02 -0.84753710964E+02  0.13862778067E+03  0.80824252439E+02 0.  0.
         23    2    1    2    0    0  0.39326567477E+02  0.80351221041E+02 -0.30742685836E+03  0.33450253209E+03  0.96838902842E+02 0.  0.
        -11    1    3    3    0    0  0.15834238167E+02 -0.76392385313E+02 -0.89694250081E+02  0.11887631442E+03  0.00000000000E+00 0.  1.
         12    1    3    3    0    0 -0.18986636531E+02  0.22845405616E+01  0.49405391170E+01  0.19751466252E+02  0.00000000000E+00 0. -1.
        -13    1    4    4    0    0  0.29589412978E+02 -0.76642939220E+01 -0.15699038480E+03  0.15993828710E+03  0.00000000000E+00 0.  1.
         13    1    4    4    0    0  0.97371544989E+01  0.88015514963E+02 -0.15043647356E+03  0.17456424499E+03  0.00000000000E+00 0. -1.
         21    1    1    2  503  501 -0.41153174880E+01 -0.36550283701E+02 -0.39278508230E+01  0.36990364810E+02  0.00000000000E+00 0.  1.
         -4    1    1    2    0  502 -0.32058851625E+02  0.30306907411E+02 -0.12912390815E+03  0.13645241757E+03  0.00000000000E+00 0.  1.
<scales pt_clust_5="13000.00000" pt_clust_6="13000.00000" pt_clust_7="13000.00000" pt_clust_8="13000.00000" pt_clust_9="36.78123" pt_clust_10="42.35079"></scales>
<clustering>
<clus scale="   36.781">  1  9  2 -1</clus>
<clus scale="   42.351">  2 10  1 -1</clus>
<clus scale="   80.824">  5  6 -1 -1</clus>
<clus scale="   96.839">  7  8 -1 -1</clus>
<clus scale="  119.810">  1  5  2 -1</clus>
<clus scale="   42.351">  2  5  1 -1</clus>
</clustering>
</event>
<event>
10    4  0.5389768E-005  0.1086975E+03  0.7546771E-02  0.1270028E+00
          2   -1    0    0  503    0 -0.00000000000E+00  0.00000000000E+00  0.34371374799E+03  0.34371374799E+03  0.00000000000E+00 0. -1.
         21   -1    0    0  501  502  0.00000000000E+00 -0.00000000000E+00 -0.30194519993E+03  0.30194519993E+03  0.00000000000E+00 0. -1.
         23    2    1    2    0    0 -0.27939809999E+02  0.94997322432E+01  0.15618256133E+03  0.18636508517E+03  0.97304031822E+02 0.  0.
         24    2    1    2    0    0  0.10444705268E+02  0.19357226036E+02 -0.93680111283E+02  0.12610433110E+03  0.81501809816E+02 0.  0.
        -11    1    4    4    0    0  0.23217773050E+02 -0.23620617317E+02 -0.16879497388E+02  0.37174130520E+02  0.00000000000E+00 0.  1.
         12    1    4    4    0    0 -0.12773067782E+02  0.42977843353E+02 -0.76800613895E+02  0.88930200576E+02  0.00000000000E+00 0. -1.
        -13    1    3    3    0    0  0.27211264934E+02 -0.18090085433E+02  0.24119056309E+02  0.40613212228E+02  0.00000000000E+00 0.  1.
         13    1    3    3    0    0 -0.55151074932E+02  0.27589817676E+02  0.13206350502E+03  0.14575187294E+03  0.00000000000E+00 0. -1.
         21    1    1    2  503  502 -0.30353917205E+02  0.70780640270E+01  0.14951558303E+03  0.15272972484E+03  0.00000000000E+00 0. -1.
          1    1    1    2  501    0  0.47849021936E+02 -0.35935022306E+02 -0.17024948502E+03  0.18045980682E+03  0.00000000000E+00 0. -1.
<scales pt_clust_5="13000.00000" pt_clust_6="13000.00000" pt_clust_7="13000.00000" pt_clust_8="13000.00000" pt_clust_9="31.16824" pt_clust_10="59.08513"></scales>
<clustering>
<clus scale="   31.168">  1  9  2 -1</clus>
<clus scale="   59.085">  2 10  1 -1</clus>
<clus scale="   81.502">  5  6 -1 -1</clus>
<clus scale="   94.814">  2  5  1 -1</clus>
<clus scale="   97.304">  7  8 -1 -1</clus>
<clus scale="   59.085">  2  5  1 -1</clus>
</clustering>
</event>
<event>
10    4  0.5389768E-005  0.4815048E+03  0.7546771E-02  0.1054303E+00
          2   -1    0    0  503    0 -0.00000000000E+00  0.00000000000E+00  0.20250120638E+04  0.20250120638E+04  0.00000000000E+00 0. -1.
         21   -1    0    0  501  502  0.00000000000E+00 -0.00000000000E+00 -0.30296185070E+03  0.30296185070E+03  0.00000000000E+00 0. -1.
         24    2    1    2    0    0 -0.47688934405E+02 -0.13292553376E+03  0.43252017124E+03  0.46200676275E+03  0.80206722361E+02 0.  0.
         23    2    1    2    0    0 -0.44668917482E+03  0.14459668757E+03  0.11530064944E+04  0.12482396769E+04  0.90768353270E+02 0.  0.
        -13    1    3    3    0    0 -0.13171249144E+02 -0.45669859221E+02  0.27159015041E+03  0.27571802198E+03  0.00000000000E+00 0.  1.
         14    1    3    3    0    0 -0.34517685261E+02 -0.87255674537E+02  0.16093002083E+03  0.18628874077E+03  0.00000000000E+00 0. -1.
        -11    1    4    4    0    0 -0.37819129173E+03  0.15481144580E+03  0.10009138168E+04  0.10811215036E+04  0.00000000000E+00 0. -1.
         11    1    4    4    0    0 -0.68497883092E+02 -0.10214758234E+02  0.15209267758E+03  0.16711817330E+03  0.00000000000E+00 0.  1.
         21    1    1    2  503  502  0.16221275055E+02 -0.42707734088E+02  0.13078028421E+03  0.13853000777E+03  0.00000000000E+00 0. -1.
          1    1    1    2  501    0  0.47815683417E+03  0.31036580277E+02  0.57432632814E+01  0.47919746708E+03  0.00000000000E+00 0. -1.
<scales pt_clust_5="13000.00000" pt_clust_6="13000.00000" pt_clust_7="13000.00000" pt_clust_8="13000.00000" pt_clust_9="45.68457" pt_clust_10="472.87206"></scales>
<clustering>
<clus scale="   45.685">  1  9  2 -1</clus>
<clus scale="   80.207">  5  6 -1 -1</clus>
<clus scale="   90.768">  7  8 -1 -1</clus>
<clus scale="  169.746">  1  5  2 -1</clus>
<clus scale="  472.872">  2 10  1 -1</clus>
<clus scale="  472.872">  2  5  1 -1</clus>
</clustering>
</event>
<event>
10    4  0.5389768E-005  0.2042150E+03  0.7546771E-02  0.1152599E+00
         21   -1    0    0  501  502  0.00000000000E+00  0.00000000000E+00  0.92041203144E+03  0.92041203144E+03  0.00000000000E+00 0.  1.
         -3   -1    0    0    0  501 -0.00000000000E+00 -0.00000000000E+00 -0.10235041988E+03  0.10235041988E+03  0.00000000000E+00 0.  1.
         23    2    1    2    0    0 -0.55627564526E+02 -0.13705774068E+03  0.35416094769E+03  0.39529758488E+03  0.94609479074E+02 0.  0.
         24    2    1    2    0    0 -0.15220477617E+03  0.69431233915E+02  0.20146181714E+03  0.27062632796E+03  0.68299015286E+02 0.  0.
        -13    1    4    4    0    0 -0.14612840638E+03  0.45645488961E+02  0.18859358849E+03  0.24290854952E+03  0.00000000000E+00 0.  1.
         14    1    4    4    0    0 -0.60763697860E+01  0.23785744954E+02  0.12868228656E+02  0.27717778438E+02  0.00000000000E+00 0. -1.
        -11    1    3    3    0    0  0.78360301129E+01 -0.80781021342E+02  0.10913352995E+03  0.13600405927E+03  0.00000000000E+00 0. -1.
         11    1    3    3    0    0 -0.63463594639E+02 -0.56276719336E+02  0.24502741773E+03  0.25929352561E+03  0.00000000000E+00 0.  1.
         21    1    1    2  503  502  0.14479251809E+03  0.92160717237E+02  0.16395077584E+03  0.23735696323E+03  0.00000000000E+00 0.  1.
         -4    1    1    2    0  503  0.63039822604E+02 -0.24534210474E+02  0.98488070882E+02  0.11948157525E+03  0.00000000000E+00 0.  1.
<scales pt_clust_5="13000.00000" pt_clust_6="13000.00000" pt_clust_7="13000.00000" pt_clust_8="13000.00000" pt_clust_9="64.91522" pt_clust_10="64.91522"></scales>
<clustering>
<clus scale="   64.915">  9 10 -1 -1</clus>
<clus scale="   68.299">  5  6 -1 -1</clus>
<clus scale="   94.609">  7  8 -1 -1</clus>
<clus scale="  175.585">  2  7  1 -1</clus>
<clus scale="  188.882">  2  5  1 -1</clus>
<clus scale="  204.215">  1  5  2 -1</clus>
</clustering>
</event>
<event>
10    4  0.5389768E-005  0.1840929E+03  0.7546771E-02  0.1191944E+00
          2   -1    0    0  503    0 -0.00000000000E+00  0.00000000000E+00  0.10841442693E+04  0.10841442693E+04  0.00000000000E+00 0. -1.
         21   -1    0    0  501  502  0.00000000000E+00 -0.00000000000E+00 -0.61614155114E+02  0.61614155114E+02  0.00000000000E+00 0. -1.
         23    2    1    2    0    0  0.10857632012E+02 -0.29142550000E+02  0.26289215756E+03  0.28015463129E+03  0.91690536768E+02 0.  0.
         24    2    1    2    0    0 -0.15850153384E+03  0.46280114790E+02  0.20526297174E+03  0.27527113144E+03  0.79854386136E+02 0.  0.
        -11    1    4    4    0    0 -0.58161081921E+02 -0.19431245970E+02  0.50294863900E+02  0.79308625665E+02  0.00000000000E+00 0.  1.
         12    1    4    4    0    0 -0.10034045192E+03  0.65711360759E+02  0.15496810784E+03  0.19596250578E+03  0.00000000000E+00 0. -1.
        -11    1    3    3    0    0 -0.37612950458E+02 -0.56484883304E+00  0.14048609220E+03  0.14543519243E+03  0.00000000000E+00 0.  1.
         11    1    3    3    0    0  0.48470582469E+02 -0.28577701167E+02  0.12240606536E+03  0.13471943886E+03  0.00000000000E+00 0. -1.
         21    1    1    2  503  502 -0.23936547344E+02 -0.16213110911E+02  0.11666041379E+03  0.12018933152E+03  0.00000000000E+00 0. -1.
          1    1    1    2  501    0  0.17158044917E+03 -0.92445387941E+00  0.43771457112E+03  0.47014333019E+03  0.00000000000E+00 0. -1.
<scales pt_clust_5="13000.00000" pt_clust_6="13000.00000" pt_clust_7="13000.00000" pt_clust_8="13000.00000" pt_clust_9="28.91061" pt_clust_10="165.87196"></scales>
<clustering>
<clus scale="   28.911">  1  9  2 -1</clus>
<clus scale="   79.854">  5  6 -1 -1</clus>
<clus scale="   91.691">  7  8 -1 -1</clus>
<clus scale="   97.775">  1  7  2 -1</clus>
<clus scale="  165.872">  2 10  1 -1</clus>
<clus scale="  165.872">  2  5  1 -1</clus>
</clustering>
</event>
<event>
10    4  0.5389768E-005  0.1315336E+03  0.7546771E-02  0.1235613E+00
          2   -1    0    0  502    0 -0.00000000000E+00  0.00000000000E+00  0.76855921226E+03  0.76855921226E+03  0.00000000000E+00 0. -1.
         21   -1    0    0  503  502  0.00000000000E+00 -0.00000000000E+00 -0.92311775684E+02  0.92311775684E+02  0.00000000000E+00 0.  1.
         23    2    1    2    0    0 -0.12932048932E+02  0.57232106320E+02  0.29824953405E+03  0.31655842638E+03  0.88395140529E+02 0.  0.
         24    2    1    2    0    0  0.10135735383E+03  0.52562397896E+02 -0.86520167927E+01  0.12988531678E+03  0.61312472398E+02 0.  0.
        -13    1    4    4    0    0  0.58387112872E+02  0.53681318627E+02 -0.26094351988E+02  0.83496431808E+02  0.00000000000E+00 0.  1.
         14    1    4    4    0    0  0.42970240957E+02 -0.11189207302E+01  0.17442335195E+02  0.46388884968E+02  0.00000000000E+00 0. -1.
        -13    1    3    3    0    0 -0.48047861287E+02  0.15244627072E+02  0.16423186465E+03  0.17179377461E+03  0.00000000000E+00 0. -1.
         13    1    3    3    0    0  0.35115812355E+02  0.41987479249E+02  0.13401766940E+03  0.14476465177E+03  0.00000000000E+00 0.  1.
         21    1    1    2  503  501 -0.43174804056E+02 -0.39844631093E+02  0.10066805668E+03  0.11655777952E+03  0.00000000000E+00 0. -1.
          1    1    1    2  501    0 -0.45250500841E+02 -0.69949873124E+02  0.28598186264E+03  0.29786946526E+03  0.00000000000E+00 0. -1.
<scales pt_clust_5="13000.00000" pt_clust_6="13000.00000" pt_clust_7="13000.00000" pt_clust_8="13000.00000" pt_clust_9="40.95018" pt_clust_10="126.17364"></scales>
<clustering>
<clus scale="   40.950">  9 10 -1 -1</clus>
<clus scale="   61.312">  5  6 -1 -1</clus>
<clus scale="   88.395">  7  8 -1 -1</clus>
<clus scale="  106.096">  1  7  2 -1</clus>
<clus scale="  126.174">  2  9  1 -1</clus>
<clus scale="  126.174">  2  5  1 -1</clus>
</clustering>
</event>
<event>
10    4  0.5389768E-005  0.3208658E+03  0.7546771E-02  0.1075317E+00
         21   -1    0    0  503  502  0.00000000000E+00  0.00000000000E+00  0.67130675550E+03  0.67130675550E+03  0.00000000000E+00 0.  1.
         -1   -1    0    0    0  501 -0.00000000000E+00 -0.00000000000E+00 -0.28310831253E+03  0.28310831253E+03  0.00000000000E+00 0.  1.
         24    2    1    2    0    0  0.18094664518E+03  0.19134601666E+03  0.90124311161E+02  0.28889927855E+03  0.77365465100E+02 0.  0.
         23    2    1    2    0    0 -0.22447965184E+03 -0.30868307809E+03  0.13928377161E+03  0.41403921265E+03  0.79700337441E+02 0.  0.
        -13    1    3    3    0    0  0.17483553771E+03  0.15161634124E+03  0.61192637406E+02  0.23937317947E+03  0.00000000000E+00 0.  1.
         14    1    3    3    0    0  0.61111074674E+01  0.39729675420E+02  0.28931673755E+02  0.49526099076E+02  0.00000000000E+00 0. -1.
        -13    1    4    4    0    0 -0.16871425377E+03 -0.25255783392E+03  0.76970660663E+02  0.31332800944E+03  0.00000000000E+00 0.  1.
         13    1    4    4    0    0 -0.55765398071E+02 -0.56125244173E+02  0.62313110950E+02  0.10071120321E+03  0.00000000000E+00 0. -1.
         21    1    1    2  503  501  0.99614615324E+02  0.73022097078E+02  0.99156863454E+02  0.15838996754E+03  0.00000000000E+00 0. -1.
         -2    1    1    2    0  502 -0.56081608663E+02  0.44314964355E+02  0.59633496737E+02  0.93086609290E+02  0.00000000000E+00 0.  1.
<scales pt_clust_5="13000.00000" pt_clust_6="13000.00000" pt_clust_7="13000.00000" pt_clust_8="13000.00000" pt_clust_9="120.32084" pt_clust_10="71.47701"></scales>
<clustering>
<clus scale="   71.477">  1 10  2 -1</clus>
<clus scale="   77.365">  5  6 -1 -1</clus>
<clus scale="   79.700">  7  8 -1 -1</clus>
<clus scale="  120.321">  1  9  2 -1</clus>
<clus scale="  320.294">  2  5  1 -1</clus>
<clus scale="   71.477">  1  5  2 -1</clus>
</clustering>
</event>
<event>
10    4  0.5389768E-005  0.2123416E+03  0.7546771E-02  0.1141252E+00
         21   -1    0    0  501  502  0.00000000000E+00  0.00000000000E+00  0.69400099021E+02  0.69400099021E+02  0.00000000000E+00 0. -1.
          2   -1    0    0  503    0 -0.00000000000E+00 -0.00000000000E+00 -0.12926586968E+04  0.12926586968E+04  0.00000000000E+00 0. -1.
         24    2    1    2    0    0  0.20057245211E+03  0.60971296155E+02 -0.73318248944E+03  0.76632180872E+03  0.75800687335E+02 0.  0.
         23    2    1    2    0    0 -0.10599173883E+03 -0.79806510720E+02 -0.11705288285E+03  0.20062132828E+03  0.94573844818E+02 0.  0.
        -11    1    3    3    0    0  0.11889409659E+02  0.29267242476E+02 -0.10421150070E+03  0.10889429012E+03  0.00000000000E+00 0.  1.
         12    1    3    3    0    0  0.18868304245E+03  0.31704053679E+02 -0.62897098874E+03  0.65742751860E+03  0.00000000000E+00 0. -1.
        -11    1    4    4    0    0  0.55135791317E+01 -0.44092588129E+02 -0.20857454575E+02  0.49087567613E+02  0.00000000000E+00 0. -1.
         11    1    4    4    0    0 -0.11150531797E+03 -0.35713922590E+02 -0.96195428276E+02  0.15153376067E+03  0.00000000000E+00 0.  1.
         21    1    1    2  503  502  0.11304272397E+02  0.21455332218E+02 -0.63628336944E+02  0.68093194354E+02  0.00000000000E+00 0. -1.
          1    1    1    2  501    0 -0.10588498568E+03 -0.26201176534E+01 -0.30939488858E+03  0.32702246450E+03  0.00000000000E+00 0. -1.
<scales pt_clust_5="13000.00000" pt_clust_6="13000.00000" pt_clust_7="13000.00000" pt_clust_8="13000.00000" pt_clust_9="24.25114" pt_clust_10="102.99503"></scales>
<clustering>
<clus scale="   24.251">  2  9  1 -1</clus>
<clus scale="   75.801">  5  6 -1 -1</clus>
<clus scale="   94.574">  7  8 -1 -1</clus>
<clus scale="  102.995">  1 10  2 -1</clus>
<clus scale="  204.672">  2  5  1 -1</clus>
<clus scale="  102.995">  1  5  2 -1</clus>
</clustering>
</event>
<event>
10    4  0.5389768E-005  0.1349104E+03  0.7546771E-02  0.1227573E+00
          2   -1    0    0  503    0 -0.00000000000E+00  0.00000000000E+00  0.50053477696E+03  0.50053477696E+03  0.00000000000E+00 0. -1.
         21   -1    0    0  501  502  0.00000000000E+00 -0.00000000000E+00 -0.31087209853E+03  0.31087209853E+03  0.00000000000E+00 0. -1.
         24    2    1    2    0    0  0.34322370270E+02  0.71211438412E+02  0.36314280260E+03  0.38056633351E+03  0.81908150126E+02 0.  0.
         23    2    1    2    0    0 -0.77408975326E+02 -0.12967825982E+03 -0.14451258158E+03  0.23481580456E+03  0.10698586498E+03 0.  0.
        -11    1    3    3    0    0  0.51036240993E+02  0.12355487638E+02  0.15835776605E+03  0.16683686054E+03  0.00000000000E+00 0.  1.
         12    1    3    3    0    0 -0.16713870723E+02  0.58855950775E+02  0.20478503656E+03  0.21372947296E+03  0.00000000000E+00 0. -1.
        -11    1    4    4    0    0  0.21063863039E+02 -0.21665132365E+02 -0.56844937996E+02  0.64377102002E+02  0.00000000000E+00 0.  1.
         11    1    4    4    0    0 -0.98472838364E+02 -0.10801312746E+03 -0.87667643586E+02  0.17043870256E+03  0.00000000000E+00 0. -1.
         21    1    1    2  503  502 -0.37039444516E+02  0.92194347938E+02  0.11708756075E+02  0.10004405635E+03  0.00000000000E+00 0. -1.
          1    1    1    2  501    0  0.80126049571E+02 -0.33727526527E+02 -0.40676298672E+02  0.95980681073E+02  0.00000000000E+00 0. -1.
<scales pt_clust_5="13000.00000" pt_clust_6="13000.00000" pt_clust_7="13000.00000" pt_clust_8="13000.00000" pt_clust_9="88.93234" pt_clust_10="86.93520"></scales>
<clustering>
<clus scale="   81.908">  5  6 -1 -1</clus>
<clus scale="   86.935">  2 10  1 -1</clus>
<clus scale="   88.932">  2  9  1 -1</clus>
<clus scale="  106.986">  7  8 -1 -1</clus>
<clus scale="  116.034">  1  5  2 -1</clus>
<clus scale="   86.935">  2  5  1 -1</clus>
</clustering>
</event>
<event>
10    4  0.5389768E-005  0.1024798E+03  0.7546771E-02  0.1278621E+00
          2   -1    0    0  503    0 -0.00000000000E+00  0.00000000000E+00  0.96509105181E+02  0.96509105181E+02  0.00000000000E+00 0. -1.
         21   -1    0    0  501  502  0.00000000000E+00 -0.00000000000E+00 -0.33627108222E+03  0.33627108222E+03  0.00000000000E+00 0. -1.
         24    2    1    2    0    0  0.13814931357E+02  0.53328618028E+02 -0.54170468154E+02  0.11438467503E+03  0.84348209426E+02 0.  0.
         23    2    1    2    0    0  0.58226757480E+02 -0.38589809706E+02 -0.18113340562E+03  0.21471765241E+03  0.91732387546E+02 0.  0.
        -11    1    3    3    0    0  0.33271281643E+02 -0.30772707885E+01  0.56006885672E+00  0.33417981010E+02  0.00000000000E+00 0.  1.
         12    1    3    3    0    0 -0.19456350286E+02  0.56405888816E+02 -0.54730537011E+02  0.80966694023E+02  0.00000000000E+00 0. -1.
        -11    1    4    4    0    0  0.47162535956E+02  0.21738218617E+02 -0.63293434150E+02  0.81871324363E+02  0.00000000000E+00 0.  1.
         11    1    4    4    0    0  0.11064221524E+02 -0.60328028323E+02 -0.11783997147E+03  0.13284632805E+03  0.00000000000E+00 0. -1.
         21    1    1    2  503  502  0.98841881885E+01 -0.19129283107E+02 -0.13996876257E+01  0.21577436682E+02  0.00000000000E+00 0. -1.
          1    1    1    2  501    0 -0.81925877025E+02  0.43904747846E+01 -0.30584156346E+01  0.82100423272E+02  0.00000000000E+00 0. -1.
<scales pt_clust_5="13000.00000" pt_clust_6="13000.00000" pt_clust_7="13000.00000" pt_clust_8="13000.00000" pt_clust_9="21.53199" pt_clust_10="77.52832"></scales>
<clustering>
<clus scale="   21.532">  1  9  2 -1</clus>
<clus scale="   77.528">  2 10  1 -1</clus>
<clus scale="   84.348">  5  6 -1 -1</clus>
<clus scale="   91.732">  7  8 -1 -1</clus>
<clus scale="   95.927">  1  5  2 -1</clus>
<clus scale="   77.528">  2  5  1 -1</clus>
</clustering>
</event>
<event>
10    4  0.5389768E-005  0.1060835E+03  0.7546771E-02  0.1272011E+00
          2   -1    0    0  503    0 -0.00000000000E+00  0.00000000000E+00  0.14577993749E+03  0.14577993749E+03  0.00000000000E+00 0. -1.
         21   -1    0    0  501  502  0.00000000000E+00 -0.00000000000E+00 -0.34248121640E+03  0.34248121640E+03  0.00000000000E+00 0. -1.
         24    2    1    2    0    0  0.57552652502E+02 -0.47965723133E+02  0.32185582575E+02  0.11468539638E+03  0.80646202716E+02 0.  0.
         23    2    1    2    0    0 -0.19220040781E+02 -0.23944984827E+01 -0.64205425686E+02  0.11233266950E+03  0.90117414294E+02 0.  0.
        -13    1    3    3    0    0  0.43297663321E+02  0.83812012895E+01 -0.69078948201E+01  0.44639121799E+02  0.00000000000E+00 0.  1.
         14    1    3    3    0    0  0.14254989180E+02 -0.56346924423E+02  0.39093477395E+02  0.70046274585E+02  0.00000000000E+00 0. -1.
        -11    1    4    4    0    0  0.27328607099E+02 -0.37234428173E+01 -0.59433210925E+02  0.65521167215E+02  0.00000000000E+00 0. -1.
         11    1    4    4    0    0 -0.46548647880E+02  0.13289443346E+01 -0.47722147609E+01  0.46811502286E+02  0.00000000000E+00 0.  1.
         21    1    1    2  503  502  0.16218477890E+02  0.19769913873E+02  0.39857879400E+02  0.47355454489E+02  0.00000000000E+00 0. -1.
          1    1    1    2  501    0 -0.54551089610E+02  0.30590307743E+02 -0.20453931521E+03  0.21388763351E+03  0.00000000000E+00 0. -1.
<scales pt_clust_5="13000.00000" pt_clust_6="13000.00000" pt_clust_7="13000.00000" pt_clust_8="13000.00000" pt_clust_9="25.57124" pt_clust_10="62.34855"></scales>
<clustering>
<clus scale="   25.571">  1  9  2 -1</clus>
<clus scale="   62.349">  2 10  1 -1</clus>
<clus scale="   80.646">  5  6 -1 -1</clus>
<clus scale="   90.117">  7  8 -1 -1</clus>
<clus scale="   98.165">  1  5  2 -1</clus>
<clus scale="   62.349">  2  5  1 -1</clus>
</clustering>
</event>
<event>
10    4  0.5389768E-005  0.2491075E+03  0.7546771E-02  0.1157283E+00
          4   -1    0    0  503    0 -0.00000000000E+00  0.00000000000E+00  0.58840783469E+03  0.58840783469E+03  0.00000000000E+00 0. -1.
         21   -1    0    0  501  502  0.00000000000E+00 -0.00000000000E+00 -0.25796499977E+03  0.25796499977E+03  0.00000000000E+00 0. -1.
         23    2    1    2    0    0 -0.22614785340E+02 -0.20613721038E+03  0.12620295922E+03  0.25930529900E+03  0.91148632228E+02 0.  0.
         24    2    1    2    0    0 -0.25871279892E+02 -0.28205901144E+02 -0.20798571417E+02  0.91101183574E+02  0.80012180904E+02 0.  0.
        -13    1    4    4    0    0 -0.48097173574E+02 -0.36974341916E-01  0.27611432918E+01  0.48176377876E+02  0.00000000000E+00 0.  1.
         14    1    4    4    0    0  0.22225893682E+02 -0.28168926802E+02 -0.23559714708E+02  0.42924805699E+02  0.00000000000E+00 0. -1.
        -11    1    3    3    0    0  0.18424302785E+02 -0.59066900437E+02  0.10558455441E+01  0.61882699280E+02  0.00000000000E+00 0.  1.
         11    1    3    3    0    0 -0.41039088125E+02 -0.14707030994E+03  0.12514711367E+03  0.19742259972E+03  0.00000000000E+00 0. -1.
         21    1    1    2  503  502 -0.20809039416E+02  0.24921069340E+03  0.30149668329E+03  0.39171320614E+03  0.00000000000E+00 0. -1.
          3    1    1    2  501    0  0.69295104649E+02 -0.14867581883E+02 -0.76458236174E+02  0.10425314575E+03  0.00000000000E+00 0. -1.
<scales pt_clust_5="13000.00000" pt_clust_6="13000.00000" pt_clust_7="13000.00000" pt_clust_8="13000.00000" pt_clust_9="231.83285" pt_clust_10="70.87211"></scales>
<clustering>
<clus scale="   70.872">  2 10  1 -1</clus>
<clus scale="   80.012">  5  6 -1 -1</clus>
<clus scale="   86.658">  2  5  1 -1</clus>
<clus scale="   91.149">  7  8 -1 -1</clus>
<clus scale="  231.833">  1  9  2 -1</clus>
<clus scale="   70.872">  2  5  1 -1</clus>
</clustering>
</event>
<event>
10    4  0.5389768E-005  0.1158081E+03  0.7546771E-02  0.1261637E+00
         -1   -1    0    0    0  501 -0.00000000000E+00  0.00000000000E+00  0.22414780429E+03  0.22414780429E+03  0.00000000000E+00 0.  1.
         21   -1    0    0  501  502  0.00000000000E+00 -0.00000000000E+00 -0.14954977043E+03  0.14954977043E+03  0.00000000000E+00 0.  1.
         23    2    1    2    0    0  0.52887718920E+02 -0.31287845426E+01  0.96227475102E+02  0.13418959122E+03  0.77072818316E+02 0.  0.
         24    2    1    2    0    0  0.41733373696E+02 -0.34812794389E+02  0.45729987189E+02  0.10643410426E+03  0.79267784678E+02 0.  0.
        -11    1    4    4    0    0  0.61759585608E+02 -0.40002625392E+02  0.26559216936E+02  0.78229460288E+02  0.00000000000E+00 0.  1.
         12    1    4    4    0    0 -0.20026211912E+02  0.51898310031E+01  0.19170770254E+02  0.28204643971E+02  0.00000000000E+00 0. -1.
        -13    1    3    3    0    0  0.27357559899E+02 -0.25307077706E+02  0.93034256886E+02  0.10022104180E+03  0.00000000000E+00 0.  1.
         13    1    3    3    0    0  0.25530159021E+02  0.22178293164E+02  0.31932182164E+01  0.33968549422E+02  0.00000000000E+00 0. -1.
         21    1    1    2  503  502 -0.16692776914E+02 -0.11524731575E+02 -0.28983089870E+01  0.20490691398E+02  0.00000000000E+00 0.  1.
         -2    1    1    2    0  503 -0.77928315702E+02  0.49466310507E+02 -0.64461119444E+02  0.11258318784E+03  0.00000000000E+00 0.  1.
<scales pt_clust_5="13000.00000" pt_clust_6="13000.00000" pt_clust_7="13000.00000" pt_clust_8="13000.00000" pt_clust_9="20.28468" pt_clust_10="84.42834"></scales>
<clustering>
<clus scale="   20.285">  2  9  1 -1</clus>
<clus scale="   77.073">  7  8 -1 -1</clus>
<clus scale="   79.268">  5  6 -1 -1</clus>
<clus scale="   92.313">  1  7  2 -1</clus>
<clus scale="   84.428">  2 10  1 -1</clus>
<clus scale="   20.285">  2  5  1 -1</clus>
</clustering>
</event>
<event>
10    4  0.5389768E-005  0.2019041E+03  0.7546771E-02  0.1172112E+00
          2   -1    0    0  503    0 -0.00000000000E+00  0.00000000000E+00  0.63710555140E+03  0.63710555140E+03  0.00000000000E+00 0. -1.
         21   -1    0    0  501  502  0.00000000000E+00 -0.00000000000E+00 -0.13035278213E+03  0.13035278213E+03  0.00000000000E+00 0.  1.
         23    2    1    2    0    0  0.51984499449E+02  0.34367106656E+02  0.14484753918E+03  0.18176280848E+03  0.90406983898E+02 0.  0.
         24    2    1    2    0    0 -0.21122522660E+03 -0.10280287702E+03  0.11111299342E+03  0.27194257985E+03  0.80138265224E+02 0.  0.
        -13    1    4    4    0    0 -0.11687105248E+03 -0.87311836344E+02  0.35762804363E+02  0.15020378773E+03  0.00000000000E+00 0.  1.
         14    1    4    4    0    0 -0.94354174122E+02 -0.15491040676E+02  0.75350189060E+02  0.12173879212E+03  0.00000000000E+00 0. -1.
        -11    1    3    3    0    0  0.56320598400E+02 -0.51460694060E+01  0.12528718998E+03  0.13746043724E+03  0.00000000000E+00 0. -1.
         11    1    3    3    0    0 -0.43360989510E+01  0.39513176062E+02  0.19560349208E+02  0.44302371243E+02  0.00000000000E+00 0.  1.
         21    1    1    2  503  502  0.36019656471E+02  0.82185294952E+00  0.10602420457E+03  0.11197867229E+03  0.00000000000E+00 0.  1.
          1    1    1    2  501    0  0.12322107068E+03  0.67613917415E+02  0.14476803209E+03  0.20177427290E+03  0.00000000000E+00 0. -1.
<scales pt_clust_5="13000.00000" pt_clust_6="13000.00000" pt_clust_7="13000.00000" pt_clust_8="13000.00000" pt_clust_9="36.02903" pt_clust_10="185.31900"></scales>
<clustering>
<clus scale="   36.029">  1  9  2 -1</clus>
<clus scale="   80.138">  5  6 -1 -1</clus>
<clus scale="   90.407">  7  8 -1 -1</clus>
<clus scale="  115.571">  1  7  2 -1</clus>
<clus scale="  185.319">  2 10  1 -1</clus>
<clus scale="  185.319">  2  5  1 -1</clus>
</clustering>
</event>
<event>
10    4  0.5389768E-005  0.1337422E+03  0.7546771E-02  0.1225482E+00
          4   -1    0    0  503    0 -0.00000000000E+00  0.00000000000E+00  0.14214357532E+04  0.14214357532E+04  0.00000000000E+00 0. -1.
         21   -1    0    0  501  502  0.00000000000E+00 -0.00000000000E+00 -0.12842709101E+03  0.12842709101E+03  0.00000000000E+00 0. -1.
         23    2    1    2    0    0  0.10212853809E+03 -0.39845445346E+02  0.62550452010E+02  0.15653368701E+03  0.92586923018E+02 0.  0.
         24    2    1    2    0    0 -0.92021135143E+02 -0.53612508939E+02 -0.48853073167E+01  0.13237496143E+03  0.78467023372E+02 0.  0.
        -11    1    4    4    0    0 -0.78810588271E+01 -0.39892900369E+02  0.17444512574E+02  0.44247775165E+02  0.00000000000E+00 0.  1.
         12    1    4    4    0    0 -0.84140076316E+02 -0.13719608570E+02 -0.22329819890E+02  0.88127186260E+02  0.00000000000E+00 0. -1.
        -11    1    3    3    0    0  0.73116732417E+02  0.19795874975E+02  0.44271492517E+02  0.87737667367E+02  0.00000000000E+00 0.  1.
         11    1    3    3    0    0  0.29011805673E+02 -0.59641320321E+02  0.18278959493E+02  0.68796019639E+02  0.00000000000E+00 0. -1.
         21    1    1    2  503  502 -0.38391441239E+02 -0.68874826909E+02  0.57405619249E+03  0.57944642261E+03  0.00000000000E+00 0. -1.
          3    1    1    2  501    0  0.28284038293E+02  0.16233278119E+03  0.66128732501E+03  0.68150777317E+03  0.00000000000E+00 0. -1.
<scales pt_clust_5="13000.00000" pt_clust_6="13000.00000" pt_clust_7="13000.00000" pt_clust_8="13000.00000" pt_clust_9="78.85204" pt_clust_10="107.61081"></scales>
<clustering>
<clus scale="   78.467">  5  6 -1 -1</clus>
<clus scale="   78.852">  1  9  2 -1</clus>
<clus scale="   92.587">  7  8 -1 -1</clus>
<clus scale="  107.611">  2 10  1 -1</clus>
<clus scale="  124.385">  2  5  1 -1</clus>
<clus scale="  107.611">  2  5  1 -1</clus>
</clustering>
</event>
<event>
10    4  0.5389768E-005  0.1111476E+03  0.7546771E-02  0.1263862E+00
         21   -1    0    0  503  502  0.00000000000E+00  0.00000000000E+00  0.58891860436E+02  0.58891860436E+02  0.00000000000E+00 0.  1.
         -1   -1    0    0    0  501 -0.00000000000E+00 -0.00000000000E+00 -0.47737905012E+03  0.47737905012E+03  0.00000000000E+00 0.  1.
         24    2    1    2    0    0  0.54583656944E+02  0.56574186347E+02 -0.27947376314E+03  0.30095883784E+03  0.79313451723E+02 0.  0.
         23    2    1    2    0    0  0.86792080825E+01 -0.60805445433E+02 -0.65945130600E+02  0.12950535980E+03  0.93006704704E+02 0.  0.
        -11    1    3    3    0    0  0.71291593381E+02  0.60460487212E+02 -0.24931473164E+03  0.26626264705E+03  0.00000000000E+00 0.  1.
         12    1    3    3    0    0 -0.16707936437E+02 -0.38863008645E+01 -0.30159031493E+02  0.34696190785E+02  0.00000000000E+00 0. -1.
        -13    1    4    4    0    0  0.43791226771E+02 -0.62458240708E+02 -0.46452777873E+02  0.89311611488E+02  0.00000000000E+00 0.  1.
         13    1    4    4    0    0 -0.35112018688E+02  0.16527952753E+01 -0.19492352728E+02  0.40193748313E+02  0.00000000000E+00 0. -1.
         21    1    1    2  503  501 -0.26337615188E+02 -0.60511130930E+01 -0.59144662522E+02  0.65025972106E+02  0.00000000000E+00 0. -1.
         -2    1    1    2    0  502 -0.36925249839E+02  0.10282372178E+02 -0.13923633423E+02  0.40780740810E+02  0.00000000000E+00 0.  1.
<scales pt_clust_5="13000.00000" pt_clust_6="13000.00000" pt_clust_7="13000.00000" pt_clust_8="13000.00000" pt_clust_9="27.02380" pt_clust_10="39.90336"></scales>
<clustering>
<clus scale="   27.024">  2  9  1 -1</clus>
<clus scale="   39.903">  1 10  2 -1</clus>
<clus scale="   79.313">  5  6 -1 -1</clus>
<clus scale="   93.007">  7  8 -1 -1</clus>
<clus scale="   99.971">  2  5  1 -1</clus>
<clus scale="   39.903">  1  5  2 -1</clus>
</clustering>
</event>
<event>
10    4  0.5389768E-005  0.1514665E+03  0.7546771E-02  0.1200926E+00
          2   -1    0    0  503    0 -0.00000000000E+00  0.00000000000E+00  0.85244650355E+03  0.85244650355E+03  0.00000000000E+00 0. -1.
         21   -1    0    0  501  502  0.00000000000E+00 -0.00000000000E+00 -0.59706016462E+02  0.59706016462E+02  0.00000000000E+00 0.  1.
         24    2    1    2    0    0 -0.10621577975E+03 -0.91397938220E+01  0.36855136115E+03  0.39183776633E+03  0.79632917905E+02 0.  0.
         23    2    1    2    0    0  0.11627547263E+03 -0.47665427909E+02  0.11466781872E+03  0.19342368717E+03  0.92043661143E+02 0.  0.
        -11    1    3    3    0    0 -0.41477983992E+02  0.35142931803E+02  0.13878001451E+03  0.14904811720E+03  0.00000000000E+00 0.  1.
         12    1    3    3    0    0 -0.64737795756E+02 -0.44282725625E+02  0.22977134664E+03  0.24278964913E+03  0.00000000000E+00 0. -1.
        -13    1    4    4    0    0  0.97670454406E+02  0.56839721186E+01  0.85026671053E+02  0.12962006015E+03  0.00000000000E+00 0.  1.
         13    1    4    4    0    0  0.18605018228E+02 -0.53349400028E+02  0.29641147662E+02  0.63803627023E+02  0.00000000000E+00 0. -1.
         21    1    1    2  503  502 -0.35502215345E+02 -0.60212756988E+01  0.13345717469E+03  0.13822981058E+03  0.00000000000E+00 0. -1.
          1    1    1    2  501    0  0.25442522458E+02  0.62826497430E+02  0.17606413253E+03  0.18866125594E+03  0.00000000000E+00 0. -1.
<scales pt_clust_5="13000.00000" pt_clust_6="13000.00000" pt_clust_7="13000.00000" pt_clust_8="13000.00000" pt_clust_9="36.00921" pt_clust_10="63.45234"></scales>
<clustering>
<clus scale="   36.009">  1  9  2 -1</clus>
<clus scale="   63.452">  2 10  1 -1</clus>
<clus scale="   79.633">  5  6 -1 -1</clus>
<clus scale="   92.044">  7  8 -1 -1</clus>
<clus scale="  144.262">  1  5  2 -1</clus>
<clus scale="   63.452">  2  5  1 -1</clus>
</clustering>
</event>
<event>
10    4  0.5389768E-005  0.1991395E+03  0.7546771E-02  0.1151079E+00
         -1   -1    0    0    0  501 -0.00000000000E+00  0.00000000000E+00  0.13648767234E+03  0.13648767234E+03  0.00000000000E+00 0.  1.
         21   -1    0    0  503  502  0.00000000000E+00 -0.00000000000E+00 -0.71493553285E+03  0.71493553285E+03  0.00000000000E+00 0. -1.
         24    2    1    2    0    0 -0.15614243625E+03 -0.35966060844E+02 -0.75317138243E+02  0.19478331971E+03  0.81202539347E+02 0.  0.
         23    2    1    2    0    0  0.15155523955E+03  0.15961223270E+03 -0.17632060818E+03  0.29539674076E+03  0.87893242756E+02 0.  0.
        -11    1    3    3    0    0 -0.12313581022E+03 -0.61165926890E+02 -0.50900251188E+02  0.14661014270E+03  0.00000000000E+00 0.  1.
         12    1    3    3    0    0 -0.33006626023E+02  0.25199866046E+02 -0.24416887054E+02  0.48173177014E+02  0.00000000000E+00 0. -1.
        -11    1    4    4    0    0  0.32562496945E+00  0.32621238469E+02 -0.54047932808E+02  0.63130264309E+02  0.00000000000E+00 0.  1.
         11    1    4    4    0    0  0.15122961458E+03  0.12699099423E+03 -0.12227267537E+03  0.23226647645E+03  0.00000000000E+00 0. -1.
         21    1    1    2  503  501 -0.20763421218E+02 -0.56932353132E+01 -0.13266309076E+02  0.25288881856E+02  0.00000000000E+00 0. -1.
         -2    1    1    2    0  502  0.25350617915E+02 -0.11795293654E+03 -0.31354380501E+03  0.33595426286E+03  0.00000000000E+00 0.  1.
<scales pt_clust_5="13000.00000" pt_clust_6="13000.00000" pt_clust_7="13000.00000" pt_clust_8="13000.00000" pt_clust_9="21.52981" pt_clust_10="120.76383"></scales>
<clustering>
<clus scale="   21.530">  1  9  2 -1</clus>
<clus scale="   81.203">  5  6 -1 -1</clus>
<clus scale="   87.893">  7  8 -1 -1</clus>
<clus scale="  120.764">  2 10  1 -1</clus>
<clus scale="  196.278">  1  5  2 -1</clus>
<clus scale="  120.764">  2  5  1 -1</clus>
</clustering>
</event>
<event>
10    4  0.5389768E-005  0.1026524E+03  0.7546771E-02  0.1279078E+00
         21   -1    0    0  501  502  0.00000000000E+00  0.00000000000E+00  0.53709965811E+02  0.53709965811E+02  0.00000000000E+00 0.  1.
          2   -1    0    0  503    0 -0.00000000000E+00 -0.00000000000E+00 -0.93134340294E+03  0.93134340294E+03  0.00000000000E+00 0. -1.
         24    2    1    2    0    0  0.48625088381E+02 -0.12953609805E+02 -0.71683889997E+03  0.72311220519E+03  0.80629135922E+02 0.  0.
         23    2    1    2    0    0 -0.80325827214E+01  0.51375643528E+02 -0.11633324344E+03  0.15596107678E+03  0.89924717450E+02 0.  0.
        -11    1    3    3    0    0  0.46102032198E+02 -0.26409513854E+02 -0.22905583111E+03  0.23513705271E+03  0.00000000000E+00 0.  1.
         12    1    3    3    0    0  0.25230561837E+01  0.13455904049E+02 -0.48778306886E+03  0.48797515248E+03  0.00000000000E+00 0. -1.
        -13    1    4    4    0    0 -0.30255509888E+02  0.67363818980E+02 -0.99187251731E+02  0.12365836362E+03  0.00000000000E+00 0.  1.
         13    1    4    4    0    0  0.22222927166E+02 -0.15988175452E+02 -0.17145991704E+02  0.32302713162E+02  0.00000000000E+00 0. -1.
         21    1    1    2  503  502 -0.11519506003E+02 -0.25996303171E+02 -0.63147448512E+02  0.69253931662E+02  0.00000000000E+00 0. -1.
          1    1    1    2  501    0 -0.29072999657E+02 -0.12425730552E+02  0.18686154790E+02  0.36726155117E+02  0.00000000000E+00 0. -1.
<scales pt_clust_5="13000.00000" pt_clust_6="13000.00000" pt_clust_7="13000.00000" pt_clust_8="13000.00000" pt_clust_9="28.43425" pt_clust_10="31.83465"></scales>
<clustering>
<clus scale="   28.434">  2  9  1 -1</clus>
<clus scale="   31.835">  1 10  2 -1</clus>
<clus scale="   80.629">  5  6 -1 -1</clus>
<clus scale="   89.925">  7  8 -1 -1</clus>
<clus scale="   94.616">  2  5  1 -1</clus>
<clus scale="   31.835">  1  5  2 -1</clus>
</clustering>
</event>
<event>
10    4  0.5389768E-005  0.1196494E+03  0.7546771E-02  0.1245841E+00
          2   -1    0    0  503    0 -0.00000000000E+00  0.00000000000E+00  0.29102086082E+03  0.29102086082E+03  0.00000000000E+00 0. -1.
         21   -1    0    0  501  502  0.00000000000E+00 -0.00000000000E+00 -0.17075991205E+03  0.17075991205E+03  0.00000000000E+00 0.  1.
         23    2    1    2    0    0 -0.25895149836E+02  0.87545959702E+02  0.24412429424E+02  0.13065576258E+03  0.90222545627E+02 0.  0.
         24    2    1    2    0    0 -0.54235732697E+02 -0.64016089388E+02 -0.42021345726E+02  0.12549668126E+03  0.83330961289E+02 0.  0.
        -11    1    4    4    0    0 -0.41800790767E+02 -0.41920396510E+02 -0.67342219575E+02  0.89663818174E+02  0.00000000000E+00 0.  1.
         12    1    4    4    0    0 -0.12434941931E+02 -0.22095692878E+02  0.25320873849E+02  0.35832863087E+02  0.00000000000E+00 0. -1.
        -13    1    3    3    0    0  0.27672739661E+02  0.20565190814E+02 -0.13312959783E+02  0.36958659225E+02  0.00000000000E+00 0.  1.
         13    1    3    3    0    0 -0.53567889497E+02  0.66980768888E+02  0.37725389207E+02  0.93697103353E+02  0.00000000000E+00 0. -1.
         21    1    1    2  503  502 -0.31393448455E+02 -0.43339935317E+01  0.67039931414E+01  0.32392524289E+02  0.00000000000E+00 0.  1.
          1    1    1    2  501    0  0.11152433099E+03 -0.19195876782E+02  0.13116587193E+03  0.17323580475E+03  0.00000000000E+00 0. -1.
<scales pt_clust_5="13000.00000" pt_clust_6="13000.00000" pt_clust_7="13000.00000" pt_clust_8="13000.00000" pt_clust_9="31.69120" pt_clust_10="109.14864"></scales>
<clustering>
<clus scale="   31.691">  2  9  1 -1</clus>
<clus scale="   83.331">  5  6 -1 -1</clus>
<clus scale="   90.223">  7  8 -1 -1</clus>
<clus scale="  109.149">  2 10  1 -1</clus>
<clus scale="  114.542">  2  5  1 -1</clus>
<clus scale="   31.691">  2  5  1 -1</clus>
</clustering>
</event>
<event>
10    4  0.5389768E-005  0.3130515E+03  0.7546771E-02  0.1092254E+00
         21   -1    0    0  501  502  0.00000000000E+00  0.00000000000E+00  0.18213467820E+04  0.18213467820E+04  0.00000000000E+00 0. -1.
          2   -1    0    0  503    0 -0.00000000000E+00 -0.00000000000E+00 -0.79326322440E+03  0.79326322440E+03  0.00000000000E+00 0. -1.
         23    2    1    2    0    0  0.17537886833E+03  0.61091360903E+02 -0.23841059454E+02  0.20904724457E+03  0.92964791795E+02 0.  0.
         24    2    1    2    0    0 -0.83807701269E+02 -0.16170812380E+03 -0.44056273665E+03  0.48341450581E+03  0.80129965724E+02 0.  0.
        -13    1    4    4    0    0 -0.21306186895E+02 -0.90351041359E+00 -0.21756275196E+02  0.30464823017E+02  0.00000000000E+00 0.  1.
         14    1    4    4    0    0 -0.62501514374E+02 -0.16080461339E+03 -0.41880646145E+03  0.45294968279E+03  0.00000000000E+00 0. -1.
        -13    1    3    3    0    0  0.14324781369E+03  0.85004160797E+02 -0.27510344476E+02  0.16882672340E+03  0.00000000000E+00 0.  1.
         13    1    3    3    0    0  0.32131054639E+02 -0.23912799894E+02  0.36692850211E+01  0.40220521175E+02  0.00000000000E+00 0. -1.
         21    1    1    2  503  502  0.10343762341E+03 -0.14000764114E+03 -0.16267700689E+03  0.23825467484E+03  0.00000000000E+00 0. -1.
          1    1    1    2  501    0 -0.19500879047E+03  0.24062440404E+03  0.16551643605E+04  0.16838935811E+04  0.00000000000E+00 0. -1.
<scales pt_clust_5="13000.00000" pt_clust_6="13000.00000" pt_clust_7="13000.00000" pt_clust_8="13000.00000" pt_clust_9="174.07321" pt_clust_10="302.62260"></scales>
<clustering>
<clus scale="   80.130">  5  6 -1 -1</clus>
<clus scale="   92.965">  7  8 -1 -1</clus>
<clus scale="  174.073">  2  9  1 -1</clus>
<clus scale="  219.244">  2  7  1 -1</clus>
<clus scale="  302.623">  1 10  2 -1</clus>
<clus scale="  302.623">  1  5  2 -1</clus>
</clustering>
</event>
<event>
10    4  0.5711881E-005  0.1141392E+03  0.7546771E-02  0.1255749E+00
         21   -1    0    0  501  502  0.00000000000E+00  0.00000000000E+00  0.78286531424E+02  0.78286531424E+02  0.00000000000E+00 0. -1.
          2   -1    0    0  503    0 -0.00000000000E+00 -0.00000000000E+00 -0.10717829791E+04  0.10717829791E+04  0.00000000000E+00 0. -1.
         24    2    1    2    0    0  0.10363660191E+03  0.39277440815E+02 -0.77402398135E+03  0.78601769297E+03  0.80171237649E+02 0.  0.
         23    2    1    2    0    0 -0.24828642958E+02  0.11481098422E+02 -0.12383464874E+03  0.15431854418E+03  0.87925626056E+02 0.  0.
        -13    1    3    3    0    0  0.72395628214E+02  0.71436351031E+01 -0.25826171515E+03  0.26831189318E+03  0.00000000000E+00 0.  1.
         14    1    3    3    0    0  0.31240973700E+02  0.32133805712E+02 -0.51576226620E+03  0.51770579979E+03  0.00000000000E+00 0. -1.
        -11    1    4    4    0    0  0.19121581265E+02  0.24926766837E+02 -0.12394791529E+02  0.33772909737E+02  0.00000000000E+00 0. -1.
         11    1    4    4    0    0 -0.43950224223E+02 -0.13445668416E+02 -0.11143985721E+03  0.12054563444E+03  0.00000000000E+00 0.  1.
         21    1    1    2  503  502 -0.30298395453E+02  0.25258396107E+02 -0.11141100839E+03  0.11818795257E+03  0.00000000000E+00 0. -1.
          1    1    1    2  501    0 -0.48509563503E+02 -0.76016935343E+02  0.15773190819E+02  0.91545320792E+02  0.00000000000E+00 0. -1.
<scales pt_clust_5="13000.00000" pt_clust_6="13000.00000" pt_clust_7="13000.00000" pt_clust_8="13000.00000" pt_clust_9="39.44590" pt_clust_10="89.99187"></scales>
<clustering>
<clus scale="   39.446">  2  9  1 -1</clus>
<clus scale="   80.171">  5  6 -1 -1</clus>
<clus scale="   87.926">  7  8 -1 -1</clus>
<clus scale="   89.992">  1 10  2 -1</clus>
<clus scale="  108.279">  2  5  1 -1</clus>
<clus scale="   89.992">  1  5  2 -1</clus>
</clustering>
</event>
<event>
10    4  0.5389768E-005  0.4015309E+03  0.7546771E-02  0.1078115E+00
         -1   -1    0    0    0  501 -0.00000000000E+00  0.00000000000E+00  0.22516693400E+03  0.22516693400E+03  0.00000000000E+00 0.  1.
         21   -1    0    0  503  502  0.00000000000E+00 -0.00000000000E+00 -0.15217196797E+04  0.15217196797E+04  0.00000000000E+00 0.  1.
         23    2    1    2    0    0  0.11451863109E+03  0.38008098685E+02 -0.33543934880E+03  0.36779863776E+03  0.90538106810E+02 0.  0.
         24    2    1    2    0    0  0.16062153710E+03  0.27928330151E+03 -0.35986363404E+02  0.33612447722E+03  0.88804308186E+02 0.  0.
        -13    1    4    4    0    0  0.11283466546E+03  0.25015520852E+03 -0.10490176778E+02  0.27462580703E+03  0.00000000000E+00 0.  1.
         14    1    4    4    0    0  0.47786871637E+02  0.29128092987E+02 -0.25496186626E+02  0.61498670184E+02  0.00000000000E+00 0. -1.
        -13    1    3    3    0    0  0.49945999963E+01 -0.23265279628E+02 -0.36343633464E+02  0.43440522080E+02  0.00000000000E+00 0. -1.
         13    1    3    3    0    0  0.10952403109E+03  0.61273378313E+02 -0.29909571534E+03  0.32435811568E+03  0.00000000000E+00 0.  1.
         21    1    1    2  503  501  0.19112198306E+02 -0.24762088494E+02 -0.25575241369E+01  0.31384360442E+02  0.00000000000E+00 0. -1.
         -2    1    1    2    0  502 -0.29425236649E+03 -0.29252931170E+03 -0.92256950933E+03  0.10115791382E+04  0.00000000000E+00 0.  1.
<scales pt_clust_5="13000.00000" pt_clust_6="13000.00000" pt_clust_7="13000.00000" pt_clust_8="13000.00000" pt_clust_9="31.27998" pt_clust_10="391.58759"></scales>
<clustering>
<clus scale="   31.280">  1  9  2 -1</clus>
<clus scale="   88.804">  5  6 -1 -1</clus>
<clus scale="   90.538">  7  8 -1 -1</clus>
<clus scale="  151.505">  1  7  2 -1</clus>
<clus scale="  391.588">  2 10  1 -1</clus>
<clus scale="  391.588">  2  5  1 -1</clus>
</clustering>
</event>
<event>
10    4  0.5389768E-005  0.2261961E+03  0.7546771E-02  0.1152710E+00
          2   -1    0    0  502    0 -0.00000000000E+00  0.00000000000E+00  0.85347579272E+03  0.85347579272E+03  0.00000000000E+00 0. -1.
         21   -1    0    0  503  502  0.00000000000E+00 -0.00000000000E+00 -0.96137313134E+02  0.96137313134E+02  0.00000000000E+00 0. -1.
         24    2    1    2    0    0 -0.47294773349E+01  0.10234329797E+03  0.17416638649E+03  0.21666159230E+03  0.78177981542E+02 0.  0.
         23    2    1    2    0    0  0.77192775047E+02 -0.22650541182E+03  0.25111005283E+03  0.36605446114E+03  0.11694521702E+03 0.  0.
        -13    1    3    3    0    0 -0.36283302810E+02  0.21795539467E+02  0.54729769698E+02  0.69187219157E+02  0.00000000000E+00 0.  1.
         14    1    3    3    0    0  0.31553825475E+02  0.80547758502E+02  0.11943661679E+03  0.14747437314E+03  0.00000000000E+00 0. -1.
        -11    1    4    4    0    0  0.22008778988E+02 -0.18041202737E+03  0.12400928526E+03  0.22002542763E+03  0.00000000000E+00 0. -1.
         11    1    4    4    0    0  0.55183996059E+02 -0.46093384456E+02  0.12710076757E+03  0.14602903352E+03  0.00000000000E+00 0.  1.
         21    1    1    2  503  501  0.58592828194E+01  0.38398540585E+02  0.65871626895E+02  0.76471238672E+02  0.00000000000E+00 0. -1.
          1    1    1    2  501    0 -0.78322580532E+02  0.85763573269E+02  0.26619041337E+03  0.29042581375E+03  0.00000000000E+00 0. -1.
<scales pt_clust_5="13000.00000" pt_clust_6="13000.00000" pt_clust_7="13000.00000" pt_clust_8="13000.00000" pt_clust_9="35.08674" pt_clust_10="202.90299"></scales>
<clustering>
<clus scale="   35.087">  9 10 -1 -1</clus>
<clus scale="   78.178">  5  6 -1 -1</clus>
<clus scale="  116.945">  7  8 -1 -1</clus>
<clus scale="  128.873">  1  5  2 -1</clus>
<clus scale="  202.903">  2  9  1 -1</clus>
<clus scale="  202.903">  2  5  1 -1</clus>
</clustering>
</event>
<event>
10    4  0.6161667E-005  0.1414782E+03  0.7546771E-02  0.1235965E+00
         21   -1    0    0  501  502  0.00000000000E+00  0.00000000000E+00  0.11873376874E+03  0.11873376874E+03  0.00000000000E+00 0. -1.
          2   -1    0    0  503    0 -0.00000000000E+00 -0.00000000000E+00 -0.12662984484E+04  0.12662984484E+04  0.00000000000E+00 0. -1.
         24    2    1    2    0    0  0.26038830501E+02 -0.12912038084E+02 -0.64452703011E+03  0.65006314359E+03  0.79512619717E+02 0.  0.
         23    2    1    2    0    0  0.60412666049E+02  0.53941853707E+02 -0.19600739703E+03  0.23084442133E+03  0.91163772249E+02 0.  0.
        -11    1    3    3    0    0  0.45629683230E+02 -0.20088983913E+02 -0.24659035066E+03  0.25157988057E+03  0.00000000000E+00 0.  1.
         12    1    3    3    0    0 -0.19590852729E+02  0.71769458290E+01 -0.39793667944E+03  0.39848326302E+03  0.00000000000E+00 0. -1.
        -13    1    4    4    0    0  0.34921192184E+02 -0.17624963752E+02 -0.33678722533E+02  0.51617684589E+02  0.00000000000E+00 0.  1.
         13    1    4    4    0    0  0.25491473865E+02  0.71566817460E+02 -0.16232867449E+03  0.17922673674E+03  0.00000000000E+00 0. -1.
         21    1    1    2  503  502 -0.31264194140E+02  0.57662023847E+02 -0.36927184087E+03  0.37505206477E+03  0.00000000000E+00 0. -1.
          1    1    1    2  501    0 -0.55187302409E+02 -0.98691839470E+02  0.62241588311E+02  0.12907258749E+03  0.00000000000E+00 0. -1.
<scales pt_clust_5="13000.00000" pt_clust_6="13000.00000" pt_clust_7="13000.00000" pt_clust_8="13000.00000" pt_clust_9="65.59237" pt_clust_10="108.19085"></scales>
<clustering>
<clus scale="   65.592">  2  9  1 -1</clus>
<clus scale="   79.513">  5  6 -1 -1</clus>
<clus scale="   84.647">  2  5  1 -1</clus>
<clus scale="   91.164">  7  8 -1 -1</clus>
<clus scale="  108.191">  1 10  2 -1</clus>
<clus scale="  108.191">  1  5  2 -1</clus>
</clustering>
</event>
<event>
10    4  0.5389768E-005  0.9505747E+02  0.7546771E-02  0.1296444E+00
         21   -1    0    0  501  502  0.00000000000E+00  0.00000000000E+00  0.34568806353E+03  0.34568806353E+03  0.00000000000E+00 0. -1.
          2   -1    0    0  503    0 -0.00000000000E+00 -0.00000000000E+00 -0.13391094900E+03  0.13391094900E+03  0.00000000000E+00 0. -1.
         23    2    1    2    0    0  0.31948055847E+01 -0.14141342931E+02 -0.17433747363E+02  0.93668544888E+02  0.90882761797E+02 0.  0.
         24    2    1    2    0    0  0.79532726646E+02 -0.11618543229E+02  0.23026082244E+03  0.25708945116E+03  0.81329541955E+02 0.  0.
        -13    1    4    4    0    0  0.91633907200E+02 -0.88716405397E+01  0.15091387005E+03  0.17677803916E+03  0.00000000000E+00 0.  1.
         14    1    4    4    0    0 -0.12101180554E+02 -0.27469026889E+01  0.79346952385E+02  0.80311412003E+02  0.00000000000E+00 0. -1.
        -13    1    3    3    0    0  0.46469551956E+02 -0.77120587902E+01 -0.16491825425E+02  0.49908670746E+02  0.00000000000E+00 0. -1.
         13    1    3    3    0    0 -0.43274746371E+02 -0.64292841406E+01 -0.94192193829E+00  0.43759874143E+02  0.00000000000E+00 0.  1.
         21    1    1    2  503  502 -0.17232587166E+02 -0.25441730426E+02 -0.27873611070E+02  0.41487129349E+02  0.00000000000E+00 0.  1.
          1    1    1    2  501    0 -0.65494945065E+02  0.51201616586E+02  0.26823650532E+02  0.87353887136E+02  0.00000000000E+00 0. -1.
<scales pt_clust_5="13000.00000" pt_clust_6="13000.00000" pt_clust_7="13000.00000" pt_clust_8="13000.00000" pt_clust_9="30.72855" pt_clust_10="83.02344"></scales>
<clustering>
<clus scale="   30.729">  2  9  1 -1</clus>
<clus scale="   81.330">  5  6 -1 -1</clus>
<clus scale="   83.023">  1 10  2 -1</clus>
<clus scale="   85.969">  1  5  2 -1</clus>
<clus scale="   90.883">  7  8 -1 -1</clus>
<clus scale="   83.023">  1  5  2 -1</clus>
</clustering>
</event>
<event>
10    4  0.5389768E-005  0.1014722E+03  0.7546771E-02  0.1282883E+00
          2   -1    0    0  503    0 -0.00000000000E+00  0.00000000000E+00  0.92895290206E+03  0.92895290206E+03  0.00000000000E+00 0. -1.
         21   -1    0    0  501  502  0.00000000000E+00 -0.00000000000E+00 -0.20756330470E+02  0.20756330470E+02  0.00000000000E+00 0.  1.
         24    2    1    2    0    0  0.41834796047E+02  0.13813403423E+02  0.34048111177E+03  0.35261923948E+03  0.80448619035E+02 0.  0.
         23    2    1    2    0    0 -0.28602197951E+02 -0.28921442913E+02  0.21936598674E+03  0.24133201030E+03  0.92006344721E+02 0.  0.
        -13    1    3    3    0    0  0.30215232728E+02 -0.30973092246E+02  0.12659143925E+03  0.13378223060E+03  0.00000000000E+00 0.  1.
         14    1    3    3    0    0  0.11619563319E+02  0.44786495669E+02  0.21388967252E+03  0.21883700888E+03  0.00000000000E+00 0. -1.
        -13    1    4    4    0    0  0.13541473410E+02  0.21567245570E+02  0.11641458890E+03  0.11916742043E+03  0.00000000000E+00 0. -1.
         13    1    4    4    0    0 -0.42143671361E+02 -0.50488688483E+02  0.10295139785E+03  0.12216458987E+03  0.00000000000E+00 0.  1.
         21    1    1    2  503  502 -0.16862273322E+02  0.36098991961E+02  0.30352711504E+03  0.30613099001E+03  0.00000000000E+00 0. -1.
          1    1    1    2  501    0  0.36296752262E+01 -0.20990952471E+02  0.44822358044E+02  0.49626992741E+02  0.00000000000E+00 0. -1.
<scales pt_clust_5="13000.00000" pt_clust_6="13000.00000" pt_clust_7="13000.00000" pt_clust_8="13000.00000" pt_clust_9="38.38713" pt_clust_10="21.30246"></scales>
<clustering>
<clus scale="   21.302">  2 10  1 -1</clus>
<clus scale="   38.387">  1  9  2 -1</clus>
<clus scale="   80.449">  5  6 -1 -1</clus>
<clus scale="   91.123">  1  5  2 -1</clus>
<clus scale="   92.006">  7  8 -1 -1</clus>
<clus scale="   21.302">  2  5  1 -1</clus>
</clustering>
</event>
<event>
10    4  0.5389768E-005  0.1319433E+03  0.7546771E-02  0.1239638E+00
         21   -1    0    0  501  502  0.00000000000E+00  0.00000000000E+00  0.15882448692E+03  0.15882448692E+03  0.00000000000E+00 0. -1.
          2   -1    0    0  503    0 -0.00000000000E+00 -0.00000000000E+00 -0.22007758116E+03  0.22007758116E+03  0.00000000000E+00 0. -1.
         24    2    1    2    0    0  0.51065757121E+00 -0.50803624397E+02 -0.43206548497E+02  0.10390004029E+03  0.79668962062E+02 0.  0.
         23    2    1    2    0    0 -0.96632432920E+02 -0.89581315471E+01 -0.32777624093E+02  0.13557440134E+03  0.88814246850E+02 0.  0.
        -11    1    3    3    0    0 -0.27103838638E+02 -0.23766383266E+02  0.10671631881E+02  0.37594451312E+02  0.00000000000E+00 0.  1.
         12    1    3    3    0    0  0.27614496209E+02 -0.27037241131E+02 -0.53878180378E+02  0.66305588978E+02  0.00000000000E+00 0. -1.
        -13    1    4    4    0    0 -0.68652420150E+02  0.18966989179E+01  0.22839296459E+02  0.72376693223E+02  0.00000000000E+00 0. -1.
         13    1    4    4    0    0 -0.27980012770E+02 -0.10854830465E+02 -0.55616920552E+02  0.63197708112E+02  0.00000000000E+00 0.  1.
         21    1    1    2  503  502  0.74413392295E+02  0.77393994740E+02 -0.94105310740E+00  0.10736884537E+03  0.00000000000E+00 0. -1.
          1    1    1    2  501    0  0.21708383053E+02 -0.17632238797E+02  0.15672131458E+02  0.32058781078E+02  0.00000000000E+00 0. -1.
<scales pt_clust_5="13000.00000" pt_clust_6="13000.00000" pt_clust_7="13000.00000" pt_clust_8="13000.00000" pt_clust_9="97.57596" pt_clust_10="27.96694"></scales>
<clustering>
<clus scale="   27.967">  1 10  2 -1</clus>
<clus scale="   79.669">  5  6 -1 -1</clus>
<clus scale="   88.814">  7  8 -1 -1</clus>
<clus scale="   96.829">  2  5  1 -1</clus>
<clus scale="   97.576">  1  9  2 -1</clus>
<clus scale="   27.967">  1  5  2 -1</clus>
</clustering>
</event>
<event>
10    4  0.5389768E-005  0.1464498E+03  0.7546771E-02  0.1208000E+00
          2   -1    0    0  503    0 -0.00000000000E+00  0.00000000000E+00  0.33836140445E+03  0.33836140445E+03  0.00000000000E+00 0. -1.
         21   -1    0    0  501  502  0.00000000000E+00 -0.00000000000E+00 -0.22614543574E+03  0.22614543574E+03  0.00000000000E+00 0. -1.
         24    2    1    2    0    0 -0.15672565243E+02 -0.61331977392E+02  0.12400630275E+03  0.16058678033E+03  0.80020685720E+02 0.  0.
         23    2    1    2    0    0 -0.13168122878E+02  0.15543032391E+03 -0.17722566900E+01  0.18278315204E+03  0.95260457307E+02 0.  0.
        -11    1    3    3    0    0  0.16435698313E+01 -0.61498769970E+02  0.36819999185E+02  0.71697366546E+02  0.00000000000E+00 0.  1.
         12    1    3    3    0    0 -0.17316135075E+02  0.16679257791E+00  0.87186303565E+02  0.88889413785E+02  0.00000000000E+00 0. -1.
        -13    1    4    4    0    0  0.18407225115E+02  0.13000451906E+02  0.25860200401E+02  0.34301423454E+02  0.00000000000E+00 0.  1.
         13    1    4    4    0    0 -0.31575347993E+02  0.14242987201E+03 -0.27632457091E+02  0.14848172859E+03  0.00000000000E+00 0. -1.
         21    1    1    2  503  502  0.24060016109E+02 -0.66070150850E+02  0.91679684864E+02  0.11553923068E+03  0.00000000000E+00 0.  1.
          1    1    1    2  501    0  0.47806720128E+01 -0.28028195669E+02 -0.10169776222E+03  0.10559767714E+03  0.00000000000E+00 0. -1.
<scales pt_clust_5="13000.00000" pt_clust_6="13000.00000" pt_clust_7="13000.00000" pt_clust_8="13000.00000" pt_clust_9="73.04047" pt_clust_10="28.43298"></scales>
<clustering>
<clus scale="   28.433">  2 10  1 -1</clus>
<clus scale="   73.040">  1  9  2 -1</clus>
<clus scale="   80.021">  5  6 -1 -1</clus>
<clus scale="   95.260">  7  8 -1 -1</clus>
<clus scale="  137.027">  1  5  2 -1</clus>
<clus scale="   28.433">  2  5  1 -1</clus>
</clustering>
</event>
<event>
10    4  0.5389768E-005  0.1532620E+03  0.7546771E-02  0.1198113E+00
          4   -1    0    0  503    0 -0.00000000000E+00  0.00000000000E+00  0.30827856331E+03  0.30827856331E+03  0.00000000000E+00 0. -1.
         21   -1    0    0  501  502  0.00000000000E+00 -0.00000000000E+00 -0.22919389221E+03  0.22919389221E+03  0.00000000000E+00 0. -1.
         24    2    1    2    0    0 -0.95520747621E+02  0.35407299934E+02  0.94066191891E+02  0.16028185210E+03  0.80398591660E+02 0.  0.
         23    2    1    2    0    0  0.57848031680E+02 -0.12150914467E+03 -0.12270999605E+03  0.20299894220E+03  0.89665826237E+02 0.  0.
        -11    1    3    3    0    0 -0.25291958119E+02  0.51502256584E+02  0.47567058235E+02  0.74530467649E+02  0.00000000000E+00 0.  1.
         12    1    3    3    0    0 -0.70228789502E+02 -0.16094956650E+02  0.46499133656E+02  0.85751384451E+02  0.00000000000E+00 0. -1.
        -11    1    4    4    0    0  0.52561051526E+02 -0.51641376837E+02 -0.16097843493E+02  0.75423050218E+02  0.00000000000E+00 0.  1.
         11    1    4    4    0    0  0.52869801544E+01 -0.69867767832E+02 -0.10661215256E+03  0.12757589198E+03  0.00000000000E+00 0. -1.
         21    1    1    2  503  502  0.37022045694E+02  0.10772191287E+03  0.80811093203E+02  0.13966057125E+03  0.00000000000E+00 0. -1.
          3    1    1    2  501    0  0.65067024655E+00 -0.21620068130E+02  0.26917382059E+02  0.34531089972E+02  0.00000000000E+00 0. -1.
<scales pt_clust_5="13000.00000" pt_clust_6="13000.00000" pt_clust_7="13000.00000" pt_clust_8="13000.00000" pt_clust_9="111.26907" pt_clust_10="21.62987"></scales>
<clustering>
<clus scale="   21.630">  2 10  1 -1</clus>
<clus scale="   80.399">  5  6 -1 -1</clus>
<clus scale="   89.666">  7  8 -1 -1</clus>
<clus scale="  111.269">  1  9  2 -1</clus>
<clus scale="  148.031">  1  5  2 -1</clus>
<clus scale="   21.630">  2  5  1 -1</clus>
</clustering>
</event>
<event>
10    4  0.5389768E-005  0.9439710E+02  0.7546771E-02  0.1298045E+00
         21   -1    0    0  503  502  0.00000000000E+00  0.00000000000E+00  0.61734554105E+03  0.61734554105E+03  0.00000000000E+00 0.  1.
         -3   -1    0    0    0  501 -0.00000000000E+00 -0.00000000000E+00 -0.34780191122E+02  0.34780191122E+02  0.00000000000E+00 0.  1.
         23    2    1    2    0    0  0.12755036330E+02  0.24777482627E+02  0.10819500745E+03  0.14423948284E+03  0.91226389690E+02 0.  0.
         24    2    1    2    0    0 -0.47332617437E+02 -0.20739266626E+01  0.21420741677E+03  0.23410188629E+03  0.81695764416E+02 0.  0.
        -11    1    4    4    0    0 -0.45567428097E+02 -0.31374417602E+02  0.18334164320E+03  0.19150692602E+03  0.00000000000E+00 0.  1.
         12    1    4    4    0    0 -0.17651893396E+01  0.29300490939E+02  0.30865773565E+02  0.42594960271E+02  0.00000000000E+00 0. -1.
        -11    1    3    3    0    0 -0.29531045896E+02  0.12148345275E+02  0.54185661321E+01  0.32388668135E+02  0.00000000000E+00 0.  1.
         11    1    3    3    0    0  0.42286082227E+02  0.12629137352E+02  0.10277644132E+03  0.11185081470E+03  0.00000000000E+00 0. -1.
         21    1    1    2  503  501 -0.18049567049E+02 -0.17280319938E+02  0.38522718149E+02  0.45917274979E+02  0.00000000000E+00 0.  1.
         -4    1    1    2    0  502  0.52627148156E+02 -0.54232360262E+01  0.22164020757E+03  0.22786708806E+03  0.00000000000E+00 0.  1.
<scales pt_clust_5="13000.00000" pt_clust_6="13000.00000" pt_clust_7="13000.00000" pt_clust_8="13000.00000" pt_clust_9="24.98792" pt_clust_10="51.32030"></scales>
<clustering>
<clus scale="   24.988">  2  9  1 -1</clus>
<clus scale="   51.320">  1 10  2 -1</clus>
<clus scale="   81.696">  5  6 -1 -1</clus>
<clus scale="   85.222">  1  5  2 -1</clus>
<clus scale="   91.226">  7  8 -1 -1</clus>
<clus scale="   51.320">  1  5  2 -1</clus>
</clustering>
</event>
<event>
10    4  0.5389768E-005  0.1435405E+03  0.7546771E-02  0.1211572E+00
          2   -1    0    0  503    0 -0.00000000000E+00  0.00000000000E+00  0.19860789609E+04  0.19860789609E+04  0.00000000000E+00 0. -1.
         21   -1    0    0  501  502  0.00000000000E+00 -0.00000000000E+00 -0.16367521078E+03  0.16367521078E+03  0.00000000000E+00 0. -1.
         24    2    1    2    0    0 -0.27958406250E+02 -0.79054348955E+02  0.64332681171E+03  0.65360948269E+03  0.79402182776E+02 0.  0.
         23    2    1    2    0    0  0.39920891553E+02  0.14576175613E+03  0.92209970776E+03  0.93906096690E+03  0.93420883018E+02 0.  0.
        -11    1    3    3    0    0  0.27198174532E+02 -0.31883024626E+02  0.19566608506E+03  0.20010368512E+03  0.00000000000E+00 0.  1.
         12    1    3    3    0    0 -0.55156580782E+02 -0.47171324329E+02  0.44766072665E+03  0.45350579757E+03  0.00000000000E+00 0. -1.
        -13    1    4    4    0    0  0.60889815691E+02  0.48560847312E+02  0.43459633605E+03  0.44151976270E+03  0.00000000000E+00 0.  1.
         13    1    4    4    0    0 -0.20968924139E+02  0.97200908820E+02  0.48750337171E+03  0.49754120420E+03  0.00000000000E+00 0. -1.
         21    1    1    2  503  502  0.66245142275E+02 -0.14317129735E+01  0.38659137465E+03  0.39222870832E+03  0.00000000000E+00 0. -1.
          1    1    1    2  501    0 -0.78207627577E+02 -0.65275694204E+02 -0.12961414395E+03  0.16485501381E+03  0.00000000000E+00 0. -1.
<scales pt_clust_5="13000.00000" pt_clust_6="13000.00000" pt_clust_7="13000.00000" pt_clust_8="13000.00000" pt_clust_9="66.26061" pt_clust_10="101.31928"></scales>
<clustering>
<clus scale="   66.261">  1  9  2 -1</clus>
<clus scale="   79.402">  5  6 -1 -1</clus>
<clus scale="   93.421">  7  8 -1 -1</clus>
<clus scale="  101.319">  2 10  1 -1</clus>
<clus scale="  134.837">  1  5  2 -1</clus>
<clus scale="  101.319">  2  5  1 -1</clus>
</clustering>
</event>
<event>
10    4  0.5389768E-005  0.1143336E+03  0.7546771E-02  0.1256374E+00
          2   -1    0    0  503    0 -0.00000000000E+00  0.00000000000E+00  0.14271309873E+03  0.14271309873E+03  0.00000000000E+00 0. -1.
         21   -1    0    0  501  502  0.00000000000E+00 -0.00000000000E+00 -0.33369660758E+03  0.33369660758E+03  0.00000000000E+00 0. -1.
         24    2    1    2    0    0  0.12758602595E+01 -0.75929176303E+02 -0.14867750521E+02  0.11131026196E+03  0.80012853829E+02 0.  0.
         23    2    1    2    0    0 -0.55409237207E+02  0.75005468774E+02 -0.12297017404E+03  0.17880169657E+03  0.90290525962E+02 0.  0.
        -11    1    3    3    0    0 -0.96254465351E+01 -0.46590422381E+02  0.30266340648E+02  0.56385885245E+02  0.00000000000E+00 0.  1.
         12    1    3    3    0    0  0.10901306795E+02 -0.29338753922E+02 -0.45134091169E+02  0.54924376712E+02  0.00000000000E+00 0. -1.
        -11    1    4    4    0    0 -0.74521106959E+02  0.58380943644E+02 -0.12066262555E+03  0.15336622564E+03  0.00000000000E+00 0. -1.
         11    1    4    4    0    0  0.19111869752E+02  0.16624525131E+02 -0.23075484914E+01  0.25435470927E+02  0.00000000000E+00 0.  1.
         21    1    1    2  503  502 -0.19118349501E+02  0.19214555788E+02  0.50945798670E+02  0.57707753759E+02  0.00000000000E+00 0. -1.
          1    1    1    2  501    0  0.73251726448E+02 -0.18290848259E+02 -0.10409138295E+03  0.12858999402E+03  0.00000000000E+00 0. -1.
<scales pt_clust_5="13000.00000" pt_clust_6="13000.00000" pt_clust_7="13000.00000" pt_clust_8="13000.00000" pt_clust_9="27.10554" pt_clust_10="72.31110"></scales>
<clustering>
<clus scale="   27.106">  1  9  2 -1</clus>
<clus scale="   72.311">  2 10  1 -1</clus>
<clus scale="   80.013">  5  6 -1 -1</clus>
<clus scale="   90.291">  7  8 -1 -1</clus>
<clus scale="  106.404">  1  5  2 -1</clus>
<clus scale="   72.311">  2  5  1 -1</clus>
</clustering>
</event>
<event>
10    4  0.5389768E-005  0.1764143E+03  0.7546771E-02  0.1184832E+00
         21   -1    0    0  501  502  0.00000000000E+00  0.00000000000E+00  0.15328142103E+03  0.15328142103E+03  0.00000000000E+00 0.  1.
          2   -1    0    0  503    0 -0.00000000000E+00 -0.00000000000E+00 -0.73164915159E+03  0.73164915159E+03  0.00000000000E+00 0. -1.
         23    2    1    2    0    0 -0.16372004075E+02 -0.10455695783E+03  0.10762410191E+02  0.13770218746E+03  0.87440625625E+02 0.  0.
         24    2    1    2    0    0 -0.12917424661E+03 -0.10472931030E+02 -0.22223329797E+03  0.27569227370E+03  0.99110659270E+02 0.  0.
        -13    1    4    4    0    0 -0.87408576994E+02 -0.52499685457E+02 -0.16030800658E+03  0.18998719240E+03  0.00000000000E+00 0.  1.
         14    1    4    4    0    0 -0.41765669617E+02  0.42026754427E+02 -0.61925291392E+02  0.85705081298E+02  0.00000000000E+00 0. -1.
        -13    1    3    3    0    0 -0.45546925375E+02 -0.47257676645E+02  0.27653107116E+02  0.71221518842E+02  0.00000000000E+00 0.  1.
         13    1    3    3    0    0  0.29174921300E+02 -0.57299281181E+02 -0.16890696925E+02  0.66480668614E+02  0.00000000000E+00 0. -1.
         21    1    1    2  503  502 -0.21680965011E+01  0.66908877292E+02 -0.29105988811E+03  0.29865926567E+03  0.00000000000E+00 0. -1.
          1    1    1    2  501    0  0.14771434719E+03  0.48121011564E+02 -0.75836954675E+02  0.17287684580E+03  0.00000000000E+00 0. -1.
<scales pt_clust_5="13000.00000" pt_clust_6="13000.00000" pt_clust_7="13000.00000" pt_clust_8="13000.00000" pt_clust_9="66.94400" pt_clust_10="145.94200"></scales>
<clustering>
<clus scale="   66.944">  2  9  1 -1</clus>
<clus scale="   87.441">  7  8 -1 -1</clus>
<clus scale="   99.111">  5  6 -1 -1</clus>
<clus scale="  130.069">  2  7  1 -1</clus>
<clus scale="  145.942">  1 10  2 -1</clus>
<clus scale="  145.942">  1  5  2 -1</clus>
</clustering>
</event>
<event>
10    4  0.5389768E-005  0.9079287E+02  0.7546771E-02  0.1306199E+00
         -1   -1    0    0    0  501 -0.00000000000E+00  0.00000000000E+00  0.21733957475E+03  0.21733957475E+03  0.00000000000E+00 0.  1.
         21   -1    0    0  503  502  0.00000000000E+00 -0.00000000000E+00 -0.23113149006E+03  0.23113149006E+03  0.00000000000E+00 0.  1.
         23    2    1    2    0    0  0.51621347144E+02 -0.26990388536E+02  0.11950791197E+03  0.15804142755E+03  0.85450027775E+02 0.  0.
         24    2    1    2    0    0  0.29201626381E+02  0.49930780097E+02 -0.94211642956E+02  0.13445651719E+03  0.76530409399E+02 0.  0.
        -11    1    4    4    0    0  0.26930205097E+01  0.36405522827E+02 -0.90205288936E+00  0.36516135491E+02  0.00000000000E+00 0.  1.
         12    1    4    4    0    0  0.26508605871E+02  0.13525257269E+02 -0.93309590066E+02  0.97940381701E+02  0.00000000000E+00 0. -1.
        -13    1    3    3    0    0  0.55939452569E+02  0.19705680016E+01  0.11568077574E+03  0.12851127331E+03  0.00000000000E+00 0. -1.
         13    1    3    3    0    0 -0.43181054257E+01 -0.28960956537E+02  0.38271362268E+01  0.29530154245E+02  0.00000000000E+00 0.  1.
         21    1    1    2  503  501 -0.25866542672E+02  0.13598730804E+02  0.42160982129E+02  0.51298654206E+02  0.00000000000E+00 0.  1.
         -2    1    1    2    0  502 -0.54956430852E+02 -0.36539122365E+02 -0.81249166450E+02  0.10467446586E+03  0.00000000000E+00 0.  1.
<scales pt_clust_5="13000.00000" pt_clust_6="13000.00000" pt_clust_7="13000.00000" pt_clust_8="13000.00000" pt_clust_9="29.22334" pt_clust_10="66.97984"></scales>
<clustering>
<clus scale="   29.223">  1  9  2 -1</clus>
<clus scale="   66.980">  2 10  1 -1</clus>
<clus scale="   76.530">  5  6 -1 -1</clus>
<clus scale="   82.453">  2  5  1 -1</clus>
<clus scale="   85.450">  7  8 -1 -1</clus>
<clus scale="   66.980">  2  5  1 -1</clus>
</clustering>
</event>
<event>
10    4  0.5389768E-005  0.1676582E+03  0.7546771E-02  0.1181837E+00
          2   -1    0    0  503    0 -0.00000000000E+00  0.00000000000E+00  0.23256661952E+03  0.23256661952E+03  0.00000000000E+00 0. -1.
         21   -1    0    0  501  502  0.00000000000E+00 -0.00000000000E+00 -0.45067732281E+03  0.45067732281E+03  0.00000000000E+00 0. -1.
         23    2    1    2    0    0 -0.73179702325E+02  0.87451438151E+02  0.63835481434E+02  0.15949892963E+03  0.91443518063E+02 0.  0.
         24    2    1    2    0    0  0.81567231268E+02 -0.19865327480E+03 -0.26034977207E+03  0.34698939600E+03  0.80643042565E+02 0.  0.
        -11    1    4    4    0    0  0.36848447719E+01 -0.49818173167E+02 -0.20118009790E+02  0.53853159393E+02  0.00000000000E+00 0.  1.
         12    1    4    4    0    0  0.77882386496E+02 -0.14883510164E+03 -0.24023176228E+03  0.29313623661E+03  0.00000000000E+00 0. -1.
        -13    1    3    3    0    0 -0.17714583939E+02  0.68233488538E+02 -0.29827643131E+01  0.70558573718E+02  0.00000000000E+00 0. -1.
         13    1    3    3    0    0 -0.55465118386E+02  0.19217949614E+02  0.66818245747E+02  0.88940355911E+02  0.00000000000E+00 0.  1.
         21    1    1    2  503  502 -0.84053584748E+01  0.21552255188E+02  0.54473148192E+02  0.59181700116E+02  0.00000000000E+00 0. -1.
          1    1    1    2  501    0  0.17829532135E-01  0.89649581464E+02 -0.76069560850E+02  0.11757391659E+03  0.00000000000E+00 0. -1.
<scales pt_clust_5="13000.00000" pt_clust_6="13000.00000" pt_clust_7="13000.00000" pt_clust_8="13000.00000" pt_clust_9="23.13330" pt_clust_10="92.19973"></scales>
<clustering>
<clus scale="   23.133">  1  9  2 -1</clus>
<clus scale="   80.643">  5  6 -1 -1</clus>
<clus scale="   91.444">  7  8 -1 -1</clus>
<clus scale="   92.200">  2 10  1 -1</clus>
<clus scale="  162.021">  2  5  1 -1</clus>
<clus scale="   92.200">  2  5  1 -1</clus>
</clustering>
</event>
<event>
10    4  0.5389768E-005  0.9353391E+02  0.7546771E-02  0.1302572E+00
         -1   -1    0    0    0  501 -0.00000000000E+00  0.00000000000E+00  0.52883106900E+02  0.52883106900E+02  0.00000000000E+00 0.  1.
         21   -1    0    0  503  502  0.00000000000E+00 -0.00000000000E+00 -0.59290330144E+03  0.59290330144E+03  0.00000000000E+00 0. -1.
         24    2    1    2    0    0 -0.16326638570E+02  0.13942783101E+02 -0.55933168499E+02  0.99453314075E+02  0.79381874598E+02 0.  0.
         23    2    1    2    0    0 -0.47514221941E+02 -0.21877176369E+02 -0.37446885052E+03  0.38925322165E+03  0.92492910117E+02 0.  0.
        -13    1    3    3    0    0 -0.22421772082E+02  0.93130960271E+01  0.14716043650E+02  0.28390694983E+02  0.00000000000E+00 0.  1.
         14    1    3    3    0    0  0.60951335116E+01  0.46296870738E+01 -0.70649212149E+02  0.71062619092E+02  0.00000000000E+00 0. -1.
        -11    1    4    4    0    0  0.14547808527E+02 -0.20881638169E+02 -0.30473636962E+02  0.39702948193E+02  0.00000000000E+00 0.  1.
         11    1    4    4    0    0 -0.62062030468E+02 -0.99553820056E+00 -0.34399521356E+03  0.34955027346E+03  0.00000000000E+00 0. -1.
         21    1    1    2  503  501 -0.17258124654E+02 -0.18183110765E+02 -0.12925210922E+02  0.28205131821E+02  0.00000000000E+00 0. -1.
         -2    1    1    2    0  502  0.81098985166E+02  0.26117504034E+02 -0.96692964604E+02  0.12887474080E+03  0.00000000000E+00 0.  1.
<scales pt_clust_5="13000.00000" pt_clust_6="13000.00000" pt_clust_7="13000.00000" pt_clust_8="13000.00000" pt_clust_9="25.06927" pt_clust_10="77.49397"></scales>
<clustering>
<clus scale="   25.069">  1  9  2 -1</clus>
<clus scale="   77.494">  2 10  1 -1</clus>
<clus scale="   79.382">  5  6 -1 -1</clus>
<clus scale="   80.592">  1  5  2 -1</clus>
<clus scale="   92.493">  7  8 -1 -1</clus>
<clus scale="   77.494">  2  5  1 -1</clus>
</clustering>
</event>
<event>
10    4  0.5389768E-005  0.1133227E+03  0.7546771E-02  0.1258799E+00
         21   -1    0    0  501  502  0.00000000000E+00  0.00000000000E+00  0.16868967670E+03  0.16868967670E+03  0.00000000000E+00 0.  1.
          2   -1    0    0  503    0 -0.00000000000E+00 -0.00000000000E+00 -0.37123736118E+03  0.37123736118E+03  0.00000000000E+00 0. -1.
         23    2    1    2    0    0 -0.40887735824E+01  0.52280154358E+02 -0.20160745442E+03  0.22814960620E+03  0.93041627899E+02 0.  0.
         24    2    1    2    0    0  0.33302477229E+02 -0.90758835154E+02  0.83415164263E+02  0.15155966297E+03  0.81645702038E+02 0.  0.
        -13    1    4    4    0    0  0.34394123035E+02 -0.10337416326E+03  0.85799205468E+02  0.13867471647E+03  0.00000000000E+00 0.  1.
         14    1    4    4    0    0 -0.10916458062E+01  0.12615328105E+02 -0.23840412050E+01  0.12884946497E+02  0.00000000000E+00 0. -1.
        -13    1    3    3    0    0 -0.23370080350E+02 -0.18275461319E+02 -0.89524550953E+02  0.94312238682E+02  0.00000000000E+00 0.  1.
         13    1    3    3    0    0  0.19281306767E+02  0.70555615677E+02 -0.11208290346E+03  0.13383736751E+03  0.00000000000E+00 0. -1.
         21    1    1    2  503  502  0.40827962973E+02  0.77718305225E+01 -0.71451351952E+02  0.82659661298E+02  0.00000000000E+00 0. -1.
          1    1    1    2  501    0 -0.70041666619E+02  0.30706850273E+02 -0.12904042380E+02  0.77558107417E+02  0.00000000000E+00 0. -1.
<scales pt_clust_5="13000.00000" pt_clust_6="13000.00000" pt_clust_7="13000.00000" pt_clust_8="13000.00000" pt_clust_9="41.56109" pt_clust_10="71.29942"></scales>
<clustering>
<clus scale="   41.561">  2  9  1 -1</clus>
<clus scale="   71.299">  1 10  2 -1</clus>
<clus scale="   81.646">  5  6 -1 -1</clus>
<clus scale="   93.042">  7  8 -1 -1</clus>
<clus scale="  104.170">  1  5  2 -1</clus>
<clus scale="   71.299">  1  5  2 -1</clus>
</clustering>
</event>
<event>
10    4  0.5389768E-005  0.9197268E+02  0.7546771E-02  0.1306768E+00
         21   -1    0    0  501  502  0.00000000000E+00  0.00000000000E+00  0.24159676771E+03  0.24159676771E+03  0.00000000000E+00 0.  1.
          2   -1    0    0  503    0 -0.00000000000E+00 -0.00000000000E+00 -0.71037853768E+03  0.71037853768E+03  0.00000000000E+00 0. -1.
         23    2    1    2    0    0  0.48601495397E+02  0.13466961077E+02 -0.17551088635E+02  0.10574471797E+03  0.91271245590E+02 0.  0.
         24    2    1    2    0    0  0.59205917076E+02  0.24737361330E+02  0.17646915383E+03  0.20320556338E+03  0.77677931693E+02 0.  0.
        -11    1    4    4    0    0  0.57698398583E+02  0.47306653472E+02  0.15498202399E+03  0.17200712899E+03  0.00000000000E+00 0.  1.
         12    1    4    4    0    0  0.15075184925E+01 -0.22569292141E+02  0.21487129836E+02  0.31198434390E+02  0.00000000000E+00 0. -1.
        -13    1    3    3    0    0  0.52646735871E+02 -0.29208763575E+02 -0.23167302551E+01  0.60251123695E+02  0.00000000000E+00 0.  1.
         13    1    3    3    0    0 -0.40452404746E+01  0.42675724652E+02 -0.15234358380E+02  0.45493594278E+02  0.00000000000E+00 0. -1.
         21    1    1    2  503  502 -0.83869378797E+02  0.15290092059E+01 -0.50361457665E+03  0.51055269306E+03  0.00000000000E+00 0. -1.
          1    1    1    2  501    0 -0.23938033675E+02 -0.39733331613E+02 -0.12408525851E+03  0.13247233098E+03  0.00000000000E+00 0. -1.
<scales pt_clust_5="13000.00000" pt_clust_6="13000.00000" pt_clust_7="13000.00000" pt_clust_8="13000.00000" pt_clust_9="84.22451" pt_clust_10="46.38717"></scales>
<clustering>
<clus scale="   46.387">  1 10  2 -1</clus>
<clus scale="   77.678">  5  6 -1 -1</clus>
<clus scale="   84.225">  2  9  1 -1</clus>
<clus scale="   78.501">  1  5  2 -1</clus>
<clus scale="   91.271">  7  8 -1 -1</clus>
<clus scale="   46.387">  1  5  2 -1</clus>
</clustering>
</event>
<event>
10    4  0.5389768E-005  0.2230962E+03  0.7546771E-02  0.1134823E+00
          2   -1    0    0  503    0 -0.00000000000E+00  0.00000000000E+00  0.25573944518E+03  0.25573944518E+03  0.00000000000E+00 0. -1.
         21   -1    0    0  501  502  0.00000000000E+00 -0.00000000000E+00 -0.76149071957E+03  0.76149071957E+03  0.00000000000E+00 0. -1.
         24    2    1    2    0    0  0.79863359951E+02  0.15892967405E+03 -0.22733773089E+02  0.19653238506E+03  0.80444741164E+02 0.  0.
         23    2    1    2    0    0 -0.39704270693E+02 -0.32279402356E+03 -0.47747513153E+03  0.58947800132E+03  0.11717253114E+03 0.  0.
        -13    1    3    3    0    0  0.79631103299E+02  0.69454981188E+02 -0.14987735643E+02  0.10672272131E+03  0.00000000000E+00 0.  1.
         14    1    3    3    0    0  0.23225665270E+00  0.89474692864E+02 -0.77460374467E+01  0.89809663747E+02  0.00000000000E+00 0. -1.
        -13    1    4    4    0    0 -0.39294278224E+02 -0.27488689993E+03 -0.46218878504E+03  0.53918950386E+03  0.00000000000E+00 0. -1.
         13    1    4    4    0    0 -0.40999246847E+00 -0.47907123624E+02 -0.15286346492E+02  0.50288497461E+02  0.00000000000E+00 0.  1.
         21    1    1    2  503  502 -0.27464937193E+02 -0.22091811398E+02  0.23807329275E+02  0.42534219554E+02  0.00000000000E+00 0. -1.
          1    1    1    2  501    0 -0.12694152065E+02  0.18595616090E+03 -0.29349699042E+02  0.18868555882E+03  0.00000000000E+00 0. -1.
<scales pt_clust_5="13000.00000" pt_clust_6="13000.00000" pt_clust_7="13000.00000" pt_clust_8="13000.00000" pt_clust_9="35.24728" pt_clust_10="179.46773"></scales>
<clustering>
<clus scale="   35.247">  1  9  2 -1</clus>
<clus scale="   80.445">  5  6 -1 -1</clus>
<clus scale="  117.173">  7  8 -1 -1</clus>
<clus scale="  179.468">  2 10  1 -1</clus>
<clus scale="  206.189">  1  5  2 -1</clus>
<clus scale="  179.468">  2  5  1 -1</clus>
</clustering>
</event>
<event>
10    4  0.5587795E-005  0.1414677E+03  0.7546771E-02  0.1213470E+00
          2   -1    0    0  503    0 -0.00000000000E+00  0.00000000000E+00  0.41853663233E+03  0.41853663233E+03  0.00000000000E+00 0. -1.
         21   -1    0    0  501  502  0.00000000000E+00 -0.00000000000E+00 -0.41529065170E+03  0.41529065170E+03  0.00000000000E+00 0. -1.
         24    2    1    2    0    0  0.11827546093E+03  0.13738315381E+02  0.27969269039E+03  0.31455669969E+03  0.80870824755E+02 0.  0.
         23    2    1    2    0    0 -0.65154908749E+02 -0.44602156683E+02  0.72101159483E+01  0.12057603752E+03  0.90840962878E+02 0.  0.
        -11    1    3    3    0    0  0.28742550549E+02 -0.18177454802E+02  0.23603485295E+02  0.41396601228E+02  0.00000000000E+00 0.  1.
         12    1    3    3    0    0  0.89532910383E+02  0.31915770182E+02  0.25608920509E+03  0.27316009846E+03  0.00000000000E+00 0. -1.
        -11    1    4    4    0    0 -0.24348778489E+02  0.46062675836E+01  0.41272830125E+02  0.48140702337E+02  0.00000000000E+00 0.  1.
         11    1    4    4    0    0 -0.40806130260E+02 -0.49208424267E+02 -0.34062714177E+02  0.72435335181E+02  0.00000000000E+00 0. -1.
         21    1    1    2  503  502 -0.38052218448E+01  0.26763246433E+02  0.52427612311E+02  0.58986486635E+02  0.00000000000E+00 0. -1.
          1    1    1    2  501    0 -0.49315330338E+02  0.41005948704E+01 -0.33608443801E+03  0.33970806019E+03  0.00000000000E+00 0. -1.
<scales pt_clust_5="13000.00000" pt_clust_6="13000.00000" pt_clust_7="13000.00000" pt_clust_8="13000.00000" pt_clust_9="27.03241" pt_clust_10="49.51571"></scales>
<clustering>
<clus scale="   27.032">  1  9  2 -1</clus>
<clus scale="   49.516">  2 10  1 -1</clus>
<clus scale="   80.871">  5  6 -1 -1</clus>
<clus scale="   90.841">  7  8 -1 -1</clus>
<clus scale="  135.282">  1  5  2 -1</clus>
<clus scale="   49.516">  2  5  1 -1</clus>
</clustering>
</event>
<event>
10    4  0.5389768E-005  0.1335515E+03  0.7546771E-02  0.1224096E+00
          2   -1    0    0  503    0 -0.00000000000E+00  0.00000000000E+00  0.14268964154E+03  0.14268964154E+03  0.00000000000E+00 0. -1.
         21   -1    0    0  501  502  0.00000000000E+00 -0.00000000000E+00 -0.40780589480E+03  0.40780589480E+03  0.00000000000E+00 0. -1.
         24    2    1    2    0    0  0.33418991324E+02  0.10475991293E+03  0.25215559241E+02  0.14132017903E+03  0.85112280170E+02 0.  0.
         23    2    1    2    0    0 -0.10523299388E+03 -0.55767361215E+02 -0.12785014460E+03  0.19767903440E+03  0.92451931231E+02 0.  0.
        -13    1    3    3    0    0  0.50483750219E+02  0.49583316141E+02 -0.13164940766E+02  0.71975203655E+02  0.00000000000E+00 0.  1.
         14    1    3    3    0    0 -0.17064758896E+02  0.55176596787E+02  0.38380500007E+02  0.69344975376E+02  0.00000000000E+00 0. -1.
        -13    1    4    4    0    0 -0.36396706315E+02 -0.65739088215E+02 -0.93947585276E+02  0.12030169047E+03  0.00000000000E+00 0.  1.
         13    1    4    4    0    0 -0.68836287566E+02  0.99717270000E+01 -0.33902559325E+02  0.77377343933E+02  0.00000000000E+00 0. -1.
         21    1    1    2  503  502 -0.12316420777E+02 -0.18992924580E+02  0.35987683275E+01  0.22921093742E+02  0.00000000000E+00 0. -1.
          1    1    1    2  501    0  0.84130423335E+02 -0.29999627133E+02 -0.16608043623E+03  0.18857522917E+03  0.00000000000E+00 0. -1.
<scales pt_clust_5="13000.00000" pt_clust_6="13000.00000" pt_clust_7="13000.00000" pt_clust_8="13000.00000" pt_clust_9="22.63682" pt_clust_10="88.88596"></scales>
<clustering>
<clus scale="   22.637">  1  9  2 -1</clus>
<clus scale="   85.112">  5  6 -1 -1</clus>
<clus scale="   88.886">  2 10  1 -1</clus>
<clus scale="   92.452">  7  8 -1 -1</clus>
<clus scale="  128.580">  1  5  2 -1</clus>
<clus scale="   88.886">  2  5  1 -1</clus>
</clustering>
</event>
<event>
10    4  0.5389768E-005  0.2537180E+03  0.7546771E-02  0.1121016E+00
         21   -1    0    0  501  502  0.00000000000E+00  0.00000000000E+00  0.58952775030E+03  0.58952775030E+03  0.00000000000E+00 0. -1.
          2   -1    0    0  503    0 -0.00000000000E+00 -0.00000000000E+00 -0.60493403900E+03  0.60493403900E+03  0.00000000000E+00 0. -1.
         24    2    1    2    0    0 -0.34206370773E+02 -0.19058135678E+03 -0.22744304553E+03  0.30919448691E+03  0.79872162999E+02 0.  0.
         23    2    1    2    0    0 -0.22248753978E+03  0.13952148659E+03 -0.16778687318E+03  0.32487489475E+03  0.91784050090E+02 0.  0.
        -13    1    3    3    0    0  0.68155867686E+01 -0.31630844644E+02 -0.50065360460E+01  0.32741838053E+02  0.00000000000E+00 0.  1.
         14    1    3    3    0    0 -0.41021957542E+02 -0.15895051213E+03 -0.22243650948E+03  0.27645264885E+03  0.00000000000E+00 0. -1.
        -11    1    4    4    0    0 -0.74064840628E+02  0.64843924336E+02 -0.15808826829E+02  0.99700823198E+02  0.00000000000E+00 0.  1.
         11    1    4    4    0    0 -0.14842269915E+03  0.74677562252E+02 -0.15197804635E+03  0.22517407155E+03  0.00000000000E+00 0. -1.
         21    1    1    2  503  502  0.18548067175E+02  0.24858512815E+02 -0.55452492644E+02  0.63537039558E+02  0.00000000000E+00 0. -1.
          1    1    1    2  501    0  0.23814584338E+03  0.26201357375E+02  0.43527612265E+03  0.49685536808E+03  0.00000000000E+00 0. -1.
<scales pt_clust_5="13000.00000" pt_clust_6="13000.00000" pt_clust_7="13000.00000" pt_clust_8="13000.00000" pt_clust_9="31.01575" pt_clust_10="236.53439"></scales>
<clustering>
<clus scale="   31.016">  2  9  1 -1</clus>
<clus scale="   79.872">  5  6 -1 -1</clus>
<clus scale="   91.784">  7  8 -1 -1</clus>
<clus scale="  197.024">  2  5  1 -1</clus>
<clus scale="  236.534">  1 10  2 -1</clus>
<clus scale="  236.534">  1  5  2 -1</clus>
</clustering>
</event>
<event>
10    4  0.5389768E-005  0.9806390E+02  0.7546771E-02  0.1289924E+00
          2   -1    0    0  503    0 -0.00000000000E+00  0.00000000000E+00  0.19139464050E+04  0.19139464050E+04  0.00000000000E+00 0. -1.
         21   -1    0    0  501  502  0.00000000000E+00 -0.00000000000E+00 -0.17413052587E+02  0.17413052587E+02  0.00000000000E+00 0. -1.
         24    2    1    2    0    0  0.28627631460E+02  0.20688891291E+02  0.11763593737E+04  0.11795777040E+04  0.79590275709E+02 0.  0.
         23    2    1    2    0    0 -0.31917503030E+02 -0.44887552099E+02  0.37747447737E+03  0.39198721610E+03  0.90185238190E+02 0.  0.
        -11    1    3    3    0    0  0.17234215201E+02  0.31931185490E+02  0.21181087371E+03  0.21489640528E+03  0.00000000000E+00 0.  1.
         12    1    3    3    0    0  0.11393416259E+02 -0.11242294199E+02  0.96454850002E+03  0.96468129867E+03  0.00000000000E+00 0. -1.
        -11    1    4    4    0    0 -0.51804657154E+02  0.48909431898E+01  0.18089925546E+03  0.18823438701E+03  0.00000000000E+00 0.  1.
         11    1    4    4    0    0  0.19887154124E+02 -0.49778495289E+02  0.19657522191E+03  0.20375282909E+03  0.00000000000E+00 0. -1.
         21    1    1    2  503  502  0.44167643791E+02 -0.13218017501E+02  0.22535689399E+03  0.23002440396E+03  0.00000000000E+00 0. -1.
          1    1    1    2  501    0 -0.40877772221E+02  0.37416678309E+02  0.11734260734E+03  0.12977013360E+03  0.00000000000E+00 0. -1.
<scales pt_clust_5="13000.00000" pt_clust_6="13000.00000" pt_clust_7="13000.00000" pt_clust_8="13000.00000" pt_clust_9="46.10311" pt_clust_10="39.19622"></scales>
<clustering>
<clus scale="   46.103">  2  9  1 -1</clus>
<clus scale="   39.196">  2 10  1 -1</clus>
<clus scale="   79.590">  5  6 -1 -1</clus>
<clus scale="   88.418">  1  5  2 -1</clus>
<clus scale="   90.185">  7  8 -1 -1</clus>
<clus scale="   46.103">  2  5  1 -1</clus>
</clustering>
</event>
<event>
10    4  0.5389768E-005  0.1182504E+03  0.7546771E-02  0.1261582E+00
          2   -1    0    0  503    0 -0.00000000000E+00  0.00000000000E+00  0.65259102468E+03  0.65259102468E+03  0.00000000000E+00 0. -1.
         21   -1    0    0  501  502  0.00000000000E+00 -0.00000000000E+00 -0.99558494220E+02  0.99558494220E+02  0.00000000000E+00 0. -1.
         24    2    1    2    0    0  0.10650878488E+02 -0.41245735936E+02  0.17509002866E+03  0.19679584731E+03  0.79103953354E+02 0.  0.
         23    2    1    2    0    0  0.72580516562E+02 -0.53411653016E+01 -0.30636613428E+02  0.12024281816E+03  0.90682268415E+02 0.  0.
        -13    1    3    3    0    0  0.29705181222E+02 -0.56579141401E+02  0.14134801219E+03  0.15512207317E+03  0.00000000000E+00 0.  1.
         14    1    3    3    0    0 -0.19054302733E+02  0.15333405465E+02  0.33742016467E+02  0.41673774140E+02  0.00000000000E+00 0. -1.
        -11    1    4    4    0    0  0.93402966439E+02  0.37847345291E+01 -0.23097271386E+02  0.96290821476E+02  0.00000000000E+00 0. -1.
         11    1    4    4    0    0 -0.20822449877E+02 -0.91258998307E+01 -0.75393420420E+01  0.23951996681E+02  0.00000000000E+00 0.  1.
         21    1    1    2  503  502  0.17625189338E+02  0.30271645489E+02  0.42672349729E+02  0.55208235356E+02  0.00000000000E+00 0.  1.
          1    1    1    2  501    0 -0.10085658439E+03  0.16315255749E+02  0.36590676550E+03  0.37990261808E+03  0.00000000000E+00 0. -1.
<scales pt_clust_5="13000.00000" pt_clust_6="13000.00000" pt_clust_7="13000.00000" pt_clust_8="13000.00000" pt_clust_9="35.02884" pt_clust_10="75.89386"></scales>
<clustering>
<clus scale="   35.029">  1  9  2 -1</clus>
<clus scale="   79.104">  5  6 -1 -1</clus>
<clus scale="   86.804">  1  5  2 -1</clus>
<clus scale="   75.894">  2 10  1 -1</clus>
<clus scale="   90.682">  7  8 -1 -1</clus>
<clus scale="   75.894">  2  5  1 -1</clus>
</clustering>
</event>
<event>
10    4  0.5389768E-005  0.1259844E+03  0.7546771E-02  0.1233621E+00
          2   -1    0    0  503    0 -0.00000000000E+00  0.00000000000E+00  0.62287491543E+03  0.62287491543E+03  0.00000000000E+00 0. -1.
         21   -1    0    0  501  502  0.00000000000E+00 -0.00000000000E+00 -0.46207854367E+02  0.46207854367E+02  0.00000000000E+00 0.  1.
         24    2    1    2    0    0  0.86462967494E+02 -0.27031795974E+02  0.17093116892E+03  0.21265235221E+03  0.88300598244E+02 0.  0.
         23    2    1    2    0    0 -0.79504681641E+02  0.44230031225E+02  0.18917549281E+03  0.22784846042E+03  0.88601714260E+02 0.  0.
        -13    1    3    3    0    0  0.10473454134E+03 -0.23881189967E+02  0.15224757849E+03  0.18633024591E+03  0.00000000000E+00 0.  1.
         14    1    3    3    0    0 -0.18271573842E+02 -0.31506060070E+01  0.18683590427E+02  0.26322106301E+02  0.00000000000E+00 0. -1.
        -11    1    4    4    0    0 -0.39903688281E+02 -0.72534599119E+01  0.17269774233E+02  0.44081312607E+02  0.00000000000E+00 0.  1.
         11    1    4    4    0    0 -0.39600993360E+02  0.51483491137E+02  0.17190571858E+03  0.18376714781E+03  0.00000000000E+00 0. -1.
         21    1    1    2  503  502 -0.32849747239E+02  0.11126155327E+02  0.97012096577E+02  0.10302545369E+03  0.00000000000E+00 0. -1.
          1    1    1    2  501    0  0.25891461386E+02 -0.28324390578E+02  0.11954830276E+03  0.12555650348E+03  0.00000000000E+00 0. -1.
<scales pt_clust_5="13000.00000" pt_clust_6="13000.00000" pt_clust_7="13000.00000" pt_clust_8="13000.00000" pt_clust_9="34.68281" pt_clust_10="31.50051"></scales>
<clustering>
<clus scale="   34.683">  1  9  2 -1</clus>
<clus scale="   31.501">  2 10  1 -1</clus>
<clus scale="   88.301">  5  6 -1 -1</clus>
<clus scale="   88.602">  7  8 -1 -1</clus>
<clus scale="  125.773">  1  5  2 -1</clus>
<clus scale="   31.501">  2  5  1 -1</clus>
</clustering>
</event>
<event>
10    4  0.1367771E-004  0.2193709E+03  0.7546771E-02  0.1162195E+00
          4   -1    0    0  503    0 -0.00000000000E+00  0.00000000000E+00  0.16957627455E+03  0.16957627455E+03  0.00000000000E+00 0. -1.
         21   -1    0    0  501  502  0.00000000000E+00 -0.00000000000E+00 -0.12035108458E+04  0.12035108458E+04  0.00000000000E+00 0. -1.
         23    2    1    2    0    0  0.68804730583E+02 -0.44865274452E+01 -0.18417972864E+03  0.21687378314E+03  0.91421252949E+02 0.  0.
         24    2    1    2    0    0 -0.16310390266E+03  0.16062354001E+03  0.22260023953E+02  0.24326744297E+03  0.79251091328E+02 0.  0.
        -13    1    4    4    0    0 -0.20013396376E+02  0.18160936963E+02 -0.23972336420E+02  0.36125179298E+02  0.00000000000E+00 0.  1.
         14    1    4    4    0    0 -0.14309050628E+03  0.14246260304E+03  0.46232360373E+02  0.20714226367E+03  0.00000000000E+00 0. -1.
        -13    1    3    3    0    0  0.46583024504E+02  0.24099340919E+02 -0.17013920516E+03  0.17803961788E+03  0.00000000000E+00 0. -1.
         13    1    3    3    0    0  0.22221706080E+02 -0.28585868365E+02 -0.14040523484E+02  0.38834165254E+02  0.00000000000E+00 0.  1.
         21    1    1    2  503  502 -0.21422041362E+02  0.10307749145E+02 -0.74209678492E+01  0.24904303089E+02  0.00000000000E+00 0. -1.
          3    1    1    2  501    0  0.11572121344E+03 -0.16644476171E+03 -0.86459389873E+03  0.88804159118E+03  0.00000000000E+00 0. -1.
<scales pt_clust_5="13000.00000" pt_clust_6="13000.00000" pt_clust_7="13000.00000" pt_clust_8="13000.00000" pt_clust_9="23.77296" pt_clust_10="204.55524"></scales>
<clustering>
<clus scale="   23.773">  1  9  2 -1</clus>
<clus scale="   79.251">  5  6 -1 -1</clus>
<clus scale="   91.421">  7  8 -1 -1</clus>
<clus scale="  113.176">  1  7  2 -1</clus>
<clus scale="  204.555">  2 10  1 -1</clus>
<clus scale="  204.555">  2  5  1 -1</clus>
</clustering>
</event>
<event>
10    4  0.5389768E-005  0.1960681E+03  0.7546771E-02  0.1153464E+00
         -1   -1    0    0    0  501 -0.00000000000E+00  0.00000000000E+00  0.30454659178E+03  0.30454659178E+03  0.00000000000E+00 0.  1.
         21   -1    0    0  501  502  0.00000000000E+00 -0.00000000000E+00 -0.34515795456E+03  0.34515795456E+03  0.00000000000E+00 0. -1.
         24    2    1    2    0    0  0.10289045091E+03  0.16212875988E+03  0.13612447670E+03  0.24895053994E+03  0.81082171357E+02 0.  0.
         23    2    1    2    0    0  0.20049975928E+02 -0.14227610704E+03 -0.19906970556E+03  0.25981308051E+03  0.85027036645E+02 0.  0.
        -13    1    3    3    0    0  0.77643219825E+02  0.93280982535E+02  0.12596352418E+03  0.17491889753E+03  0.00000000000E+00 0.  1.
         14    1    3    3    0    0  0.25247231087E+02  0.68847777341E+02  0.10160952518E+02  0.74031642413E+02  0.00000000000E+00 0. -1.
        -11    1    4    4    0    0  0.21348494224E+01 -0.98216452044E+02 -0.18622145299E+03  0.21054562116E+03  0.00000000000E+00 0. -1.
         11    1    4    4    0    0  0.17915126506E+02 -0.44059655000E+02 -0.12848252562E+02  0.49267459345E+02  0.00000000000E+00 0.  1.
         21    1    1    2  503  502 -0.73484872659E+02  0.21851861872E+01  0.40370266490E+02  0.83872283651E+02  0.00000000000E+00 0.  1.
         -2    1    1    2    0  503 -0.49455554182E+02 -0.22037839019E+02 -0.18036400416E+02  0.57068642248E+02  0.00000000000E+00 0.  1.
<scales pt_clust_5="13000.00000" pt_clust_6="13000.00000" pt_clust_7="13000.00000" pt_clust_8="13000.00000" pt_clust_9="53.29749" pt_clust_10="139.16020"></scales>
<clustering>
<clus scale="   53.297">  9 10 -1 -1</clus>
<clus scale="   81.082">  5  6 -1 -1</clus>
<clus scale="   85.027">  7  8 -1 -1</clus>
<clus scale="  139.160">  2  9  1 -1</clus>
<clus scale="  194.390">  1  5  2 -1</clus>
<clus scale="  139.160">  2  5  1 -1</clus>
</clustering>
</event>
<event>
10    4  0.5848421E-005  0.3162071E+03  0.7546771E-02  0.1095790E+00
         21   -1    0    0  503  502  0.00000000000E+00  0.00000000000E+00  0.55014569810E+03  0.55014569810E+03  0.00000000000E+00 0.  1.
         -3   -1    0    0    0  501 -0.00000000000E+00 -0.00000000000E+00 -0.12298927571E+04  0.12298927571E+04  0.00000000000E+00 0.  1.
         23    2    1    2    0    0  0.73834957946E+02  0.28276636824E+03 -0.94207315983E+03  0.99053021494E+03  0.90773609674E+02 0.  0.
         24    2    1    2    0    0  0.88575560098E+02  0.14427872433E+03  0.50073375519E+02  0.19381281342E+03  0.79963013750E+02 0.  0.
        -13    1    4    4    0    0  0.54863873909E+01  0.48201531621E+02  0.45803034553E+02  0.66718858439E+02  0.00000000000E+00 0.  1.
         14    1    4    4    0    0  0.83089172707E+02  0.96077192709E+02  0.42703409660E+01  0.12709395498E+03  0.00000000000E+00 0. -1.
        -11    1    3    3    0    0  0.37335312395E+02  0.24631085879E+03 -0.69966804961E+03  0.74269667049E+03  0.00000000000E+00 0.  1.
         11    1    3    3    0    0  0.36499645551E+02  0.36455509451E+02 -0.24240511022E+03  0.24783354445E+03  0.00000000000E+00 0. -1.
         21    1    1    2  503  501 -0.24033309656E+03 -0.41008418637E+03  0.19687523856E+03  0.51447924814E+03  0.00000000000E+00 0.  1.
         -4    1    1    2    0  502  0.77922578520E+02 -0.16960906198E+02  0.15377486769E+02  0.81216178693E+02  0.00000000000E+00 0.  1.
<scales pt_clust_5="13000.00000" pt_clust_6="13000.00000" pt_clust_7="13000.00000" pt_clust_8="13000.00000" pt_clust_9="302.89781" pt_clust_10="79.74710"></scales>
<clustering>
<clus scale="   79.747">  1 10  2 -1</clus>
<clus scale="   79.963">  5  6 -1 -1</clus>
<clus scale="   90.774">  7  8 -1 -1</clus>
<clus scale="  193.898">  1  5  2 -1</clus>
<clus scale="  302.898">  1  9  2 -1</clus>
<clus scale="   79.747">  1  5  2 -1</clus>
</clustering>
</event>
<event>
10    4  0.5389768E-005  0.1701229E+03  0.7546771E-02  0.1187695E+00
         -3   -1    0    0    0  501 -0.00000000000E+00  0.00000000000E+00  0.56085874497E+02  0.56085874497E+02  0.00000000000E+00 0.  1.
         21   -1    0    0  503  502  0.00000000000E+00 -0.00000000000E+00 -0.13974484679E+04  0.13974484679E+04  0.00000000000E+00 0.  1.
         23    2    1    2    0    0 -0.74979170604E+02  0.60789901363E+02 -0.16834966499E+03  0.21499885015E+03  0.92550568518E+02 0.  0.
         24    2    1    2    0    0 -0.67130745487E+01  0.13178852000E+03 -0.52369720282E+03  0.54594515348E+03  0.79900381677E+02 0.  0.
        -11    1    4    4    0    0  0.54268007709E+01  0.13900815616E+03 -0.49101307823E+03  0.51033965223E+03  0.00000000000E+00 0.  1.
         12    1    4    4    0    0 -0.12139875320E+02 -0.72196361562E+01 -0.32684124583E+02  0.35605501243E+02  0.00000000000E+00 0. -1.
        -13    1    3    3    0    0 -0.32936258558E+02 -0.11496474634E+02 -0.10608199015E+02  0.36462308527E+02  0.00000000000E+00 0.  1.
         13    1    3    3    0    0 -0.42042912046E+02  0.72286375997E+02 -0.15774146598E+03  0.17853654163E+03  0.00000000000E+00 0. -1.
         21    1    1    2  503  501 -0.31069232542E+02 -0.34932265587E+02 -0.11095085822E+03  0.12039789587E+03  0.00000000000E+00 0. -1.
         -4    1    1    2    0  502  0.11276147769E+03 -0.15764615578E+03 -0.53836486736E+03  0.57219244289E+03  0.00000000000E+00 0.  1.
<scales pt_clust_5="13000.00000" pt_clust_6="13000.00000" pt_clust_7="13000.00000" pt_clust_8="13000.00000" pt_clust_9="46.74998" pt_clust_10="150.19244"></scales>
<clustering>
<clus scale="   46.750">  1  9  2 -1</clus>
<clus scale="   79.900">  5  6 -1 -1</clus>
<clus scale="   92.551">  7  8 -1 -1</clus>
<clus scale="  136.091">  1  7  2 -1</clus>
<clus scale="  150.192">  2 10  1 -1</clus>
<clus scale="  150.192">  2  5  1 -1</clus>
</clustering>
</event>
<event>
10    4  0.5389768E-005  0.1151791E+03  0.7546771E-02  0.1255461E+00
         -1   -1    0    0    0  501 -0.00000000000E+00  0.00000000000E+00  0.68563205556E+03  0.68563205556E+03  0.00000000000E+00 0.  1.
         21   -1    0    0  503  502  0.00000000000E+00 -0.00000000000E+00 -0.48215223560E+02  0.48215223560E+02  0.00000000000E+00 0. -1.
         24    2    1    2    0    0 -0.12480611570E+02  0.63601391508E+02  0.29165482091E+03  0.30933195113E+03  0.80142490380E+02 0.  0.
         23    2    1    2    0    0 -0.37909285472E+01 -0.51483477042E+02  0.45677318202E+02  0.11493437044E+03  0.91970498326E+02 0.  0.
        -13    1    3    3    0    0 -0.45656615400E+02  0.47840547315E+02  0.17784773951E+03  0.18974473101E+03  0.00000000000E+00 0.  1.
         14    1    3    3    0    0  0.33176003830E+02  0.15760844193E+02  0.11380708140E+03  0.11958722012E+03  0.00000000000E+00 0. -1.
        -13    1    4    4    0    0  0.30412828416E+02 -0.61960827367E+02  0.23841121830E+02  0.73023854667E+02  0.00000000000E+00 0. -1.
         13    1    4    4    0    0 -0.34203756963E+02  0.10477350325E+02  0.21836196372E+02  0.41910515771E+02  0.00000000000E+00 0.  1.
         21    1    1    2  503  501  0.26021425275E+02  0.24984123300E+02  0.11354882010E+03  0.11914132590E+03  0.00000000000E+00 0. -1.
         -2    1    1    2    0  502 -0.97498851579E+01 -0.37102037766E+02  0.18653587279E+03  0.19043963165E+03  0.00000000000E+00 0.  1.
<scales pt_clust_5="13000.00000" pt_clust_6="13000.00000" pt_clust_7="13000.00000" pt_clust_8="13000.00000" pt_clust_9="36.07383" pt_clust_10="28.85226"></scales>
<clustering>
<clus scale="   36.074">  1  9  2 -1</clus>
<clus scale="   28.852">  2 10  1 -1</clus>
<clus scale="   80.142">  5  6 -1 -1</clus>
<clus scale="   91.970">  7  8 -1 -1</clus>
<clus scale="  105.974">  1  5  2 -1</clus>
<clus scale="   28.852">  2  5  1 -1</clus>
</clustering>
</event>
<event>
10    4  0.5389768E-005  0.1022575E+03  0.7546771E-02  0.1278763E+00
          2   -1    0    0  503    0 -0.00000000000E+00  0.00000000000E+00  0.93281616222E+03  0.93281616222E+03  0.00000000000E+00 0. -1.
         21   -1    0    0  501  502  0.00000000000E+00 -0.00000000000E+00 -0.55000297686E+02  0.55000297686E+02  0.00000000000E+00 0. -1.
         24    2    1    2    0    0 -0.20261374980E+02  0.83565368182E+01  0.26123468250E+03  0.27377963782E+03  0.78939063344E+02 0.  0.
         23    2    1    2    0    0  0.68873938671E+02 -0.62944851191E+02  0.57026093335E+03  0.58422504573E+03  0.86114448450E+02 0.  0.
        -13    1    3    3    0    0  0.15323768764E+02  0.21546518463E+02  0.32398588021E+02  0.41817925017E+02  0.00000000000E+00 0.  1.
         14    1    3    3    0    0 -0.35585143744E+02 -0.13189981644E+02  0.22883609448E+03  0.23196171280E+03  0.00000000000E+00 0. -1.
        -11    1    4    4    0    0  0.88171353861E+02 -0.43342492019E+02  0.40900254622E+03  0.42063742352E+03  0.00000000000E+00 0. -1.
         11    1    4    4    0    0 -0.19297415190E+02 -0.19602359172E+02  0.16125838713E+03  0.16358762221E+03  0.00000000000E+00 0.  1.
         21    1    1    2  503  502  0.20187880630E+02  0.35706696873E+02  0.41429049559E+02  0.58299956031E+02  0.00000000000E+00 0. -1.
          1    1    1    2  501    0 -0.68800444322E+02  0.18881617500E+02  0.48911991336E+01  0.71511820333E+02  0.00000000000E+00 0. -1.
<scales pt_clust_5="13000.00000" pt_clust_6="13000.00000" pt_clust_7="13000.00000" pt_clust_8="13000.00000" pt_clust_9="41.01852" pt_clust_10="70.20282"></scales>
<clustering>
<clus scale="   41.019">  2  9  1 -1</clus>
<clus scale="   70.203">  2 10  1 -1</clus>
<clus scale="   78.939">  5  6 -1 -1</clus>
<clus scale="   86.114">  7  8 -1 -1</clus>
<clus scale="   96.293">  1  5  2 -1</clus>
<clus scale="   41.019">  2  5  1 -1</clus>
</clustering>
</event>
<event>
10    4  0.5389768E-005  0.1183494E+03  0.7546771E-02  0.1249409E+00
         -1   -1    0    0    0  501 -0.00000000000E+00  0.00000000000E+00  0.64632583609E+03  0.64632583609E+03  0.00000000000E+00 0.  1.
         21   -1    0    0  503  502  0.00000000000E+00 -0.00000000000E+00 -0.49305340648E+02  0.49305340648E+02  0.00000000000E+00 0. -1.
         24    2    1    2    0    0  0.27234084653E+02 -0.63690776655E+02  0.37225251511E+03  0.38737484920E+03  0.81787091818E+02 0.  0.
         23    2    1    2    0    0 -0.28174687901E+02  0.72668037517E+02  0.19899826477E+03  0.23287262234E+03  0.92492659917E+02 0.  0.
        -11    1    3    3    0    0  0.27364852914E+01 -0.72000897068E+02  0.18834323085E+03  0.20165512673E+03  0.00000000000E+00 0.  1.
         12    1    3    3    0    0  0.24497599362E+02  0.83101204137E+01  0.18390928427E+03  0.18571972247E+03  0.00000000000E+00 0. -1.
        -13    1    4    4    0    0  0.33000512150E+01  0.45920729498E+02  0.18279471392E+03  0.18850334525E+03  0.00000000000E+00 0.  1.
         13    1    4    4    0    0 -0.31474739116E+02  0.26747308019E+02  0.16203550850E+02  0.44369277083E+02  0.00000000000E+00 0. -1.
         21    1    1    2  503  501  0.19991818607E+02  0.32094765560E+01  0.42617179965E+02  0.47182598266E+02  0.00000000000E+00 0.  1.
         -2    1    1    2    0  502 -0.19051215359E+02 -0.12186737418E+02 -0.16847464403E+02  0.28201106935E+02  0.00000000000E+00 0.  1.
<scales pt_clust_5="13000.00000" pt_clust_6="13000.00000" pt_clust_7="13000.00000" pt_clust_8="13000.00000" pt_clust_9="20.24780" pt_clust_10="22.44044"></scales>
<clustering>
<clus scale="   20.248">  1  9  2 -1</clus>
<clus scale="   22.440">  2 10  1 -1</clus>
<clus scale="   81.787">  5  6 -1 -1</clus>
<clus scale="   92.493">  7  8 -1 -1</clus>
<clus scale="  110.185">  1  5  2 -1</clus>
<clus scale="   22.440">  2  5  1 -1</clus>
</clustering>
</event>
<event>
10    4  0.5389768E-005  0.2408363E+03  0.7546771E-02  0.1152312E+00
          2   -1    0    0  503    0 -0.00000000000E+00  0.00000000000E+00  0.14299168833E+04  0.14299168833E+04  0.00000000000E+00 0. -1.
         21   -1    0    0  501  502  0.00000000000E+00 -0.00000000000E+00 -0.60142664071E+03  0.60142664071E+03  0.00000000000E+00 0. -1.
         24    2    1    2    0    0  0.71222889427E+02 -0.63959238948E+01 -0.15607122672E+03  0.18966902422E+03  0.80638099676E+02 0.  0.
         23    2    1    2    0    0 -0.14069469013E+03 -0.13888624621E+03 -0.10630430948E+03  0.24220746445E+03  0.90991562278E+02 0.  0.
        -11    1    3    3    0    0  0.18220987973E+02 -0.39824979506E+02 -0.49977150055E+02  0.66451101744E+02  0.00000000000E+00 0.  1.
         12    1    3    3    0    0  0.53001901454E+02  0.33429055612E+02 -0.10609407666E+03  0.12321792248E+03  0.00000000000E+00 0. -1.
        -13    1    4    4    0    0 -0.12076083336E+03 -0.73205216949E+02 -0.39997463950E+02  0.14677186305E+03  0.00000000000E+00 0. -1.
         13    1    4    4    0    0 -0.19933856774E+02 -0.65681029258E+02 -0.66306845530E+02  0.95435601399E+02  0.00000000000E+00 0.  1.
         21    1    1    2  503  502  0.10238384629E+02  0.25597745323E+03  0.13165334757E+04  0.13412269285E+04  0.00000000000E+00 0. -1.
          1    1    1    2  501    0  0.59233416075E+02 -0.11069528312E+03 -0.22566769698E+03  0.25824010677E+03  0.00000000000E+00 0. -1.
<scales pt_clust_5="13000.00000" pt_clust_6="13000.00000" pt_clust_7="13000.00000" pt_clust_8="13000.00000" pt_clust_9="222.98573" pt_clust_10="126.00113"></scales>
<clustering>
<clus scale="   80.638">  5  6 -1 -1</clus>
<clus scale="   90.992">  7  8 -1 -1</clus>
<clus scale="  107.778">  1  5  2 -1</clus>
<clus scale="  126.001">  2 10  1 -1</clus>
<clus scale="  222.986">  1  9  2 -1</clus>
<clus scale="  126.001">  2  5  1 -1</clus>
</clustering>
</event>
<event>
10    4  0.5389768E-005  0.7970222E+02  0.7546771E-02  0.1342511E+00
          2   -1    0    0  503    0 -0.00000000000E+00  0.00000000000E+00  0.14726900835E+03  0.14726900835E+03  0.00000000000E+00 0. -1.
         21   -1    0    0  501  502  0.00000000000E+00 -0.00000000000E+00 -0.18243277494E+03  0.18243277494E+03  0.00000000000E+00 0. -1.
         24    2    1    2    0    0  0.20831526883E+01 -0.13469307751E+02  0.78168768742E+02  0.11196907358E+03  0.78999716807E+02 0.  0.
         23    2    1    2    0    0 -0.17752988888E+02 -0.22597752836E+02 -0.43566811265E+02  0.81885854299E+02  0.63098328368E+02 0.  0.
        -11    1    3    3    0    0 -0.47571235410E+01  0.31983717252E+02  0.20759044533E+02  0.38425594641E+02  0.00000000000E+00 0.  1.
         12    1    3    3    0    0  0.68402762293E+01 -0.45453025003E+02  0.57409724210E+02  0.73543478941E+02  0.00000000000E+00 0. -1.
        -13    1    4    4    0    0  0.19521601712E+02  0.69904964616E+01 -0.70551780603E+01  0.21902865375E+02  0.00000000000E+00 0.  1.
         13    1    4    4    0    0 -0.37274590601E+02 -0.29588249298E+02 -0.36511633205E+02  0.59982988924E+02  0.00000000000E+00 0. -1.
         21    1    1    2  503  502  0.15000276595E+01  0.21635949069E+02  0.28335330404E+02  0.35682703431E+02  0.00000000000E+00 0.  1.
          1    1    1    2  501    0  0.14169808541E+02  0.14431111519E+02 -0.98101054466E+02  0.10016415198E+03  0.00000000000E+00 0. -1.
<scales pt_clust_5="13000.00000" pt_clust_6="13000.00000" pt_clust_7="13000.00000" pt_clust_8="13000.00000" pt_clust_9="22.37352" pt_clust_10="20.22475"></scales>
<clustering>
<clus scale="   20.225">  2 10  1 -1</clus>
<clus scale="   22.374">  1  9  2 -1</clus>
<clus scale="   63.098">  7  8 -1 -1</clus>
<clus scale="   63.976">  2  7  1 -1</clus>
<clus scale="   79.000">  5  6 -1 -1</clus>
<clus scale="   20.225">  2  5  1 -1</clus>
</clustering>
</event>
<event>
10    4  0.5389768E-005  0.2559581E+03  0.7546771E-02  0.1110026E+00
         -1   -1    0    0    0  501 -0.00000000000E+00  0.00000000000E+00  0.86611629158E+03  0.86611629158E+03  0.00000000000E+00 0.  1.
         21   -1    0    0  503  502  0.00000000000E+00 -0.00000000000E+00 -0.21902535535E+03  0.21902535535E+03  0.00000000000E+00 0. -1.
         24    2    1    2    0    0 -0.21972802751E+03  0.67347441228E+02  0.29558384518E+03  0.38301788028E+03  0.80726719095E+02 0.  0.
         23    2    1    2    0    0  0.22240870812E+03 -0.12090164763E+03  0.34011637612E+03  0.43324010792E+03  0.89078616734E+02 0.  0.
        -11    1    3    3    0    0 -0.47475516941E+02  0.51943425961E+02  0.93846782034E+02  0.11729988366E+03  0.00000000000E+00 0.  1.
         12    1    3    3    0    0 -0.17225251057E+03  0.15404015268E+02  0.20173706314E+03  0.26571799662E+03  0.00000000000E+00 0. -1.
        -13    1    4    4    0    0  0.12148328162E+03 -0.78112925047E+02  0.26014392171E+03  0.29754777225E+03  0.00000000000E+00 0.  1.
         13    1    4    4    0    0  0.10092542650E+03 -0.42788722579E+02  0.79972454418E+02  0.13569233567E+03  0.00000000000E+00 0. -1.
         21    1    1    2  503  501  0.99658637091E+01  0.28963838234E+02  0.13694075161E+03  0.14032459448E+03  0.00000000000E+00 0.  1.
         -2    1    1    2    0  502 -0.12646544316E+02  0.24590368163E+02 -0.12555003668E+03  0.12855906425E+03  0.00000000000E+00 0.  1.
<scales pt_clust_5="13000.00000" pt_clust_6="13000.00000" pt_clust_7="13000.00000" pt_clust_8="13000.00000" pt_clust_9="30.98466" pt_clust_10="27.65179"></scales>
<clustering>
<clus scale="   27.652">  2 10  1 -1</clus>
<clus scale="   30.985">  1  9  2 -1</clus>
<clus scale="   80.727">  5  6 -1 -1</clus>
<clus scale="   89.079">  7  8 -1 -1</clus>
<clus scale="  253.173">  1  5  2 -1</clus>
<clus scale="   27.652">  2  5  1 -1</clus>
</clustering>
</event>
<event>
10    4  0.5389768E-005  0.1411814E+03  0.7546771E-02  0.1213564E+00
         21   -1    0    0  501  502  0.00000000000E+00  0.00000000000E+00  0.53860796306E+02  0.53860796306E+02  0.00000000000E+00 0.  1.
          2   -1    0    0  503    0 -0.00000000000E+00 -0.00000000000E+00 -0.92770755352E+03  0.92770755352E+03  0.00000000000E+00 0. -1.
         24    2    1    2    0    0  0.74550993609E+02 -0.99700158227E+02 -0.42198971664E+03  0.44739463338E+03  0.81170590897E+02 0.  0.
         23    2    1    2    0    0 -0.93920672514E+02  0.53578019542E+02 -0.94599775589E+02  0.16944108765E+03  0.89830216185E+02 0.  0.
        -13    1    3    3    0    0  0.57167641516E+02 -0.11248562250E+03 -0.34159362895E+03  0.36415293744E+03  0.00000000000E+00 0.  1.
         14    1    3    3    0    0  0.17383352093E+02  0.12785464277E+02 -0.80396087690E+02  0.83241695938E+02  0.00000000000E+00 0. -1.
        -11    1    4    4    0    0  0.85429342921E+01  0.22995822554E+02  0.29395749512E+01  0.24706895438E+02  0.00000000000E+00 0.  1.
         11    1    4    4    0    0 -0.10246360681E+03  0.30582196988E+02 -0.97539350540E+02  0.14473419222E+03  0.00000000000E+00 0. -1.
         21    1    1    2  503  502 -0.17167807120E+02  0.21623876509E+02 -0.10001332150E+03  0.10375447034E+03  0.00000000000E+00 0.  1.
          1    1    1    2  501    0  0.36537486025E+02  0.24498262175E+02 -0.25724394348E+03  0.26097815846E+03  0.00000000000E+00 0. -1.
<scales pt_clust_5="13000.00000" pt_clust_6="13000.00000" pt_clust_7="13000.00000" pt_clust_8="13000.00000" pt_clust_9="27.61025" pt_clust_10="44.14755"></scales>
<clustering>
<clus scale="   27.610">  2  9  1 -1</clus>
<clus scale="   44.148">  1 10  2 -1</clus>
<clus scale="   81.171">  5  6 -1 -1</clus>
<clus scale="   89.830">  7  8 -1 -1</clus>
<clus scale="  135.836">  2  5  1 -1</clus>
<clus scale="   44.148">  1  5  2 -1</clus>
</clustering>
</event>
<event>
10    4  0.5389768E-005  0.1106453E+03  0.7546771E-02  0.1264522E+00
         21   -1    0    0  503  502  0.00000000000E+00  0.00000000000E+00  0.16264547826E+03  0.16264547826E+03  0.00000000000E+00 0.  1.
         -3   -1    0    0    0  501 -0.00000000000E+00 -0.00000000000E+00 -0.18165841773E+03  0.18165841773E+03  0.00000000000E+00 0.  1.
         23    2    1    2    0    0 -0.36304351378E+02 -0.24902535591E+02 -0.12372560338E+02  0.10394003123E+03  0.93339743057E+02 0.  0.
         24    2    1    2    0    0  0.26036961642E+02  0.80679386135E+02  0.69640967906E+02  0.13606952225E+03  0.80485798478E+02 0.  0.
        -13    1    4    4    0    0  0.39790174507E+02  0.49816849171E+02  0.60299372944E+01  0.64041678557E+02  0.00000000000E+00 0.  1.
         14    1    4    4    0    0 -0.13753212865E+02  0.30862536964E+02  0.63611030612E+02  0.72027843695E+02  0.00000000000E+00 0. -1.
        -13    1    3    3    0    0  0.15487400971E+02  0.20551109682E+02 -0.22634432913E+02  0.34271347381E+02  0.00000000000E+00 0.  1.
         13    1    3    3    0    0 -0.51791752349E+02 -0.45453645273E+02  0.10261872575E+02  0.69668683845E+02  0.00000000000E+00 0. -1.
         21    1    1    2  503  501 -0.12978704121E+02 -0.22611810284E+02 -0.12926720349E+02  0.29100529616E+02  0.00000000000E+00 0.  1.
         -4    1    1    2    0  502  0.23246093856E+02 -0.33165040260E+02 -0.63354626691E+02  0.75193812898E+02  0.00000000000E+00 0.  1.
<scales pt_clust_5="13000.00000" pt_clust_6="13000.00000" pt_clust_7="13000.00000" pt_clust_8="13000.00000" pt_clust_9="26.07184" pt_clust_10="46.40335"></scales>
<clustering>
<clus scale="   26.072">  2  9  1 -1</clus>
<clus scale="   46.403">  1 10  2 -1</clus>
<clus scale="   80.486">  5  6 -1 -1</clus>
<clus scale="   93.340">  7  8 -1 -1</clus>
<clus scale="  100.040">  1  5  2 -1</clus>
<clus scale="   46.403">  1  5  2 -1</clus>
</clustering>
</event>
<event>
10    4  0.5622149E-005  0.1952583E+03  0.7546771E-02  0.1197446E+00
         21   -1    0    0  503  502  0.00000000000E+00  0.00000000000E+00  0.83733173279E+02  0.83733173279E+02  0.00000000000E+00 0. -1.
          2   -1    0    0  502    0 -0.00000000000E+00 -0.00000000000E+00 -0.77734131429E+03  0.77734131429E+03  0.00000000000E+00 0. -1.
         24    2    1    2    0    0 -0.92181943717E+01  0.63996093937E+00 -0.22392395950E+03  0.23540938890E+03  0.72043431937E+02 0.  0.
         23    2    1    2    0    0  0.48029656135E+02  0.16851181337E+03 -0.12200527432E+03  0.23069007653E+03  0.87347268599E+02 0.  0.
        -13    1    3    3    0    0 -0.17257098294E+02 -0.25105557212E+02 -0.44253954790E+02  0.53726240879E+02  0.00000000000E+00 0.  1.
         14    1    3    3    0    0  0.80389039222E+01  0.25745518152E+02 -0.17967000471E+03  0.18168314802E+03  0.00000000000E+00 0. -1.
        -11    1    4    4    0    0  0.25337422465E+02  0.12537641189E+02 -0.49926885988E+02  0.57374832184E+02  0.00000000000E+00 0.  1.
         11    1    4    4    0    0  0.22692233670E+02  0.15597417218E+03 -0.72078388335E+02  0.17331524434E+03  0.00000000000E+00 0. -1.
         21    1    1    2  503  501 -0.21401107849E+02 -0.65436038937E+02 -0.70611572412E+02  0.98619859904E+02  0.00000000000E+00 0. -1.
          1    1    1    2  501    0 -0.17410353915E+02 -0.10371573537E+03 -0.27706733478E+03  0.29635516224E+03  0.00000000000E+00 0. -1.
<scales pt_clust_5="13000.00000" pt_clust_6="13000.00000" pt_clust_7="13000.00000" pt_clust_8="13000.00000" pt_clust_9="57.24631" pt_clust_10="188.42050"></scales>
<clustering>
<clus scale="   57.246">  9 10 -1 -1</clus>
<clus scale="   72.043">  5  6 -1 -1</clus>
<clus scale="   72.634">  2  5  1 -1</clus>
<clus scale="   87.347">  7  8 -1 -1</clus>
<clus scale="  188.421">  1  9  2 -1</clus>
<clus scale="  188.421">  1  5  2 -1</clus>
</clustering>
</event>
<event>
10    4  0.5389768E-005  0.1121275E+03  0.7546771E-02  0.1261947E+00
         21   -1    0    0  501  502  0.00000000000E+00  0.00000000000E+00  0.13115660745E+03  0.13115660745E+03  0.00000000000E+00 0. -1.
          2   -1    0    0  503    0 -0.00000000000E+00 -0.00000000000E+00 -0.21001581170E+03  0.21001581170E+03  0.00000000000E+00 0. -1.
         24    2    1    2    0    0 -0.49474398109E+02 -0.21536405212E+02 -0.10460637684E+03  0.14241207519E+03  0.80169646799E+02 0.  0.
         23    2    1    2    0    0  0.43924413859E+02  0.31984526868E+01  0.70914239911E+02  0.12549655175E+03  0.93706834577E+02 0.  0.
        -11    1    3    3    0    0 -0.63670662974E+02 -0.37398971208E+02 -0.90817542146E+02  0.11704897408E+03  0.00000000000E+00 0.  1.
         12    1    3    3    0    0  0.14196264864E+02  0.15862565996E+02 -0.13788834691E+02  0.25363101116E+02  0.00000000000E+00 0. -1.
        -11    1    4    4    0    0 -0.21882389057E+02 -0.24523369348E+01 -0.72323235472E+01  0.23176699748E+02  0.00000000000E+00 0.  1.
         11    1    4    4    0    0  0.65806802916E+02  0.56507896216E+01  0.78146563458E+02  0.10231985200E+03  0.00000000000E+00 0. -1.
         21    1    1    2  503  502 -0.21358853292E+02  0.68472770312E+01 -0.36334963562E+02  0.42700297349E+02  0.00000000000E+00 0.  1.
          1    1    1    2  501    0  0.26908837543E+02  0.11490675493E+02 -0.88321037616E+01  0.30563494860E+02  0.00000000000E+00 0. -1.
<scales pt_clust_5="13000.00000" pt_clust_6="13000.00000" pt_clust_7="13000.00000" pt_clust_8="13000.00000" pt_clust_9="22.42957" pt_clust_10="27.35353"></scales>
<clustering>
<clus scale="   22.430">  2  9  1 -1</clus>
<clus scale="   27.354">  1 10  2 -1</clus>
<clus scale="   80.170">  5  6 -1 -1</clus>
<clus scale="   93.707">  7  8 -1 -1</clus>
<clus scale="  101.088">  2  5  1 -1</clus>
<clus scale="   27.354">  1  5  2 -1</clus>
</clustering>
</event>
<event>
10    4  0.5389768E-005  0.8909188E+02  0.7546771E-02  0.1309931E+00
         21   -1    0    0  501  502  0.00000000000E+00  0.00000000000E+00  0.11581660522E+03  0.11581660522E+03  0.00000000000E+00 0. -1.
          2   -1    0    0  503    0 -0.00000000000E+00 -0.00000000000E+00 -0.34258671102E+03  0.34258671102E+03  0.00000000000E+00 0. -1.
         24    2    1    2    0    0  0.36365853014E+02 -0.66586314449E+01 -0.12603078886E+03  0.15402829431E+03  0.80462059798E+02 0.  0.
         23    2    1    2    0    0  0.20537749237E+02 -0.72826820913E+01 -0.32561151222E+02  0.96429782311E+02  0.88111507452E+02 0.  0.
        -11    1    3    3    0    0  0.58074911569E+02  0.12716721530E+02 -0.84824507658E+02  0.10358381852E+03  0.00000000000E+00 0.  1.
         12    1    3    3    0    0 -0.21709058555E+02 -0.19375352975E+02 -0.41206281205E+02  0.50444475783E+02  0.00000000000E+00 0. -1.
        -13    1    4    4    0    0 -0.33139740263E+02  0.11816907107E+00 -0.25439949886E+02  0.41778551900E+02  0.00000000000E+00 0. -1.
         13    1    4    4    0    0  0.53677489500E+02 -0.74008511623E+01 -0.71212013357E+01  0.54651230411E+02  0.00000000000E+00 0.  1.
         21    1    1    2  503  502 -0.17870750520E+02  0.19209742741E+02 -0.13110712914E+03  0.13370660885E+03  0.00000000000E+00 0. -1.
          1    1    1    2  501    0 -0.39032851730E+02 -0.52684292051E+01  0.62928963431E+02  0.74238630773E+02  0.00000000000E+00 0. -1.
<scales pt_clust_5="13000.00000" pt_clust_6="13000.00000" pt_clust_7="13000.00000" pt_clust_8="13000.00000" pt_clust_9="26.23696" pt_clust_10="39.79833"></scales>
<clustering>
<clus scale="   26.237">  2  9  1 -1</clus>
<clus scale="   39.798">  1 10  2 -1</clus>
<clus scale="   80.462">  5  6 -1 -1</clus>
<clus scale="   81.534">  2  5  1 -1</clus>
<clus scale="   88.112">  7  8 -1 -1</clus>
<clus scale="   39.798">  1  5  2 -1</clus>
</clustering>
</event>
<event>
10    4  0.5389768E-005  0.9077356E+02  0.7546771E-02  0.1306132E+00
         21   -1    0    0  501  502  0.00000000000E+00  0.00000000000E+00  0.52923177249E+03  0.52923177249E+03  0.00000000000E+00 0. -1.
          2   -1    0    0  503    0 -0.00000000000E+00 -0.00000000000E+00 -0.13547507301E+03  0.13547507301E+03  0.00000000000E+00 0. -1.
         23    2    1    2    0    0  0.18031101946E+01 -0.31536025136E+02 -0.28001046454E+02  0.10008838189E+03  0.90751603292E+02 0.  0.
         24    2    1    2    0    0  0.31481829416E+02 -0.51743893321E+02  0.56885977451E+02  0.11682684656E+03  0.82121626671E+02 0.  0.
        -13    1    4    4    0    0  0.41606159731E+02 -0.61382314630E+01 -0.14615024421E+01  0.42081901127E+02  0.00000000000E+00 0.  1.
         14    1    4    4    0    0 -0.10124330316E+02 -0.45605661858E+02  0.58347479893E+02  0.74744945433E+02  0.00000000000E+00 0. -1.
        -11    1    3    3    0    0 -0.12698677552E+02 -0.61033261079E+02 -0.24694511149E+02  0.67053219538E+02  0.00000000000E+00 0.  1.
         11    1    3    3    0    0  0.14501787747E+02  0.29497235944E+02 -0.33065353053E+01  0.33035162356E+02  0.00000000000E+00 0. -1.
         21    1    1    2  503  502  0.18247627690E+02  0.18914085756E+02 -0.32590389621E+02  0.41867075990E+02  0.00000000000E+00 0. -1.
          1    1    1    2  501    0 -0.51532567300E+02  0.64365832701E+02  0.39746215810E+03  0.40592454106E+03  0.00000000000E+00 0. -1.
<scales pt_clust_5="13000.00000" pt_clust_6="13000.00000" pt_clust_7="13000.00000" pt_clust_8="13000.00000" pt_clust_9="26.28152" pt_clust_10="82.60577"></scales>
<clustering>
<clus scale="   26.282">  2  9  1 -1</clus>
<clus scale="   82.122">  5  6 -1 -1</clus>
<clus scale="   82.606">  1 10  2 -1</clus>
<clus scale="   82.606">  1  5  2 -1</clus>
<clus scale="   90.752">  7  8 -1 -1</clus>
<clus scale="   82.606">  1  5  2 -1</clus>
</clustering>
</event>
<event>
10    4  0.5389768E-005  0.1922632E+03  0.7546771E-02  0.1183311E+00
         21   -1    0    0  501  502  0.00000000000E+00  0.00000000000E+00  0.18148686948E+03  0.18148686948E+03  0.00000000000E+00 0. -1.
          2   -1    0    0  503    0 -0.00000000000E+00 -0.00000000000E+00 -0.75625188017E+03  0.75625188017E+03  0.00000000000E+00 0. -1.
         23    2    1    2    0    0 -0.50515500583E+02 -0.23010199431E+02 -0.72955748707E+02  0.12924036098E+03  0.91100189683E+02 0.  0.
         24    2    1    2    0    0  0.60662857972E+02  0.19141945300E+03 -0.45365591528E+03  0.50250947447E+03  0.79941810943E+02 0.  0.
        -11    1    4    4    0    0  0.19628102042E+02  0.47533740399E+02 -0.48821162214E+02  0.70909976350E+02  0.00000000000E+00 0.  1.
         12    1    4    4    0    0  0.41034755930E+02  0.14388571260E+03 -0.40483475307E+03  0.43159949812E+03  0.00000000000E+00 0. -1.
        -13    1    3    3    0    0 -0.39114449088E+02  0.31974337914E+02 -0.33915349627E+02  0.60848577246E+02  0.00000000000E+00 0. -1.
         13    1    3    3    0    0 -0.11401051496E+02 -0.54984537345E+02 -0.39040399080E+02  0.68391783736E+02  0.00000000000E+00 0.  1.
         21    1    1    2  503  502  0.40478801062E+02 -0.43761078963E+01 -0.11482425792E+03  0.12182895330E+03  0.00000000000E+00 0. -1.
          1    1    1    2  501    0 -0.50626158451E+02 -0.16403314567E+03  0.66670911216E+02  0.18415996091E+03  0.00000000000E+00 0. -1.
<scales pt_clust_5="13000.00000" pt_clust_6="13000.00000" pt_clust_7="13000.00000" pt_clust_8="13000.00000" pt_clust_9="40.71466" pt_clust_10="174.85549"></scales>
<clustering>
<clus scale="   40.715">  2  9  1 -1</clus>
<clus scale="   79.942">  5  6 -1 -1</clus>
<clus scale="   91.100">  7  8 -1 -1</clus>
<clus scale="  103.952">  2  7  1 -1</clus>
<clus scale="  174.855">  1 10  2 -1</clus>
<clus scale="  174.855">  1  5  2 -1</clus>
</clustering>
</event>
<event>
10    4  0.5389768E-005  0.1352000E+03  0.7546771E-02  0.1225624E+00
         21   -1    0    0  501  502  0.00000000000E+00  0.00000000000E+00  0.24875994313E+03  0.24875994313E+03  0.00000000000E+00 0.  1.
          4   -1    0    0  503    0 -0.00000000000E+00 -0.00000000000E+00 -0.24182717741E+03  0.24182717741E+03  0.00000000000E+00 0. -1.
         24    2    1    2    0    0 -0.30628127566E+02  0.76745434968E+02  0.20918893170E+02  0.11209960768E+03  0.72806441774E+02 0.  0.
         23    2    1    2    0    0  0.89596534436E+01 -0.13932802838E+03  0.83171789969E+02  0.18862132431E+03  0.95749059812E+02 0.  0.
        -11    1    3    3    0    0 -0.46064117593E+02  0.24336788997E+02  0.24038120158E+02  0.57376070352E+02  0.00000000000E+00 0.  1.
         12    1    3    3    0    0  0.15435990027E+02  0.52408645971E+02 -0.31192269873E+01  0.54723537328E+02  0.00000000000E+00 0. -1.
        -13    1    4    4    0    0 -0.36122090842E+02 -0.21412146689E+02  0.11869872127E+02  0.43636903384E+02  0.00000000000E+00 0. -1.
         13    1    4    4    0    0  0.45081744285E+02 -0.11791588169E+03  0.71301917842E+02  0.14498442092E+03  0.00000000000E+00 0.  1.
         21    1    1    2  503  502 -0.23757809425E+02 -0.41709147851E+02 -0.40388360163E+02  0.62732018617E+02  0.00000000000E+00 0. -1.
          3    1    1    2  501    0  0.45426283548E+02  0.10429174126E+03 -0.56769557257E+02  0.12713416993E+03  0.00000000000E+00 0. -1.
<scales pt_clust_5="13000.00000" pt_clust_6="13000.00000" pt_clust_7="13000.00000" pt_clust_8="13000.00000" pt_clust_9="48.00090" pt_clust_10="90.72421"></scales>
<clustering>
<clus scale="   48.001">  2  9  1 -1</clus>
<clus scale="   72.806">  5  6 -1 -1</clus>
<clus scale="   90.724">  1 10  2 -1</clus>
<clus scale="   95.749">  7  8 -1 -1</clus>
<clus scale="  120.050">  2  5  1 -1</clus>
<clus scale="   90.724">  1  5  2 -1</clus>
</clustering>
</event>
<event>
10    4  0.5389768E-005  0.1505265E+03  0.7546771E-02  0.1208741E+00
          2   -1    0    0  503    0 -0.00000000000E+00  0.00000000000E+00  0.11519484311E+04  0.11519484311E+04  0.00000000000E+00 0. -1.
         21   -1    0    0  501  502  0.00000000000E+00 -0.00000000000E+00 -0.35682551668E+03  0.35682551668E+03  0.00000000000E+00 0.  1.
         23    2    1    2    0    0 -0.17625155823E+02  0.47804979064E+00  0.53511183384E+03  0.54939906689E+03  0.12322250336E+03 0.  0.
         24    2    1    2    0    0 -0.14879924615E+03  0.38215126914E+02 -0.20221075867E+02  0.17440789828E+03  0.80047557697E+02 0.  0.
        -13    1    4    4    0    0 -0.14280322167E+03  0.33293386662E+02  0.63074070385E+01  0.14676850172E+03  0.00000000000E+00 0.  1.
         14    1    4    4    0    0 -0.59960244781E+01  0.49217402514E+01 -0.26528482905E+02  0.27639396554E+02  0.00000000000E+00 0. -1.
        -11    1    3    3    0    0 -0.32144335157E+02 -0.54554311845E+02  0.35186105953E+03  0.35751312764E+03  0.00000000000E+00 0. -1.
         11    1    3    3    0    0  0.14519179334E+02  0.55032361636E+02  0.18325077431E+03  0.19188593924E+03  0.00000000000E+00 0.  1.
         21    1    1    2  503  502  0.13428675628E+03 -0.34105440747E+02  0.52248791328E+03  0.54054577376E+03  0.00000000000E+00 0. -1.
          1    1    1    2  501    0  0.32137645689E+02 -0.45877359574E+01 -0.24225575686E+03  0.24442120882E+03  0.00000000000E+00 0. -1.
<scales pt_clust_5="13000.00000" pt_clust_6="13000.00000" pt_clust_7="13000.00000" pt_clust_8="13000.00000" pt_clust_9="127.47788" pt_clust_10="32.46345"></scales>
<clustering>
<clus scale="   32.463">  2 10  1 -1</clus>
<clus scale="   80.048">  5  6 -1 -1</clus>
<clus scale="  123.223">  7  8 -1 -1</clus>
<clus scale="  124.206">  1  7  2 -1</clus>
<clus scale="  127.478">  1  9  2 -1</clus>
<clus scale="   32.463">  2  5  1 -1</clus>
</clustering>
</event>
<event>
10    4  0.5389768E-005  0.2119083E+03  0.7546771E-02  0.1140773E+00
          2   -1    0    0  503    0 -0.00000000000E+00  0.00000000000E+00  0.87082740022E+03  0.87082740022E+03  0.00000000000E+00 0. -1.
         21   -1    0    0  501  502  0.00000000000E+00 -0.00000000000E+00 -0.11194050970E+03  0.11194050970E+03  0.00000000000E+00 0.  1.
         24    2    1    2    0    0  0.13216151577E+03  0.62955819655E+02  0.36916038958E+03  0.40565995235E+03  0.82767760812E+02 0.  0.
         23    2    1    2    0    0 -0.19174904770E+03 -0.12203065852E+03  0.17486559474E+03  0.30099421626E+03  0.91435021119E+02 0.  0.
        -13    1    3    3    0    0  0.42991141408E+02  0.65172698824E+02  0.15158020566E+03  0.17050594611E+03  0.00000000000E+00 0.  1.
         14    1    3    3    0    0  0.89170374360E+02 -0.22168791687E+01  0.21758018392E+03  0.23515400624E+03  0.00000000000E+00 0. -1.
        -13    1    4    4    0    0 -0.10033377958E+03 -0.82140591691E+02  0.45016551207E+02  0.13726046047E+03  0.00000000000E+00 0.  1.
         13    1    4    4    0    0 -0.91415268124E+02 -0.39890066834E+02  0.12984904353E+03  0.16373375579E+03  0.00000000000E+00 0. -1.
         21    1    1    2  503  502  0.36786508559E+02  0.60180140650E+02  0.23519458824E+03  0.24554305300E+03  0.00000000000E+00 0. -1.
          1    1    1    2  501    0  0.22801023372E+02 -0.11053017801E+01 -0.20333682032E+02  0.30570688311E+02  0.00000000000E+00 0. -1.
<scales pt_clust_5="13000.00000" pt_clust_6="13000.00000" pt_clust_7="13000.00000" pt_clust_8="13000.00000" pt_clust_9="71.19805" pt_clust_10="22.82780"></scales>
<clustering>
<clus scale="   22.828">  2 10  1 -1</clus>
<clus scale="   71.198">  1  9  2 -1</clus>
<clus scale="   82.768">  5  6 -1 -1</clus>
<clus scale="   91.435">  7  8 -1 -1</clus>
<clus scale="  208.315">  1  5  2 -1</clus>
<clus scale="   22.828">  2  5  1 -1</clus>
</clustering>
</event>
<event>
10    4  0.5389768E-005  0.1787118E+03  0.7546771E-02  0.1170184E+00
         21   -1    0    0  501  502  0.00000000000E+00  0.00000000000E+00  0.99041655700E+02  0.99041655700E+02  0.00000000000E+00 0.  1.
          2   -1    0    0  503    0 -0.00000000000E+00 -0.00000000000E+00 -0.10445220160E+04  0.10445220160E+04  0.00000000000E+00 0. -1.
         24    2    1    2    0    0  0.12232633098E+03  0.47440606701E+02 -0.49655471162E+03  0.52009133201E+03  0.81939426339E+02 0.  0.
         23    2    1    2    0    0 -0.88739354739E+02 -0.11922577978E+03 -0.83315002383E+02  0.19326670557E+03  0.91220448461E+02 0.  0.
        -11    1    3    3    0    0  0.32618371153E+02  0.10569533922E+02 -0.37129030466E+02  0.50539470588E+02  0.00000000000E+00 0.  1.
         12    1    3    3    0    0  0.89707959827E+02  0.36871072780E+02 -0.45942568115E+03  0.46955186142E+03  0.00000000000E+00 0. -1.
        -13    1    4    4    0    0 -0.38226965318E+02 -0.38524391757E+02  0.15103818329E+02  0.56334314284E+02  0.00000000000E+00 0.  1.
         13    1    4    4    0    0 -0.50512389421E+02 -0.80701388023E+02 -0.98418820713E+02  0.13693239129E+03  0.00000000000E+00 0. -1.
         21    1    1    2  503  502  0.51484511510E+02  0.77199670447E+01 -0.30137050122E+03  0.30583399389E+03  0.00000000000E+00 0. -1.
          1    1    1    2  501    0 -0.85071487750E+02  0.64065206034E+02 -0.64240145089E+02  0.12437164023E+03  0.00000000000E+00 0. -1.
<scales pt_clust_5="13000.00000" pt_clust_6="13000.00000" pt_clust_7="13000.00000" pt_clust_8="13000.00000" pt_clust_9="52.06009" pt_clust_10="101.96255"></scales>
<clustering>
<clus scale="   52.060">  2  9  1 -1</clus>
<clus scale="   81.939">  5  6 -1 -1</clus>
<clus scale="   91.220">  7  8 -1 -1</clus>
<clus scale="  101.963">  1 10  2 -1</clus>
<clus scale="  174.157">  2  5  1 -1</clus>
<clus scale="  101.963">  1  5  2 -1</clus>
</clustering>
</event>
<event>
10    4  0.5389768E-005  0.9328297E+02  0.7546771E-02  0.1303593E+00
         21   -1    0    0  501  502  0.00000000000E+00  0.00000000000E+00  0.45528555070E+02  0.45528555070E+02  0.00000000000E+00 0. -1.
          2   -1    0    0  503    0 -0.00000000000E+00 -0.00000000000E+00 -0.74975361115E+03  0.74975361115E+03  0.00000000000E+00 0. -1.
         24    2    1    2    0    0  0.23928969850E+02 -0.23351939273E+02 -0.38596885205E+03  0.39510305069E+03  0.77566469860E+02 0.  0.
         23    2    1    2    0    0  0.20473165281E+02  0.61455577709E+01 -0.21976714912E+03  0.23898725203E+03  0.91435159668E+02 0.  0.
        -13    1    3    3    0    0  0.52443022463E+02 -0.13922191130E+02 -0.26034300592E+03  0.26593717067E+03  0.00000000000E+00 0.  1.
         14    1    3    3    0    0 -0.28514052613E+02 -0.94297481429E+01 -0.12562584613E+03  0.12916588002E+03  0.00000000000E+00 0. -1.
        -13    1    4    4    0    0 -0.21937105294E+02  0.25879225714E+02 -0.15747253147E+03  0.16108559551E+03  0.00000000000E+00 0.  1.
         13    1    4    4    0    0  0.42410270574E+02 -0.19733667943E+02 -0.62294617644E+02  0.77901656517E+02  0.00000000000E+00 0. -1.
         21    1    1    2  503  502 -0.37390612867E+02 -0.60648808349E+01 -0.12177634273E+03  0.12753163670E+03  0.00000000000E+00 0.  1.
          1    1    1    2  501    0 -0.70115222638E+01  0.23271262337E+02  0.23287287812E+02  0.33660226809E+02  0.00000000000E+00 0. -1.
<scales pt_clust_5="13000.00000" pt_clust_6="13000.00000" pt_clust_7="13000.00000" pt_clust_8="13000.00000" pt_clust_9="38.63289" pt_clust_10="24.30459"></scales>
<clustering>
<clus scale="   24.305">  1 10  2 -1</clus>
<clus scale="   38.633">  2  9  1 -1</clus>
<clus scale="   77.566">  5  6 -1 -1</clus>
<clus scale="   79.736">  2  5  1 -1</clus>
<clus scale="   91.435">  7  8 -1 -1</clus>
<clus scale="   24.305">  1  5  2 -1</clus>
</clustering>
</event>
<event>
10    4  0.5389768E-005  0.2856428E+03  0.7546771E-02  0.1093455E+00
         21   -1    0    0  501  502  0.00000000000E+00  0.00000000000E+00  0.11239480640E+03  0.11239480640E+03  0.00000000000E+00 0.  1.
          2   -1    0    0  503    0 -0.00000000000E+00 -0.00000000000E+00 -0.15034242398E+04  0.15034242398E+04  0.00000000000E+00 0. -1.
         24    2    1    2    0    0 -0.27345252804E+03 -0.37239624931E+02 -0.45046274456E+03  0.53479343569E+03  0.83212137668E+02 0.  0.
         23    2    1    2    0    0  0.24531770717E+03  0.97302696914E+01 -0.19503588537E+03  0.32959731315E+03  0.10158708899E+03 0.  0.
        -13    1    3    3    0    0 -0.18375587424E+02 -0.24169139158E+02 -0.72743955379E+02  0.78825709923E+02  0.00000000000E+00 0.  1.
         14    1    3    3    0    0 -0.25507694062E+03 -0.13070485773E+02 -0.37771878918E+03  0.45596772576E+03  0.00000000000E+00 0. -1.
        -11    1    4    4    0    0  0.90702909758E+02  0.45688946595E+02 -0.10922848364E+03  0.14914878249E+03  0.00000000000E+00 0. -1.
         11    1    4    4    0    0  0.15461479742E+03 -0.35958676904E+02 -0.85807401730E+02  0.18044853066E+03  0.00000000000E+00 0.  1.
         21    1    1    2  503  502 -0.26034245186E+02 -0.10192441788E+02 -0.21914599139E+03  0.22092223368E+03  0.00000000000E+00 0. -1.
          1    1    1    2  501    0  0.54169066056E+02  0.37701797028E+02 -0.52638481206E+03  0.53050606367E+03  0.00000000000E+00 0. -1.
<scales pt_clust_5="13000.00000" pt_clust_6="13000.00000" pt_clust_7="13000.00000" pt_clust_8="13000.00000" pt_clust_9="27.95832" pt_clust_10="54.86735"></scales>
<clustering>
<clus scale="   27.958">  2  9  1 -1</clus>
<clus scale="   54.867">  1 10  2 -1</clus>
<clus scale="   83.212">  5  6 -1 -1</clus>
<clus scale="  101.587">  7  8 -1 -1</clus>
<clus scale="  279.636">  2  5  1 -1</clus>
<clus scale="   54.867">  1  5  2 -1</clus>
</clustering>
</event>
<event>
10    4  0.5389768E-005  0.1158019E+03  0.7546771E-02  0.1258406E+00
         21   -1    0    0  501  502  0.00000000000E+00  0.00000000000E+00  0.11540888688E+03  0.11540888688E+03  0.00000000000E+00 0.  1.
          2   -1    0    0  503    0 -0.00000000000E+00 -0.00000000000E+00 -0.64720777747E+03  0.64720777747E+03  0.00000000000E+00 0. -1.
         24    2    1    2    0    0  0.64693980204E+02  0.89039933422E+01 -0.44746308381E+03  0.45737895444E+03  0.68612713198E+02 0.  0.
         23    2    1    2    0    0 -0.17677632387E+02  0.28004890799E+02  0.57211563170E+02  0.11317695803E+03  0.91864510411E+02 0.  0.
        -13    1    3    3    0    0  0.11393487869E+02 -0.24788103371E+02 -0.79463233197E+02  0.84015873885E+02  0.00000000000E+00 0.  1.
         14    1    3    3    0    0  0.53300492336E+02  0.33692096714E+02 -0.36799985062E+03  0.37336308055E+03  0.00000000000E+00 0. -1.
        -13    1    4    4    0    0 -0.29631418753E+02  0.46679085850E+02  0.68715825336E+02  0.88197634235E+02  0.00000000000E+00 0.  1.
         13    1    4    4    0    0  0.11953786366E+02 -0.18674195051E+02 -0.11504262165E+02  0.24979323795E+02  0.00000000000E+00 0. -1.
         21    1    1    2  503  502  0.10000732422E+02 -0.25024172324E+02 -0.12989888840E+03  0.13266478454E+03  0.00000000000E+00 0. -1.
          1    1    1    2  501    0 -0.57017080240E+02 -0.11884711817E+02 -0.11648481538E+02  0.59395967340E+02  0.00000000000E+00 0. -1.
<scales pt_clust_5="13000.00000" pt_clust_6="13000.00000" pt_clust_7="13000.00000" pt_clust_8="13000.00000" pt_clust_9="26.94854" pt_clust_10="57.94886"></scales>
<clustering>
<clus scale="   26.949">  2  9  1 -1</clus>
<clus scale="   57.949">  1 10  2 -1</clus>
<clus scale="   68.613">  5  6 -1 -1</clus>
<clus scale="   91.865">  7  8 -1 -1</clus>
<clus scale="   98.380">  2  5  1 -1</clus>
<clus scale="   57.949">  1  5  2 -1</clus>
</clustering>
</event>
<event>
10    4  0.5389768E-005  0.1390290E+03  0.7546771E-02  0.1228342E+00
         21   -1    0    0  501  502  0.00000000000E+00  0.00000000000E+00  0.86908808108E+03  0.86908808108E+03  0.00000000000E+00 0. -1.
          4   -1    0    0  503    0 -0.00000000000E+00 -0.00000000000E+00 -0.12338637522E+03  0.12338637522E+03  0.00000000000E+00 0. -1.
         24    2    1    2    0    0 -0.37500918671E+02 -0.53018708493E+02 -0.63052647657E+02  0.12109727652E+03  0.80446327774E+02 0.  0.
         23    2    1    2    0    0 -0.43001692440E+02  0.10600944964E+03  0.29902793991E+03  0.33336963344E+03  0.92900240527E+02 0.  0.
        -11    1    3    3    0    0 -0.38647791511E+02 -0.71083088348E+02 -0.63713004646E+02  0.10298448523E+03  0.00000000000E+00 0.  1.
         12    1    3    3    0    0  0.11468728393E+01  0.18064379854E+02  0.66035698936E+00  0.18112791286E+02  0.00000000000E+00 0. -1.
        -11    1    4    4    0    0 -0.85136617737E+01  0.40380534330E+02  0.22352211831E+02  0.46932838859E+02  0.00000000000E+00 0.  1.
         11    1    4    4    0    0 -0.34488030666E+02  0.65628915307E+02  0.27667572808E+03  0.28643679458E+03  0.00000000000E+00 0. -1.
         21    1    1    2  503  502  0.11771398561E+03 -0.29149120097E+02  0.43088056802E+03  0.44762072953E+03  0.00000000000E+00 0. -1.
          3    1    1    2  501    0 -0.37211374499E+02 -0.23841621047E+02  0.78845845583E+02  0.90386816804E+02  0.00000000000E+00 0. -1.
<scales pt_clust_5="13000.00000" pt_clust_6="13000.00000" pt_clust_7="13000.00000" pt_clust_8="13000.00000" pt_clust_9="103.43403" pt_clust_10="44.19400"></scales>
<clustering>
<clus scale="   44.194">  1 10  2 -1</clus>
<clus scale="   80.446">  5  6 -1 -1</clus>
<clus scale="   92.900">  7  8 -1 -1</clus>
<clus scale="  104.347">  2  5  1 -1</clus>
<clus scale="  103.434">  1  9  2 -1</clus>
<clus scale="   44.194">  1  5  2 -1</clus>
</clustering>
</event>
<event>
10    4  0.5389768E-005  0.1479005E+03  0.7546771E-02  0.1203183E+00
          2   -1    0    0  502    0 -0.00000000000E+00  0.00000000000E+00  0.52647805988E+03  0.52647805988E+03  0.00000000000E+00 0. -1.
         21   -1    0    0  503  502  0.00000000000E+00 -0.00000000000E+00 -0.78491370407E+02  0.78491370407E+02  0.00000000000E+00 0. -1.
         23    2    1    2    0    0 -0.56807254814E+02 -0.90386222715E+02  0.25576998532E+03  0.29099327162E+03  0.88668287916E+02 0.  0.
         24    2    1    2    0    0  0.11599998368E+03  0.87538364871E+02  0.17827804148E+03  0.24670603549E+03  0.89229178727E+02 0.  0.
        -13    1    4    4    0    0  0.18976611892E+02  0.42626579950E+02  0.11094101493E+03  0.12035383629E+03  0.00000000000E+00 0.  1.
         14    1    4    4    0    0  0.97023371785E+02  0.44911784921E+02  0.67337026552E+02  0.12635219920E+03  0.00000000000E+00 0. -1.
        -13    1    3    3    0    0  0.21176121404E+02 -0.63967127063E+01  0.25360244590E+02  0.33652459893E+02  0.00000000000E+00 0.  1.
         13    1    3    3    0    0 -0.77983376218E+02 -0.83989510009E+02  0.23040974073E+03  0.25734081173E+03  0.00000000000E+00 0. -1.
         21    1    1    2  503  501 -0.18926589975E+02 -0.99074143989E+01  0.13028333379E+02  0.25022192925E+02  0.00000000000E+00 0.  1.
          1    1    1    2  501    0 -0.40266138888E+02  0.12755272243E+02  0.91032929217E+00  0.42247930250E+02  0.00000000000E+00 0. -1.
<scales pt_clust_5="13000.00000" pt_clust_6="13000.00000" pt_clust_7="13000.00000" pt_clust_8="13000.00000" pt_clust_9="20.35375" pt_clust_10="65.81021"></scales>
<clustering>
<clus scale="   20.354">  9 10 -1 -1</clus>
<clus scale="   65.810">  2  9  1 -1</clus>
<clus scale="   88.668">  7  8 -1 -1</clus>
<clus scale="   89.229">  5  6 -1 -1</clus>
<clus scale="  147.563">  1  7  2 -1</clus>
<clus scale="   65.810">  2  5  1 -1</clus>
</clustering>
</event>
<event>
10    4  0.5389768E-005  0.2101671E+03  0.7546771E-02  0.1142168E+00
         21   -1    0    0  501  502  0.00000000000E+00  0.00000000000E+00  0.13918172729E+04  0.13918172729E+04  0.00000000000E+00 0. -1.
          4   -1    0    0  503    0 -0.00000000000E+00 -0.00000000000E+00 -0.85730115633E+02  0.85730115633E+02  0.00000000000E+00 0. -1.
         23    2    1    2    0    0 -0.16809995481E+03 -0.41525052159E+02  0.36676517360E+03  0.41545075478E+03  0.90003957239E+02 0.  0.
         24    2    1    2    0    0  0.13272609190E+03  0.16744426777E+03  0.73803849450E+03  0.77260760339E+03  0.81042526924E+02 0.  0.
        -13    1    4    4    0    0  0.52286749033E+02  0.95479030052E+02  0.24826524110E+03  0.27108260594E+03  0.00000000000E+00 0.  1.
         14    1    4    4    0    0  0.80439342872E+02  0.71965237713E+02  0.48977325340E+03  0.50152499745E+03  0.00000000000E+00 0. -1.
        -11    1    3    3    0    0 -0.11494685640E+03  0.14688407133E+02  0.24758788584E+03  0.27336475690E+03  0.00000000000E+00 0. -1.
         11    1    3    3    0    0 -0.53153098416E+02 -0.56213459292E+02  0.11917728776E+03  0.14208599788E+03  0.00000000000E+00 0.  1.
         21    1    1    2  503  502 -0.95042759852E+01 -0.14268557704E+03  0.91664501129E+02  0.16985842907E+03  0.00000000000E+00 0.  1.
          3    1    1    2  501    0  0.44878138894E+02  0.16766361438E+02  0.10961898800E+03  0.11963060125E+03  0.00000000000E+00 0. -1.
<scales pt_clust_5="13000.00000" pt_clust_6="13000.00000" pt_clust_7="13000.00000" pt_clust_8="13000.00000" pt_clust_9="141.05447" pt_clust_10="47.90781"></scales>
<clustering>
<clus scale="   47.908">  1 10  2 -1</clus>
<clus scale="   81.043">  5  6 -1 -1</clus>
<clus scale="   90.004">  7  8 -1 -1</clus>
<clus scale="  141.054">  2  9  1 -1</clus>
<clus scale="  206.488">  1  5  2 -1</clus>
<clus scale="   47.908">  1  5  2 -1</clus>
</clustering>
</event>
<event>
10    4  0.5389768E-005  0.1292522E+03  0.7546771E-02  0.1231874E+00
         21   -1    0    0  501  502  0.00000000000E+00  0.00000000000E+00  0.23565114420E+03  0.23565114420E+03  0.00000000000E+00 0. -1.
          2   -1    0    0  503    0 -0.00000000000E+00 -0.00000000000E+00 -0.86867075029E+03  0.86867075029E+03  0.00000000000E+00 0. -1.
         23    2    1    2    0    0  0.79529672544E+01  0.63918119631E+02 -0.20872965218E+03  0.23726478870E+03  0.92616070692E+02 0.  0.
         24    2    1    2    0    0  0.36159446826E+02 -0.10459881208E+03 -0.15894515636E+02  0.13765441604E+03  0.80297481562E+02 0.  0.
        -11    1    4    4    0    0  0.22451162535E+02 -0.50164522881E+02  0.32232343269E+02  0.63713876100E+02  0.00000000000E+00 0.  1.
         12    1    4    4    0    0  0.13708284291E+02 -0.54434289202E+02 -0.48126858905E+02  0.73940539944E+02  0.00000000000E+00 0. -1.
        -13    1    3    3    0    0 -0.40403647348E+02  0.43192180537E+02 -0.94179848055E+02  0.11121089406E+03  0.00000000000E+00 0. -1.
         13    1    3    3    0    0  0.48356614602E+02  0.20725939094E+02 -0.11454980413E+03  0.12605389464E+03  0.00000000000E+00 0.  1.
         21    1    1    2  503  502 -0.11695040092E+03 -0.11155735872E+02 -0.54974296832E+03  0.56215583065E+03  0.00000000000E+00 0. -1.
          1    1    1    2  501    0  0.72837986845E+02  0.51836428325E+02  0.14134753004E+03  0.16724685910E+03  0.00000000000E+00 0. -1.
<scales pt_clust_5="13000.00000" pt_clust_6="13000.00000" pt_clust_7="13000.00000" pt_clust_8="13000.00000" pt_clust_9="111.62617" pt_clust_10="89.40015"></scales>
<clustering>
<clus scale="   80.297">  5  6 -1 -1</clus>
<clus scale="   89.400">  1 10  2 -1</clus>
<clus scale="   92.616">  7  8 -1 -1</clus>
<clus scale="  111.626">  2  9  1 -1</clus>
<clus scale="  120.731">  1  5  2 -1</clus>
<clus scale="   89.400">  1  5  2 -1</clus>
</clustering>
</event>
<event>
10    4  0.5853897E-005  0.2072552E+03  0.7546771E-02  0.1145878E+00
         21   -1    0    0  501  502  0.00000000000E+00  0.00000000000E+00  0.40198879875E+03  0.40198879875E+03  0.00000000000E+00 0. -1.
          2   -1    0    0  503    0 -0.00000000000E+00 -0.00000000000E+00 -0.78232716644E+03  0.78232716644E+03  0.00000000000E+00 0. -1.
         24    2    1    2    0    0  0.15594065087E+03  0.12757448473E+03 -0.66613910774E+03  0.70056371391E+03  0.80345943556E+02 0.  0.
         23    2    1    2    0    0 -0.13296927969E+03 -0.44603713787E+02  0.20257543010E+03  0.26702671204E+03  0.10293755116E+03 0.  0.
        -13    1    3    3    0    0  0.73388286346E+02  0.49441658060E+02 -0.17092488682E+03  0.19247242675E+03  0.00000000000E+00 0.  1.
         14    1    3    3    0    0  0.82552364525E+02  0.78132826670E+02 -0.49521422092E+03  0.50809128716E+03  0.00000000000E+00 0. -1.
        -11    1    4    4    0    0 -0.10853710116E+03  0.12414032623E+02  0.10581438923E+03  0.15208910382E+03  0.00000000000E+00 0. -1.
         11    1    4    4    0    0 -0.24432178537E+02 -0.57017746410E+02  0.96761040869E+02  0.11493760822E+03  0.00000000000E+00 0.  1.
         21    1    1    2  503  502 -0.46922403155E+01 -0.26075161742E+02 -0.57788093336E+02  0.63571966388E+02  0.00000000000E+00 0. -1.
          1    1    1    2  501    0 -0.18279130863E+02 -0.56895609201E+02  0.14101340328E+03  0.15315357285E+03  0.00000000000E+00 0. -1.
<scales pt_clust_5="13000.00000" pt_clust_6="13000.00000" pt_clust_7="13000.00000" pt_clust_8="13000.00000" pt_clust_9="26.49398" pt_clust_10="59.98072"></scales>
<clustering>
<clus scale="   26.494">  2  9  1 -1</clus>
<clus scale="   59.981">  1 10  2 -1</clus>
<clus scale="   80.346">  5  6 -1 -1</clus>
<clus scale="  102.938">  7  8 -1 -1</clus>
<clus scale="  197.013">  2  5  1 -1</clus>
<clus scale="   59.981">  1  5  2 -1</clus>
</clustering>
</event>
<event>
10    4  0.5389768E-005  0.1012288E+03  0.7546771E-02  0.1286188E+00
         21   -1    0    0  501  502  0.00000000000E+00  0.00000000000E+00  0.15859640771E+03  0.15859640771E+03  0.00000000000E+00 0. -1.
          4   -1    0    0  503    0 -0.00000000000E+00 -0.00000000000E+00 -0.34855234030E+03  0.34855234030E+03  0.00000000000E+00 0. -1.
         24    2    1    2    0    0  0.46608527248E+02  0.26959643199E+02 -0.18285825687E+03  0.20521472810E+03  0.76005035039E+02 0.  0.
         23    2    1    2    0    0 -0.29026151596E+02  0.23689946312E+02 -0.63001170749E+02  0.11816014731E+03  0.92676544308E+02 0.  0.
        -11    1    3    3    0    0  0.21338777809E+02 -0.20162385097E+02 -0.11572010108E+03  0.11938595816E+03  0.00000000000E+00 0.  1.
         12    1    3    3    0    0  0.25269749439E+02  0.47122028296E+02 -0.67138155787E+02  0.85828769943E+02  0.00000000000E+00 0. -1.
        -11    1    4    4    0    0 -0.59762596016E+02  0.17860183804E+02 -0.21054468253E+02  0.65831942714E+02  0.00000000000E+00 0.  1.
         11    1    4    4    0    0  0.30736444420E+02  0.58297625080E+01 -0.41946702495E+02  0.52328204600E+02  0.00000000000E+00 0. -1.
         21    1    1    2  503  502 -0.78376643615E+00 -0.30540415395E+02 -0.58720910995E+02  0.66192723546E+02  0.00000000000E+00 0. -1.
          3    1    1    2  501    0 -0.16798609215E+02 -0.20109174116E+02  0.11462440603E+03  0.11758114905E+03  0.00000000000E+00 0. -1.
<scales pt_clust_5="13000.00000" pt_clust_6="13000.00000" pt_clust_7="13000.00000" pt_clust_8="13000.00000" pt_clust_9="32.38734" pt_clust_10="26.20252"></scales>
<clustering>
<clus scale="   26.203">  1 10  2 -1</clus>
<clus scale="   32.387">  2  9  1 -1</clus>
<clus scale="   76.005">  5  6 -1 -1</clus>
<clus scale="   86.227">  2  5  1 -1</clus>
<clus scale="   92.677">  7  8 -1 -1</clus>
<clus scale="   26.203">  1  5  2 -1</clus>
</clustering>
</event>
<event>
10    4  0.5389768E-005  0.2413850E+03  0.7546771E-02  0.1156455E+00
         -1   -1    0    0    0  501 -0.00000000000E+00  0.00000000000E+00  0.96639153499E+02  0.96639153499E+02  0.00000000000E+00 0.  1.
         21   -1    0    0  501  502  0.00000000000E+00 -0.00000000000E+00 -0.87002755658E+03  0.87002755658E+03  0.00000000000E+00 0.  1.
         23    2    1    2    0    0  0.29496981268E+02 -0.28403754446E+02 -0.17923889018E+03  0.20385486123E+03  0.88053276611E+02 0.  0.
         24    2    1    2    0    0  0.12138845175E+03  0.19475520538E+03 -0.32003019200E+03  0.40273616826E+03  0.84334756745E+02 0.  0.
        -13    1    4    4    0    0  0.11962204433E+03  0.12293038187E+03 -0.24253839643E+03  0.29706259613E+03  0.00000000000E+00 0.  1.
         14    1    4    4    0    0  0.17664074250E+01  0.71824823508E+02 -0.77491795569E+02  0.10567357213E+03  0.00000000000E+00 0. -1.
        -13    1    3    3    0    0 -0.69378499809E+01 -0.39441559852E+02 -0.30549267172E+02  0.50368920285E+02  0.00000000000E+00 0. -1.
         13    1    3    3    0    0  0.36434831249E+02  0.11037805406E+02 -0.14868962301E+03  0.15348594094E+03  0.00000000000E+00 0.  1.
         21    1    1    2  503  502 -0.40135316493E+01 -0.34226376922E+02 -0.27516524466E+02  0.44098893775E+02  0.00000000000E+00 0. -1.
         -2    1    1    2    0  503 -0.14687190137E+03 -0.13212507401E+03 -0.24660279643E+03  0.31597678681E+03  0.00000000000E+00 0.  1.
<scales pt_clust_5="13000.00000" pt_clust_6="13000.00000" pt_clust_7="13000.00000" pt_clust_8="13000.00000" pt_clust_9="26.65765" pt_clust_10="235.00702"></scales>
<clustering>
<clus scale="   26.658">  9 10 -1 -1</clus>
<clus scale="   84.335">  5  6 -1 -1</clus>
<clus scale="   88.053">  7  8 -1 -1</clus>
<clus scale="   97.109">  1  7  2 -1</clus>
<clus scale="  235.007">  2  9  1 -1</clus>
<clus scale="  235.007">  2  5  1 -1</clus>
</clustering>
</event>
<event>
10    4  0.5389768E-005  0.1275636E+03  0.7546771E-02  0.1233941E+00
         21   -1    0    0  503  502  0.00000000000E+00  0.00000000000E+00  0.12507070979E+03  0.12507070979E+03  0.00000000000E+00 0. -1.
         -3   -1    0    0    0  501 -0.00000000000E+00 -0.00000000000E+00 -0.42655144290E+03  0.42655144290E+03  0.00000000000E+00 0.  1.
         24    2    1    2    0    0  0.30040462672E+02 -0.50489980699E+02 -0.21869978512E+03  0.24032876634E+03  0.80477651374E+02 0.  0.
         23    2    1    2    0    0 -0.69042578232E+02  0.76859976896E+02  0.23025858494E+02  0.13951902320E+03  0.90890230592E+02 0.  0.
        -11    1    3    3    0    0  0.44600354737E+02 -0.51461944718E+02 -0.21463738012E+03  0.22518154530E+03  0.00000000000E+00 0.  1.
         12    1    3    3    0    0 -0.14559892065E+02  0.97196401921E+00 -0.40624050003E+01  0.15147221045E+02  0.00000000000E+00 0. -1.
        -11    1    4    4    0    0 -0.27883329336E+02  0.90111830730E+02  0.14250690341E+02  0.95397611436E+02  0.00000000000E+00 0. -1.
         11    1    4    4    0    0 -0.41159248896E+02 -0.13251853834E+02  0.87751681530E+01  0.44121411761E+02  0.00000000000E+00 0.  1.
         21    1    1    2  503  501  0.60245097102E+02  0.52997937890E+01 -0.11727676520E+03  0.13195226104E+03  0.00000000000E+00 0.  1.
         -4    1    1    2    0  502 -0.21242981542E+02 -0.31669789986E+02  0.11469958718E+02  0.39822102099E+02  0.00000000000E+00 0.  1.
<scales pt_clust_5="13000.00000" pt_clust_6="13000.00000" pt_clust_7="13000.00000" pt_clust_8="13000.00000" pt_clust_9="58.75206" pt_clust_10="38.13450"></scales>
<clustering>
<clus scale="   38.134">  1 10  2 -1</clus>
<clus scale="   58.752">  2  9  1 -1</clus>
<clus scale="   80.478">  5  6 -1 -1</clus>
<clus scale="   90.890">  7  8 -1 -1</clus>
<clus scale="  120.367">  2  5  1 -1</clus>
<clus scale="   38.134">  1  5  2 -1</clus>
</clustering>
</event>
<event>
10    4  0.5389768E-005  0.1171864E+03  0.7546771E-02  0.1253920E+00
         21   -1    0    0  503  502  0.00000000000E+00  0.00000000000E+00  0.23567351044E+03  0.23567351044E+03  0.00000000000E+00 0. -1.
         -1   -1    0    0    0  501 -0.00000000000E+00 -0.00000000000E+00 -0.36957384744E+03  0.36957384744E+03  0.00000000000E+00 0.  1.
         24    2    1    2    0    0 -0.43366784997E+02 -0.30876302858E+02 -0.29994599378E+03  0.32232916103E+03  0.10533026511E+03 0.  0.
         23    2    1    2    0    0 -0.13724305539E+02  0.64350338732E+02  0.11125942864E+03  0.15758255443E+03  0.90134778765E+02 0.  0.
        -11    1    3    3    0    0 -0.72274286804E+02 -0.10469845610E+02 -0.25427653758E+03  0.26455575549E+03  0.00000000000E+00 0.  1.
         12    1    3    3    0    0  0.28907501807E+02 -0.20406457249E+02 -0.45669456199E+02  0.57773405540E+02  0.00000000000E+00 0. -1.
        -11    1    4    4    0    0  0.19844947131E+02  0.43801968911E+02  0.10783937389E+03  0.11807525129E+03  0.00000000000E+00 0. -1.
         11    1    4    4    0    0 -0.33569252669E+02  0.20548369821E+02  0.34200547532E+01  0.39507303142E+02  0.00000000000E+00 0.  1.
         21    1    1    2  503  501 -0.37531792897E+01 -0.37066543854E+02 -0.77028986668E+01  0.38044049153E+02  0.00000000000E+00 0.  1.
         -2    1    1    2    0  502  0.60844269825E+02  0.35925079807E+01  0.62489126812E+02  0.87291593260E+02  0.00000000000E+00 0.  1.
<scales pt_clust_5="13000.00000" pt_clust_6="13000.00000" pt_clust_7="13000.00000" pt_clust_8="13000.00000" pt_clust_9="37.25607" pt_clust_10="60.24509"></scales>
<clustering>
<clus scale="   37.256">  1  9  2 -1</clus>
<clus scale="   60.245">  1 10  2 -1</clus>
<clus scale="   90.135">  7  8 -1 -1</clus>
<clus scale="  103.742">  1  7  2 -1</clus>
<clus scale="  105.330">  5  6 -1 -1</clus>
<clus scale="   37.256">  1  5  2 -1</clus>
</clustering>
</event>
<event>
10    4  0.5389768E-005  0.1941928E+03  0.7546771E-02  0.1156124E+00
         21   -1    0    0  503  502  0.00000000000E+00  0.00000000000E+00  0.28112278318E+03  0.28112278318E+03  0.00000000000E+00 0.  1.
         -1   -1    0    0    0  501 -0.00000000000E+00 -0.00000000000E+00 -0.39500287362E+03  0.39500287362E+03  0.00000000000E+00 0.  1.
         24    2    1    2    0    0  0.13132520227E+03  0.11246150012E+03 -0.37671898827E+01  0.18993506117E+03  0.78531764171E+02 0.  0.
         23    2    1    2    0    0 -0.19914660829E+03 -0.32584124226E+02  0.84451443383E+02  0.23749397625E+03  0.92467538750E+02 0.  0.
        -13    1    3    3    0    0  0.14101014561E+03  0.11172792809E+03 -0.58425292336E+01  0.18000312838E+03  0.00000000000E+00 0.  1.
         14    1    3    3    0    0 -0.96849433425E+01  0.73357202475E+00  0.20753393509E+01  0.99319327869E+01  0.00000000000E+00 0. -1.
        -13    1    4    4    0    0 -0.16309559316E+03  0.41189143266E+01  0.36533358353E+02  0.16718799071E+03  0.00000000000E+00 0.  1.
         13    1    4    4    0    0 -0.36051015126E+02 -0.36703038552E+02  0.47918085030E+02  0.70305985545E+02  0.00000000000E+00 0. -1.
         21    1    1    2  503  501 -0.30463973491E+02 -0.36140334096E+02 -0.56296699443E+02  0.73508474325E+02  0.00000000000E+00 0.  1.
         -2    1    1    2    0  502  0.98285379510E+02 -0.43737041795E+02 -0.13826764450E+03  0.17518814505E+03  0.00000000000E+00 0.  1.
<scales pt_clust_5="13000.00000" pt_clust_6="13000.00000" pt_clust_7="13000.00000" pt_clust_8="13000.00000" pt_clust_9="47.26709" pt_clust_10="103.60682"></scales>
<clustering>
<clus scale="   47.267">  2  9  1 -1</clus>
<clus scale="   78.532">  5  6 -1 -1</clus>
<clus scale="   92.468">  7  8 -1 -1</clus>
<clus scale="  103.607">  1 10  2 -1</clus>
<clus scale="  187.957">  2  5  1 -1</clus>
<clus scale="  103.607">  1  5  2 -1</clus>
</clustering>
</event>
<event>
10    4  0.5389768E-005  0.1619245E+03  0.7546771E-02  0.1197499E+00
         21   -1    0    0  501  502  0.00000000000E+00  0.00000000000E+00  0.31654865747E+03  0.31654865747E+03  0.00000000000E+00 0. -1.
          2   -1    0    0  503    0 -0.00000000000E+00 -0.00000000000E+00 -0.10977572309E+04  0.10977572309E+04  0.00000000000E+00 0. -1.
         23    2    1    2    0    0  0.78579771426E+02  0.32575260639E+02 -0.14667755704E+02  0.12677274647E+03  0.92845345098E+02 0.  0.
         24    2    1    2    0    0  0.32655709307E+02 -0.94298822375E+02 -0.82458857641E+03  0.83443361944E+03  0.79840351108E+02 0.  0.
        -13    1    4    4    0    0  0.43488660115E+02 -0.21451024115E+02 -0.21433401549E+03  0.21975095038E+03  0.00000000000E+00 0.  1.
         14    1    4    4    0    0 -0.10832950808E+02 -0.72847798260E+02 -0.61025456092E+03  0.61468266907E+03  0.00000000000E+00 0. -1.
        -13    1    3    3    0    0  0.42370423793E+02 -0.30967382470E+02 -0.17831037311E+01  0.52511056440E+02  0.00000000000E+00 0. -1.
         13    1    3    3    0    0  0.36209347632E+02  0.63542643109E+02 -0.12884651973E+02  0.74261690027E+02  0.00000000000E+00 0.  1.
         21    1    1    2  503  502  0.22170599726E+02  0.11030965060E+02 -0.17667207373E+03  0.17839910122E+03  0.00000000000E+00 0. -1.
          1    1    1    2  501    0 -0.13340608046E+03  0.50692596677E+02  0.23471983245E+03  0.27470042119E+03  0.00000000000E+00 0. -1.
<scales pt_clust_5="13000.00000" pt_clust_6="13000.00000" pt_clust_7="13000.00000" pt_clust_8="13000.00000" pt_clust_9="24.76323" pt_clust_10="140.87250"></scales>
<clustering>
<clus scale="   24.763">  2  9  1 -1</clus>
<clus scale="   79.840">  5  6 -1 -1</clus>
<clus scale="   92.845">  7  8 -1 -1</clus>
<clus scale="  127.212">  2  7  1 -1</clus>
<clus scale="  140.873">  1 10  2 -1</clus>
<clus scale="  140.873">  1  5  2 -1</clus>
</clustering>
</event>
<event>
10    4  0.5389768E-005  0.1377187E+03  0.7546771E-02  0.1238600E+00
         21   -1    0    0  503  502  0.00000000000E+00  0.00000000000E+00  0.15986325465E+03  0.15986325465E+03  0.00000000000E+00 0.  1.
         -1   -1    0    0    0  501 -0.00000000000E+00 -0.00000000000E+00 -0.35344218659E+03  0.35344218659E+03  0.00000000000E+00 0.  1.
         23    2    1    2    0    0 -0.89409290855E+01  0.30128877425E+02 -0.12907752772E+03  0.15649773329E+03  0.82721477836E+02 0.  0.
         24    2    1    2    0    0 -0.46365314856E+02 -0.51120140780E+02  0.49855248360E+02  0.11525086418E+03  0.77680143467E+02 0.  0.
        -13    1    4    4    0    0 -0.11711487103E+02 -0.65247136857E+02  0.28432019805E+02  0.72129935175E+02  0.00000000000E+00 0.  1.
         14    1    4    4    0    0 -0.34653827754E+02  0.14126996077E+02  0.21423228555E+02  0.43120929000E+02  0.00000000000E+00 0. -1.
        -13    1    3    3    0    0  0.35227345679E+02  0.10815896054E+02 -0.77985975466E+02  0.86254054168E+02  0.00000000000E+00 0.  1.
         13    1    3    3    0    0 -0.44168274765E+02  0.19312981371E+02 -0.51091552255E+02  0.70243679124E+02  0.00000000000E+00 0. -1.
         21    1    1    2  503  501  0.95742071032E+02  0.83750006897E+02 -0.10757474410E+03  0.16659211682E+03  0.00000000000E+00 0.  1.
         -2    1    1    2    0  502 -0.40435827090E+02 -0.62758743542E+02 -0.67819084812E+01  0.74964726946E+02  0.00000000000E+00 0.  1.
<scales pt_clust_5="13000.00000" pt_clust_6="13000.00000" pt_clust_7="13000.00000" pt_clust_8="13000.00000" pt_clust_9="113.71995" pt_clust_10="74.65732"></scales>
<clustering>
<clus scale="   74.657">  1 10  2 -1</clus>
<clus scale="   77.680">  5  6 -1 -1</clus>
<clus scale="   82.721">  7  8 -1 -1</clus>
<clus scale="   86.968">  2  7  1 -1</clus>
<clus scale="  113.720">  2  9  1 -1</clus>
<clus scale="   74.657">  1  5  2 -1</clus>
</clustering>
</event>
<event>
10    4  0.5389768E-005  0.2025146E+03  0.7546771E-02  0.1158269E+00
          2   -1    0    0  503    0 -0.00000000000E+00  0.00000000000E+00  0.43892837568E+03  0.43892837568E+03  0.00000000000E+00 0. -1.
         21   -1    0    0  501  502  0.00000000000E+00 -0.00000000000E+00 -0.51338915390E+03  0.51338915390E+03  0.00000000000E+00 0. -1.
         23    2    1    2    0    0 -0.11677059704E+03 -0.14477720616E+03  0.18277575131E+03  0.28027476043E+03  0.10271881187E+03 0.  0.
         24    2    1    2    0    0  0.18796935898E+03 -0.61817450538E+02 -0.27758143882E+03  0.34932198516E+03  0.76292313037E+02 0.  0.
        -13    1    4    4    0    0  0.10196683875E+03 -0.72904584069E+02 -0.16562690825E+03  0.20771275194E+03  0.00000000000E+00 0.  1.
         14    1    4    4    0    0  0.86002520231E+02  0.11087133531E+02 -0.11195453058E+03  0.14160923322E+03  0.00000000000E+00 0. -1.
        -11    1    3    3    0    0 -0.10111453553E+03 -0.16084862214E+03  0.16154990068E+03  0.24938885089E+03  0.00000000000E+00 0.  1.
         11    1    3    3    0    0 -0.15656061510E+02  0.16071415973E+02  0.21225850630E+02  0.30885909544E+02  0.00000000000E+00 0. -1.
         21    1    1    2  503  502  0.73266190672E+02  0.14356607916E+03  0.33261472505E+02  0.16457666704E+03  0.00000000000E+00 0. -1.
          1    1    1    2  501    0 -0.14446495262E+03  0.63028577540E+02 -0.12916563212E+02  0.15814411695E+03  0.00000000000E+00 0. -1.
<scales pt_clust_5="13000.00000" pt_clust_6="13000.00000" pt_clust_7="13000.00000" pt_clust_8="13000.00000" pt_clust_9="174.53087" pt_clust_10="157.61575"></scales>
<clustering>
<clus scale="   76.292">  5  6 -1 -1</clus>
<clus scale="  102.719">  7  8 -1 -1</clus>
<clus scale="  157.616">  2 10  1 -1</clus>
<clus scale="  157.616">  2  5  1 -1</clus>
<clus scale="  174.531">  2  9  1 -1</clus>
<clus scale="  157.616">  2  5  1 -1</clus>
</clustering>
</event>
<event>
10    4  0.5389768E-005  0.1405372E+03  0.7546771E-02  0.1215378E+00
         21   -1    0    0  501  502  0.00000000000E+00  0.00000000000E+00  0.30939212488E+03  0.30939212488E+03  0.00000000000E+00 0. -1.
          2   -1    0    0  503    0 -0.00000000000E+00 -0.00000000000E+00 -0.18516430611E+03  0.18516430611E+03  0.00000000000E+00 0. -1.
         23    2    1    2    0    0 -0.79421922654E+02 -0.13368805928E+03  0.46017909572E+02  0.18665413397E+03  0.92421743837E+02 0.  0.
         24    2    1    2    0    0  0.15451610984E+02  0.72007488310E+02  0.57466676949E+01  0.10867023258E+03  0.79701722721E+02 0.  0.
        -13    1    4    4    0    0  0.27177910925E+02  0.45732889395E+02 -0.31330000348E+02  0.61739006604E+02  0.00000000000E+00 0.  1.
         14    1    4    4    0    0 -0.11726299940E+02  0.26274598914E+02  0.37076668043E+02  0.46931225976E+02  0.00000000000E+00 0. -1.
        -11    1    3    3    0    0 -0.58576580306E+02 -0.13318083860E+03  0.11013306426E+02  0.14590971335E+03  0.00000000000E+00 0. -1.
         11    1    3    3    0    0 -0.20845342348E+02 -0.50722068179E+00  0.35004603146E+02  0.40744420622E+02  0.00000000000E+00 0.  1.
         21    1    1    2  503  502  0.41390547261E+02  0.84079641557E+02 -0.24766413999E+02  0.96932650790E+02  0.00000000000E+00 0. -1.
          1    1    1    2  501    0  0.22579764409E+02 -0.22399070584E+02  0.97229655500E+02  0.10229941365E+03  0.00000000000E+00 0. -1.
<scales pt_clust_5="13000.00000" pt_clust_6="13000.00000" pt_clust_7="13000.00000" pt_clust_8="13000.00000" pt_clust_9="92.11911" pt_clust_10="31.80510"></scales>
<clustering>
<clus scale="   31.805">  1 10  2 -1</clus>
<clus scale="   79.702">  5  6 -1 -1</clus>
<clus scale="   92.119">  2  9  1 -1</clus>
<clus scale="   92.422">  7  8 -1 -1</clus>
<clus scale="  132.519">  1  5  2 -1</clus>
<clus scale="   31.805">  1  5  2 -1</clus>
</clustering>
</event>
<event>
10    4  0.5389768E-005  0.1365617E+03  0.7546771E-02  0.1220667E+00
          4   -1    0    0  503    0 -0.00000000000E+00  0.00000000000E+00  0.10127809566E+04  0.10127809566E+04  0.00000000000E+00 0. -1.
         21   -1    0    0  501  502  0.00000000000E+00 -0.00000000000E+00 -0.16831604207E+03  0.16831604207E+03  0.00000000000E+00 0. -1.
         23    2    1    2    0    0  0.98968525829E+02 -0.18612068439E+02  0.11897043073E+03  0.18119351203E+03  0.92390190043E+02 0.  0.
         24    2    1    2    0    0 -0.10366573510E+03 -0.67471394497E+02 -0.91672568030E+02  0.17401953072E+03  0.81116974993E+02 0.  0.
        -13    1    4    4    0    0 -0.28637278038E+02 -0.13532454274E+02 -0.73238042234E+02  0.79793682973E+02  0.00000000000E+00 0.  1.
         14    1    4    4    0    0 -0.75028457064E+02 -0.53938940222E+02 -0.18434525796E+02  0.94225847744E+02  0.00000000000E+00 0. -1.
        -11    1    3    3    0    0  0.40918781006E+02 -0.53645466183E+02  0.72241636114E+02  0.98848554210E+02  0.00000000000E+00 0. -1.
         11    1    3    3    0    0  0.58049744823E+02  0.35033397745E+02  0.46728794616E+02  0.82344957817E+02  0.00000000000E+00 0.  1.
         21    1    1    2  503  502 -0.16106032007E+02  0.91035600402E+02  0.74190227667E+03  0.74764020286E+03  0.00000000000E+00 0. -1.
          3    1    1    2  501    0  0.20803241279E+02 -0.49521374667E+01  0.75264775136E+02  0.78243753038E+02  0.00000000000E+00 0. -1.
<scales pt_clust_5="13000.00000" pt_clust_6="13000.00000" pt_clust_7="13000.00000" pt_clust_8="13000.00000" pt_clust_9="92.30379" pt_clust_10="21.38455"></scales>
<clustering>
<clus scale="   21.385">  2 10  1 -1</clus>
<clus scale="   81.117">  5  6 -1 -1</clus>
<clus scale="   92.304">  1  9  2 -1</clus>
<clus scale="   92.390">  7  8 -1 -1</clus>
<clus scale="  129.202">  2  5  1 -1</clus>
<clus scale="   21.385">  2  5  1 -1</clus>
</clustering>
</event>
<event>
10    4  0.5389768E-005  0.1078419E+03  0.7546771E-02  0.1267403E+00
         21   -1    0    0  501  502  0.00000000000E+00  0.00000000000E+00  0.59551070049E+03  0.59551070049E+03  0.00000000000E+00 0.  1.
          2   -1    0    0  503    0 -0.00000000000E+00 -0.00000000000E+00 -0.23920588438E+03  0.23920588438E+03  0.00000000000E+00 0. -1.
         23    2    1    2    0    0  0.19908383595E+02  0.71690146852E+01 -0.97256540369E+02  0.13462437080E+03  0.90648486250E+02 0.  0.
         24    2    1    2    0    0 -0.92489156283E+02 -0.37073146128E+02  0.54710676107E+03  0.56238528756E+03  0.83801798714E+02 0.  0.
        -13    1    4    4    0    0 -0.59772943878E+02 -0.61673456502E+02  0.42527797613E+03  0.43386377705E+03  0.00000000000E+00 0.  1.
         14    1    4    4    0    0 -0.32716212405E+02  0.24600310374E+02  0.12182878493E+03  0.12852151051E+03  0.00000000000E+00 0. -1.
        -11    1    3    3    0    0  0.27179564745E+02  0.44929414016E+02 -0.69926086541E+02  0.87447347373E+02  0.00000000000E+00 0. -1.
         11    1    3    3    0    0 -0.72711811499E+01 -0.37760399331E+02 -0.27330453827E+02  0.47177023426E+02  0.00000000000E+00 0.  1.
         21    1    1    2  503  502  0.41971679957E+02  0.10314048040E+02 -0.91634138163E+02  0.10131543210E+03  0.00000000000E+00 0. -1.
          1    1    1    2  501    0  0.30609092731E+02  0.19590083403E+02 -0.19112664259E+01  0.36391494403E+02  0.00000000000E+00 0. -1.
<scales pt_clust_5="13000.00000" pt_clust_6="13000.00000" pt_clust_7="13000.00000" pt_clust_8="13000.00000" pt_clust_9="43.50845" pt_clust_10="36.34129"></scales>
<clustering>
<clus scale="   36.341">  1 10  2 -1</clus>
<clus scale="   43.508">  2  9  1 -1</clus>
<clus scale="   83.802">  5  6 -1 -1</clus>
<clus scale="   90.648">  7  8 -1 -1</clus>
<clus scale="  102.154">  1  5  2 -1</clus>
<clus scale="   36.341">  1  5  2 -1</clus>
</clustering>
</event>
<event>
10    4  0.5389768E-005  0.1123569E+03  0.7546771E-02  0.1261026E+00
         21   -1    0    0  501  502  0.00000000000E+00  0.00000000000E+00  0.15559835494E+03  0.15559835494E+03  0.00000000000E+00 0. -1.
          2   -1    0    0  503    0 -0.00000000000E+00 -0.00000000000E+00 -0.33748652474E+03  0.33748652474E+03  0.00000000000E+00 0. -1.
         23    2    1    2    0    0 -0.41897236515E+02  0.40963335761E+02 -0.87343943827E+02  0.13960968358E+03  0.91807003664E+02 0.  0.
         24    2    1    2    0    0  0.10421951964E+03 -0.62961032285E+02  0.15381015791E+02  0.14605611891E+03  0.79183422291E+02 0.  0.
        -11    1    4    4    0    0  0.37083400815E+02 -0.59401584785E+02 -0.16048336628E+02  0.71842021127E+02  0.00000000000E+00 0.  1.
         12    1    4    4    0    0  0.67136118822E+02 -0.35594474999E+01  0.31429352419E+02  0.74214097788E+02  0.00000000000E+00 0. -1.
        -13    1    3    3    0    0 -0.31943883808E+02  0.59116863798E+02 -0.21443858648E+02  0.70534065328E+02  0.00000000000E+00 0. -1.
         13    1    3    3    0    0 -0.99533527068E+01 -0.18153528036E+02 -0.65900085179E+02  0.69075618252E+02  0.00000000000E+00 0.  1.
         21    1    1    2  503  502  0.94327560152E+01 -0.22936002707E+02 -0.11965573729E+03  0.12219874210E+03  0.00000000000E+00 0. -1.
          1    1    1    2  501    0 -0.71755039138E+02  0.44933699231E+02  0.97304955239E+01  0.85220335081E+02  0.00000000000E+00 0. -1.
<scales pt_clust_5="13000.00000" pt_clust_6="13000.00000" pt_clust_7="13000.00000" pt_clust_8="13000.00000" pt_clust_9="24.79994" pt_clust_10="81.18690"></scales>
<clustering>
<clus scale="   24.800">  2  9  1 -1</clus>
<clus scale="   79.183">  5  6 -1 -1</clus>
<clus scale="   81.187">  1 10  2 -1</clus>
<clus scale="   91.807">  7  8 -1 -1</clus>
<clus scale="  102.301">  1  5  2 -1</clus>
<clus scale="   81.187">  1  5  2 -1</clus>
</clustering>
</event>
<event>
10    4  0.5389768E-005  0.1420830E+03  0.7546771E-02  0.1225553E+00
          2   -1    0    0  503    0 -0.00000000000E+00  0.00000000000E+00  0.48568356445E+03  0.48568356445E+03  0.00000000000E+00 0. -1.
         21   -1    0    0  501  502  0.00000000000E+00 -0.00000000000E+00 -0.29539379325E+03  0.29539379325E+03  0.00000000000E+00 0. -1.
         24    2    1    2    0    0 -0.45247907925E+02 -0.76695446894E+02 -0.10802435359E+02  0.11936912251E+03  0.78757412686E+02 0.  0.
         23    2    1    2    0    0  0.55975871397E+02 -0.45513463495E+02 -0.19426020930E+03  0.24207755077E+03  0.12513887537E+03 0.  0.
        -11    1    3    3    0    0 -0.53074843952E+02 -0.23834929876E+02 -0.26127124278E+02  0.63778284437E+02  0.00000000000E+00 0.  1.
         12    1    3    3    0    0  0.78269360272E+01 -0.52860517018E+02  0.15324688919E+02  0.55590838071E+02  0.00000000000E+00 0. -1.
        -13    1    4    4    0    0  0.13929845134E+02 -0.83892788562E+02 -0.93823262303E+02  0.12662876888E+03  0.00000000000E+00 0. -1.
         13    1    4    4    0    0  0.42046026263E+02  0.38379325067E+02 -0.10043694700E+03  0.11544878189E+03  0.00000000000E+00 0.  1.
         21    1    1    2  503  502 -0.35456002163E+02  0.48257643107E+02  0.21410478113E+03  0.22232135640E+03  0.00000000000E+00 0. -1.
          1    1    1    2  501    0  0.24728038692E+02  0.73951267282E+02  0.18124763473E+03  0.19730932802E+03  0.00000000000E+00 0. -1.
<scales pt_clust_5="13000.00000" pt_clust_6="13000.00000" pt_clust_7="13000.00000" pt_clust_8="13000.00000" pt_clust_9="59.88262" pt_clust_10="108.10199"></scales>
<clustering>
<clus scale="   59.883">  1  9  2 -1</clus>
<clus scale="   78.757">  5  6 -1 -1</clus>
<clus scale="  108.102">  2 10  1 -1</clus>
<clus scale="  103.588">  1  5  2 -1</clus>
<clus scale="  125.139">  7  8 -1 -1</clus>
<clus scale="  108.102">  2  5  1 -1</clus>
</clustering>
</event>
<event>
10    4  0.5389768E-005  0.1060589E+03  0.7546771E-02  0.1272621E+00
         -1   -1    0    0    0  501 -0.00000000000E+00  0.00000000000E+00  0.52197736181E+03  0.52197736181E+03  0.00000000000E+00 0.  1.
         21   -1    0    0  503  502  0.00000000000E+00 -0.00000000000E+00 -0.55422975419E+02  0.55422975419E+02  0.00000000000E+00 0. -1.
         24    2    1    2    0    0  0.35365711419E+02 -0.60339794367E+02  0.21898723346E+03  0.24354344248E+03  0.80413777609E+02 0.  0.
         23    2    1    2    0    0 -0.46685710522E+02  0.21411563878E+02  0.14670922837E+03  0.18014128986E+03  0.91045461115E+02 0.  0.
        -11    1    3    3    0    0  0.57286006560E+02 -0.34573050713E+02  0.10384520915E+03  0.12353465038E+03  0.00000000000E+00 0.  1.
         12    1    3    3    0    0 -0.21920295141E+02 -0.25766743655E+02  0.11514202431E+03  0.12000879210E+03  0.00000000000E+00 0. -1.
        -13    1    4    4    0    0  0.72318344429E+01  0.38378065695E+02  0.98109696419E+02  0.10559681760E+03  0.00000000000E+00 0.  1.
         13    1    4    4    0    0 -0.53917544965E+02 -0.16966501817E+02  0.48599531952E+02  0.74544472262E+02  0.00000000000E+00 0. -1.
         21    1    1    2  503  501 -0.13384496353E+02  0.27414071849E+02  0.11775792136E+03  0.12164540320E+03  0.00000000000E+00 0.  1.
         -2    1    1    2    0  502  0.24704495457E+02  0.11514158640E+02 -0.16899996788E+02  0.32070201690E+02  0.00000000000E+00 0.  1.
<scales pt_clust_5="13000.00000" pt_clust_6="13000.00000" pt_clust_7="13000.00000" pt_clust_8="13000.00000" pt_clust_9="30.52413" pt_clust_10="27.25597"></scales>
<clustering>
<clus scale="   27.256">  2 10  1 -1</clus>
<clus scale="   30.524">  1  9  2 -1</clus>
<clus scale="   80.414">  5  6 -1 -1</clus>
<clus scale="   91.045">  7  8 -1 -1</clus>
<clus scale="   97.085">  1  5  2 -1</clus>
<clus scale="   27.256">  2  5  1 -1</clus>
</clustering>
</event>
<event>
10    4  0.5389768E-005  0.1025751E+03  0.7546771E-02  0.1280033E+00
          2   -1    0    0  503    0 -0.00000000000E+00  0.00000000000E+00  0.12837518623E+03  0.12837518623E+03  0.00000000000E+00 0. -1.
         21   -1    0    0  501  502  0.00000000000E+00 -0.00000000000E+00 -0.24213389432E+03  0.24213389432E+03  0.00000000000E+00 0. -1.
         24    2    1    2    0    0  0.36697121381E+02  0.11199438936E+02  0.38259682529E+02  0.97340478408E+02  0.80865686662E+02 0.  0.
         23    2    1    2    0    0 -0.10083499131E+02 -0.25378886623E+02 -0.15622354356E+03  0.18314205922E+03  0.91593959691E+02 0.  0.
        -11    1    3    3    0    0 -0.23338578430E+02  0.12938492861E+02  0.23345193919E+02  0.35455492096E+02  0.00000000000E+00 0.  1.
         12    1    3    3    0    0  0.60035699811E+02 -0.17390539250E+01  0.14914488610E+02  0.61884986312E+02  0.00000000000E+00 0. -1.
        -13    1    4    4    0    0  0.16328034260E+01  0.21569765505E+02 -0.22547922467E+01  0.21748676259E+02  0.00000000000E+00 0.  1.
         13    1    4    4    0    0 -0.11716302557E+02 -0.46948652128E+02 -0.15396875132E+03  0.16139338296E+03  0.00000000000E+00 0. -1.
         21    1    1    2  503  502  0.14902328326E+02  0.14735579010E+02  0.33286977630E+02  0.39334966099E+02  0.00000000000E+00 0. -1.
          1    1    1    2  501    0 -0.41515950575E+02 -0.55613132197E+00 -0.29081824686E+02  0.50691576828E+02  0.00000000000E+00 0. -1.
<scales pt_clust_5="13000.00000" pt_clust_6="13000.00000" pt_clust_7="13000.00000" pt_clust_8="13000.00000" pt_clust_9="20.95750" pt_clust_10="39.78428"></scales>
<clustering>
<clus scale="   20.957">  1  9  2 -1</clus>
<clus scale="   39.784">  2 10  1 -1</clus>
<clus scale="   80.866">  5  6 -1 -1</clus>
<clus scale="   91.594">  7  8 -1 -1</clus>
<clus scale="   93.121">  1  5  2 -1</clus>
<clus scale="   39.784">  2  5  1 -1</clus>
</clustering>
</event>
<event>
10    4  0.5389768E-005  0.9767799E+02  0.7546771E-02  0.1290725E+00
         -3   -1    0    0    0  501 -0.00000000000E+00  0.00000000000E+00  0.27977785389E+03  0.27977785389E+03  0.00000000000E+00 0.  1.
         21   -1    0    0  503  502  0.00000000000E+00 -0.00000000000E+00 -0.23707520215E+03  0.23707520215E+03  0.00000000000E+00 0.  1.
         23    2    1    2    0    0 -0.65058929111E+02 -0.43314410011E+02  0.13536848188E+03  0.18099953177E+03  0.91254601227E+02 0.  0.
         24    2    1    2    0    0  0.13430420752E+01 -0.37015440624E+02 -0.68751879086E+01  0.89298129000E+02  0.80962590296E+02 0.  0.
        -13    1    4    4    0    0 -0.38198813922E+02 -0.21890687364E+02 -0.14352581657E+02  0.46307107214E+02  0.00000000000E+00 0.  1.
         14    1    4    4    0    0  0.39541855997E+02 -0.15124753260E+02  0.74773937487E+01  0.42991021786E+02  0.00000000000E+00 0. -1.
        -13    1    3    3    0    0 -0.85864665740E+02 -0.48102610683E+02  0.10544100055E+03  0.14423732726E+03  0.00000000000E+00 0.  1.
         13    1    3    3    0    0  0.20805736630E+02  0.47882006719E+01  0.29927481326E+02  0.36762204517E+02  0.00000000000E+00 0. -1.
         21    1    1    2  503  501  0.20620536428E+02  0.70661126189E+02  0.59532099409E+02  0.94669277683E+02  0.00000000000E+00 0.  1.
         -4    1    1    2    0  502  0.43095350607E+02  0.96687244453E+01 -0.14532274164E+03  0.15188611758E+03  0.00000000000E+00 0.  1.
<scales pt_clust_5="13000.00000" pt_clust_6="13000.00000" pt_clust_7="13000.00000" pt_clust_8="13000.00000" pt_clust_9="78.22662" pt_clust_10="44.16666"></scales>
<clustering>
<clus scale="   44.167">  2 10  1 -1</clus>
<clus scale="   78.227">  1  9  2 -1</clus>
<clus scale="   80.963">  5  6 -1 -1</clus>
<clus scale="   88.139">  2  5  1 -1</clus>
<clus scale="   91.255">  7  8 -1 -1</clus>
<clus scale="   44.167">  2  5  1 -1</clus>
</clustering>
</event>
<event>
10    4  0.5389768E-005  0.1636741E+03  0.7546771E-02  0.1186203E+00
          2   -1    0    0  503    0 -0.00000000000E+00  0.00000000000E+00  0.64200352458E+03  0.64200352458E+03  0.00000000000E+00 0. -1.
         21   -1    0    0  501  502  0.00000000000E+00 -0.00000000000E+00 -0.95647976958E+02  0.95647976958E+02  0.00000000000E+00 0.  1.
         23    2    1    2    0    0 -0.14734980082E+03  0.44420167213E+02  0.15509918915E+03  0.23721136496E+03  0.92349110083E+02 0.  0.
         24    2    1    2    0    0  0.11972260137E+03 -0.44403860812E+02  0.63183912558E+02  0.16428860572E+03  0.81812804808E+02 0.  0.
        -13    1    4    4    0    0  0.52777340602E+02  0.21382322701E+02  0.15523678157E+02  0.59022334659E+02  0.00000000000E+00 0.  1.
         14    1    4    4    0    0  0.66945260765E+02 -0.65786183514E+02  0.47660234401E+02  0.10526627106E+03  0.00000000000E+00 0. -1.
        -13    1    3    3    0    0 -0.14154195896E+03  0.16578451489E+02  0.96598204028E+02  0.17216324875E+03  0.00000000000E+00 0.  1.
         13    1    3    3    0    0 -0.58078418606E+01  0.27841715724E+02  0.58500985122E+02  0.65048116204E+02  0.00000000000E+00 0. -1.
         21    1    1    2  503  502  0.34575337012E+02 -0.20335227970E+02  0.28713968793E+03  0.28992788036E+03  0.00000000000E+00 0. -1.
          1    1    1    2  501    0 -0.69481375606E+01  0.20318921570E+02  0.40932757986E+02  0.46223650501E+02  0.00000000000E+00 0. -1.
<scales pt_clust_5="13000.00000" pt_clust_6="13000.00000" pt_clust_7="13000.00000" pt_clust_8="13000.00000" pt_clust_9="39.86840" pt_clust_10="21.47407"></scales>
<clustering>
<clus scale="   21.474">  2 10  1 -1</clus>
<clus scale="   39.868">  1  9  2 -1</clus>
<clus scale="   81.813">  5  6 -1 -1</clus>
<clus scale="   92.349">  7  8 -1 -1</clus>
<clus scale="  157.969">  2  5  1 -1</clus>
<clus scale="   21.474">  2  5  1 -1</clus>
</clustering>
</event>
<event>
10    4  0.5389768E-005  0.1284377E+03  0.7546771E-02  0.1230392E+00
         -1   -1    0    0    0  501 -0.00000000000E+00  0.00000000000E+00  0.54994270147E+03  0.54994270147E+03  0.00000000000E+00 0.  1.
         21   -1    0    0  503  502  0.00000000000E+00 -0.00000000000E+00 -0.10844344986E+03  0.10844344986E+03  0.00000000000E+00 0.  1.
         24    2    1    2    0    0 -0.70626503125E+02  0.55178435154E+02  0.17535525321E+03  0.21570992074E+03  0.88025805473E+02 0.  0.
         23    2    1    2    0    0  0.12452295577E+03 -0.70544984837E+02  0.27780952158E+02  0.17148213153E+03  0.90287201380E+02 0.  0.
        -13    1    3    3    0    0 -0.90763730108E+02  0.50921855498E+02  0.15548930874E+03  0.18710428965E+03  0.00000000000E+00 0.  1.
         14    1    3    3    0    0  0.20137226983E+02  0.42565796558E+01  0.19865944466E+02  0.28605631097E+02  0.00000000000E+00 0. -1.
        -13    1    4    4    0    0  0.12193048875E+03 -0.34721356518E+02  0.11738854414E+01  0.12678325872E+03  0.00000000000E+00 0.  1.
         13    1    4    4    0    0  0.25924670182E+01 -0.35823628319E+02  0.26607066716E+02  0.44698872809E+02  0.00000000000E+00 0. -1.
         21    1    1    2  503  501  0.15837514527E+02 -0.19305482724E+02  0.15544680009E+03  0.15743962712E+03  0.00000000000E+00 0. -1.
         -2    1    1    2    0  502 -0.69733967171E+02  0.34672032407E+02  0.82916246151E+02  0.11375447193E+03  0.00000000000E+00 0.  1.
<scales pt_clust_5="13000.00000" pt_clust_6="13000.00000" pt_clust_7="13000.00000" pt_clust_8="13000.00000" pt_clust_9="24.97055" pt_clust_10="72.23150"></scales>
<clustering>
<clus scale="   24.971">  1  9  2 -1</clus>
<clus scale="   72.232">  2 10  1 -1</clus>
<clus scale="   88.026">  5  6 -1 -1</clus>
<clus scale="   90.287">  7  8 -1 -1</clus>
<clus scale="  126.858">  1  5  2 -1</clus>
<clus scale="   72.232">  2  5  1 -1</clus>
</clustering>
</event>
<event>
10    4  0.5389768E-005  0.3307908E+03  0.7546771E-02  0.1091737E+00
          2   -1    0    0  503    0 -0.00000000000E+00  0.00000000000E+00  0.64053204699E+03  0.64053204699E+03  0.00000000000E+00 0. -1.
         21   -1    0    0  501  502  0.00000000000E+00 -0.00000000000E+00 -0.40370788154E+03  0.40370788154E+03  0.00000000000E+00 0. -1.
         23    2    1    2    0    0  0.17527170288E+03  0.48120806874E+02  0.10234329174E+03  0.22648966660E+03  0.88247593897E+02 0.  0.
         24    2    1    2    0    0 -0.32437545294E+03  0.14800241390E+03 -0.14880214640E+03  0.39462824040E+03  0.80406594015E+02 0.  0.
        -13    1    4    4    0    0 -0.23855409534E+03  0.68319631686E+02 -0.10779792732E+03  0.27054763280E+03  0.00000000000E+00 0.  1.
         14    1    4    4    0    0 -0.85821357593E+02  0.79682782217E+02 -0.41004219084E+02  0.12408060760E+03  0.00000000000E+00 0. -1.
        -11    1    3    3    0    0  0.14596303710E+03  0.29223976920E+01  0.89038366381E+02  0.17100169384E+03  0.00000000000E+00 0. -1.
         11    1    3    3    0    0  0.29308665772E+02  0.45198409182E+02  0.13304925360E+02  0.55487972758E+02  0.00000000000E+00 0.  1.
         21    1    1    2  503  502 -0.44109094646E+02 -0.32812196845E+02  0.87030769179E+02  0.10293982357E+03  0.00000000000E+00 0. -1.
          1    1    1    2  501    0  0.19321284471E+03 -0.16331102393E+03  0.19625225093E+03  0.32018219796E+03  0.00000000000E+00 0. -1.
<scales pt_clust_5="13000.00000" pt_clust_6="13000.00000" pt_clust_7="13000.00000" pt_clust_8="13000.00000" pt_clust_9="54.97502" pt_clust_10="320.86981"></scales>
<clustering>
<clus scale="   54.975">  1  9  2 -1</clus>
<clus scale="   80.407">  5  6 -1 -1</clus>
<clus scale="   88.248">  7  8 -1 -1</clus>
<clus scale="  188.378">  1  7  2 -1</clus>
<clus scale="  320.870">  2 10  1 -1</clus>
<clus scale="  320.870">  2  5  1 -1</clus>
</clustering>
</event>
<event>
10    4  0.5389768E-005  0.1755612E+03  0.7546771E-02  0.1173167E+00
          2   -1    0    0  503    0 -0.00000000000E+00  0.00000000000E+00  0.10126679081E+04  0.10126679081E+04  0.00000000000E+00 0. -1.
         21   -1    0    0  501  502  0.00000000000E+00 -0.00000000000E+00 -0.10808329357E+03  0.10808329357E+03  0.00000000000E+00 0. -1.
         24    2    1    2    0    0 -0.93758257382E+02 -0.11029432171E+03  0.11886290437E+03  0.20328609427E+03  0.79002518053E+02 0.  0.
         23    2    1    2    0    0  0.18756986011E+03  0.26672887902E+02  0.14768785351E+03  0.25556904895E+03  0.87234977708E+02 0.  0.
        -13    1    3    3    0    0 -0.76598273623E+02 -0.30852919899E+02  0.48379114655E+02  0.95706514528E+02  0.00000000000E+00 0.  1.
         14    1    3    3    0    0 -0.17159983760E+02 -0.79441401815E+02  0.70483789715E+02  0.10757957974E+03  0.00000000000E+00 0. -1.
        -11    1    4    4    0    0  0.69293684690E+02  0.12769060059E+02  0.11004720210E+03  0.13067153600E+03  0.00000000000E+00 0.  1.
         11    1    4    4    0    0  0.11827617542E+03  0.13903827842E+02  0.37640651412E+02  0.12489751294E+03  0.00000000000E+00 0. -1.
         21    1    1    2  503  502  0.25809391713E+02  0.73222142663E+01  0.19130950846E+03  0.19318143687E+03  0.00000000000E+00 0.  1.
          1    1    1    2  501    0 -0.11962099444E+03  0.76299219546E+02  0.44672434815E+03  0.46871462154E+03  0.00000000000E+00 0. -1.
<scales pt_clust_5="13000.00000" pt_clust_6="13000.00000" pt_clust_7="13000.00000" pt_clust_8="13000.00000" pt_clust_9="26.82796" pt_clust_10="132.41328"></scales>
<clustering>
<clus scale="   26.828">  1  9  2 -1</clus>
<clus scale="   79.003">  5  6 -1 -1</clus>
<clus scale="   87.235">  7  8 -1 -1</clus>
<clus scale="  132.413">  2 10  1 -1</clus>
<clus scale="  171.619">  1  5  2 -1</clus>
<clus scale="  132.413">  2  5  1 -1</clus>
</clustering>
</event>
<event>
10    4  0.5389768E-005  0.5366507E+03  0.7546771E-02  0.1052212E+00
         21   -1    0    0  501  502  0.00000000000E+00  0.00000000000E+00  0.62113162934E+03  0.62113162934E+03  0.00000000000E+00 0.  1.
          2   -1    0    0  503    0 -0.00000000000E+00 -0.00000000000E+00 -0.19427848276E+04  0.19427848276E+04  0.00000000000E+00 0. -1.
         24    2    1    2    0    0 -0.34299040805E+03  0.40328073374E+03 -0.22381872721E+03  0.58032053727E+03  0.79995831801E+02 0.  0.
         23    2    1    2    0    0  0.67948356496E+02  0.87515935800E+02  0.19500797180E+03  0.24259877302E+03  0.92466412466E+02 0.  0.
        -13    1    3    3    0    0 -0.19233536412E+03  0.17299361309E+03 -0.86455601001E+02  0.27275309972E+03  0.00000000000E+00 0.  1.
         14    1    3    3    0    0 -0.15065504392E+03  0.23028712066E+03 -0.13736312621E+03  0.30756743755E+03  0.00000000000E+00 0. -1.
        -11    1    4    4    0    0 -0.24740503376E+00  0.64066792047E+02  0.13245033271E+03  0.14713159309E+03  0.00000000000E+00 0.  1.
         11    1    4    4    0    0  0.68195761530E+02  0.23449143753E+02  0.62557639092E+02  0.95467179921E+02  0.00000000000E+00 0. -1.
         21    1    1    2  503  502  0.28587740923E+03 -0.44868666592E+03 -0.14675244128E+04  0.15609847915E+04  0.00000000000E+00 0. -1.
          1    1    1    2  501    0 -0.10835357676E+02 -0.42110003621E+02  0.17468196992E+03  0.18001235512E+03  0.00000000000E+00 0. -1.
<scales pt_clust_5="13000.00000" pt_clust_6="13000.00000" pt_clust_7="13000.00000" pt_clust_8="13000.00000" pt_clust_9="530.65492" pt_clust_10="43.48169"></scales>
<clustering>
<clus scale="   43.482">  1 10  2 -1</clus>
<clus scale="   79.996">  5  6 -1 -1</clus>
<clus scale="   92.466">  7  8 -1 -1</clus>
<clus scale="  130.099">  1  7  2 -1</clus>
<clus scale="  530.655">  2  9  1 -1</clus>
<clus scale="   43.482">  1  5  2 -1</clus>
</clustering>
</event>
<event>
10    4  0.5389768E-005  0.2358463E+03  0.7546771E-02  0.1134727E+00
         -3   -1    0    0    0  501 -0.00000000000E+00  0.00000000000E+00  0.23004258411E+03  0.23004258411E+03  0.00000000000E+00 0.  1.
         21   -1    0    0  503  502  0.00000000000E+00 -0.00000000000E+00 -0.64734991202E+03  0.64734991202E+03  0.00000000000E+00 0. -1.
         23    2    1    2    0    0  0.12921814765E+03 -0.40814540735E+02 -0.14848896617E+01  0.16314473968E+03  0.90834160815E+02 0.  0.
         24    2    1    2    0    0 -0.24520901712E+03 -0.16072805586E+03 -0.18703308389E+03  0.35647302507E+03  0.78298615056E+02 0.  0.
        -13    1    4    4    0    0 -0.58939339680E+02 -0.63385860475E+02 -0.22150344185E+02  0.89343443059E+02  0.00000000000E+00 0.  1.
         14    1    4    4    0    0 -0.18626967744E+03 -0.97342195382E+02 -0.16488273970E+03  0.26712958201E+03  0.00000000000E+00 0. -1.
        -11    1    3    3    0    0  0.13286744662E+03 -0.11966255377E+02 -0.68275660919E+01  0.13357980872E+03  0.00000000000E+00 0.  1.
         11    1    3    3    0    0 -0.36492989732E+01 -0.28848285359E+02  0.53426764302E+01  0.29564930958E+02  0.00000000000E+00 0. -1.
         21    1    1    2  503  501  0.39671623112E+02  0.10743768596E+02  0.10436843203E+02  0.42405116909E+02  0.00000000000E+00 0.  1.
         -4    1    1    2    0  502  0.76319246354E+02  0.19079882800E+03 -0.23922619757E+03  0.31536961447E+03  0.00000000000E+00 0.  1.
<scales pt_clust_5="13000.00000" pt_clust_6="13000.00000" pt_clust_7="13000.00000" pt_clust_8="13000.00000" pt_clust_9="41.10068" pt_clust_10="222.46978"></scales>
<clustering>
<clus scale="   41.101">  1  9  2 -1</clus>
<clus scale="   78.299">  5  6 -1 -1</clus>
<clus scale="   90.834">  7  8 -1 -1</clus>
<clus scale="  174.934">  1  7  2 -1</clus>
<clus scale="  222.470">  2 10  1 -1</clus>
<clus scale="  222.470">  2  5  1 -1</clus>
</clustering>
</event>
<event>
10    4  0.5389768E-005  0.1625099E+03  0.7546771E-02  0.1189514E+00
          2   -1    0    0  503    0 -0.00000000000E+00  0.00000000000E+00  0.13820787835E+03  0.13820787835E+03  0.00000000000E+00 0. -1.
         21   -1    0    0  501  502  0.00000000000E+00 -0.00000000000E+00 -0.27001532804E+03  0.27001532804E+03  0.00000000000E+00 0. -1.
         23    2    1    2    0    0 -0.11988318573E+03  0.52719143579E+02 -0.55757795751E+02  0.17463228222E+03  0.10117418587E+03 0.  0.
         24    2    1    2    0    0  0.12964159388E+03 -0.12104032644E+02 -0.73264841350E+02  0.16922579294E+03  0.79474408141E+02 0.  0.
        -13    1    4    4    0    0  0.48484380689E+02 -0.42383665611E+02 -0.43151793979E+02  0.77518949974E+02  0.00000000000E+00 0.  1.
         14    1    4    4    0    0  0.81157213191E+02  0.30279632967E+02 -0.30113047371E+02  0.91706842970E+02  0.00000000000E+00 0. -1.
        -13    1    3    3    0    0 -0.32268818293E+00  0.37960628640E+02  0.73018335759E+01  0.38657861140E+02  0.00000000000E+00 0.  1.
         13    1    3    3    0    0 -0.11956049755E+03  0.14758514939E+02 -0.63059629327E+02  0.13597442108E+03  0.00000000000E+00 0. -1.
         21    1    1    2  503  502  0.18501803845E+02 -0.80736871058E+01  0.44265858437E+01  0.20666296989E+02  0.00000000000E+00 0. -1.
          1    1    1    2  501    0 -0.28260211995E+02 -0.32541423829E+02 -0.72113984267E+01  0.43698834242E+02  0.00000000000E+00 0. -1.
<scales pt_clust_5="13000.00000" pt_clust_6="13000.00000" pt_clust_7="13000.00000" pt_clust_8="13000.00000" pt_clust_9="20.18666" pt_clust_10="42.31597"></scales>
<clustering>
<clus scale="   20.187">  1  9  2 -1</clus>
<clus scale="   42.316">  2 10  1 -1</clus>
<clus scale="   79.474">  5  6 -1 -1</clus>
<clus scale="  101.174">  7  8 -1 -1</clus>
<clus scale="  149.965">  2  5  1 -1</clus>
<clus scale="   42.316">  2  5  1 -1</clus>
</clustering>
</event>
<event>
10    4  0.8665284E-005  0.1261911E+03  0.7546771E-02  0.1234611E+00
         21   -1    0    0  501  502  0.00000000000E+00  0.00000000000E+00  0.25959829364E+03  0.25959829364E+03  0.00000000000E+00 0. -1.
          2   -1    0    0  503    0 -0.00000000000E+00 -0.00000000000E+00 -0.56847426960E+03  0.56847426960E+03  0.00000000000E+00 0. -1.
         24    2    1    2    0    0 -0.77086271217E+02 -0.76832560218E+02 -0.44404461956E+03  0.46407009945E+03  0.79623473390E+02 0.  0.
         23    2    1    2    0    0  0.39513528332E+02  0.31662219079E+02 -0.61030812554E+02  0.11624114771E+03  0.84990760092E+02 0.  0.
        -11    1    3    3    0    0 -0.99994965586E+01 -0.65913354278E+02 -0.23301699995E+03  0.24236642191E+03  0.00000000000E+00 0.  1.
         12    1    3    3    0    0 -0.67086774659E+02 -0.10919205940E+02 -0.21102761961E+03  0.22170367753E+03  0.00000000000E+00 0. -1.
        -11    1    4    4    0    0  0.52966842395E+02  0.51252875865E+02 -0.37101589753E+02  0.82515887197E+02  0.00000000000E+00 0.  1.
         11    1    4    4    0    0 -0.13453314063E+02 -0.19590656786E+02 -0.23929222801E+02  0.33725260510E+02  0.00000000000E+00 0. -1.
         21    1    1    2  503  502  0.34631093488E+02  0.11578237292E+02 -0.10764009975E+02  0.38068781511E+02  0.00000000000E+00 0.  1.
          1    1    1    2  501    0  0.29416493968E+01  0.33592103847E+02  0.20696346614E+03  0.20969253458E+03  0.00000000000E+00 0. -1.
<scales pt_clust_5="13000.00000" pt_clust_6="13000.00000" pt_clust_7="13000.00000" pt_clust_8="13000.00000" pt_clust_9="40.93144" pt_clust_10="33.72066"></scales>
<clustering>
<clus scale="   33.721">  1 10  2 -1</clus>
<clus scale="   40.931">  1  9  2 -1</clus>
<clus scale="   79.623">  5  6 -1 -1</clus>
<clus scale="   84.991">  7  8 -1 -1</clus>
<clus scale="  122.640">  2  5  1 -1</clus>
<clus scale="   33.721">  1  5  2 -1</clus>
</clustering>
</event>
<event>
10    4  0.5389768E-005  0.1343771E+03  0.7546771E-02  0.1243727E+00
         21   -1    0    0  503  502  0.00000000000E+00  0.00000000000E+00  0.17251514934E+03  0.17251514934E+03  0.00000000000E+00 0.  1.
         -1   -1    0    0    0  501 -0.00000000000E+00 -0.00000000000E+00 -0.35284247131E+03  0.35284247131E+03  0.00000000000E+00 0.  1.
         24    2    1    2    0    0  0.55171005694E+02  0.17784337414E+02 -0.13423179199E+03  0.16679660825E+03  0.80267129117E+02 0.  0.
         23    2    1    2    0    0 -0.17793002327E+02 -0.92627091656E+02  0.65093269900E+02  0.14658732301E+03  0.91402081165E+02 0.  0.
        -11    1    3    3    0    0 -0.12386974558E+02  0.17384061531E+02 -0.65250471602E+01  0.22320819305E+02  0.00000000000E+00 0.  1.
         12    1    3    3    0    0  0.67557980252E+02  0.40027588267E+00 -0.12770674483E+03  0.14447578894E+03  0.00000000000E+00 0. -1.
        -11    1    4    4    0    0  0.22952872130E+02  0.45319430692E+01  0.13217444396E+01  0.23433306539E+02  0.00000000000E+00 0. -1.
         11    1    4    4    0    0 -0.40745874457E+02 -0.97159034725E+02  0.63771525461E+02  0.12315401647E+03  0.00000000000E+00 0.  1.
         21    1    1    2  503  501 -0.50110579226E+02 -0.29956210057E+02 -0.85146544115E+02  0.10323942389E+03  0.00000000000E+00 0. -1.
         -2    1    1    2    0  502  0.12732575860E+02  0.10479896430E+03 -0.26042255773E+02  0.10873426549E+03  0.00000000000E+00 0.  1.
<scales pt_clust_5="13000.00000" pt_clust_6="13000.00000" pt_clust_7="13000.00000" pt_clust_8="13000.00000" pt_clust_9="58.38189" pt_clust_10="98.50315"></scales>
<clustering>
<clus scale="   58.382">  2  9  1 -1</clus>
<clus scale="   80.267">  5  6 -1 -1</clus>
<clus scale="   84.377">  2  5  1 -1</clus>
<clus scale="   91.402">  7  8 -1 -1</clus>
<clus scale="   98.503">  1 10  2 -1</clus>
<clus scale="   98.503">  1  5  2 -1</clus>
</clustering>
</event>
<event>
10    4  0.5389768E-005  0.2112572E+03  0.7546771E-02  0.1152152E+00
          2   -1    0    0  502    0 -0.00000000000E+00  0.00000000000E+00  0.29752651008E+03  0.29752651008E+03  0.00000000000E+00 0. -1.
         21   -1    0    0  503  502  0.00000000000E+00 -0.00000000000E+00 -0.60528543536E+03  0.60528543536E+03  0.00000000000E+00 0. -1.
         24    2    1    2    0    0 -0.43360018229E+02 -0.13098964942E+03 -0.20210013845E+02  0.16155393875E+03  0.81565011060E+02 0.  0.
         23    2    1    2    0    0 -0.13773848223E+03  0.14220065551E+03 -0.44278306785E+03  0.49321862900E+03  0.89525721997E+02 0.  0.
        -11    1    3    3    0    0  0.20041593029E+02 -0.39391366350E+02 -0.23598407575E+02  0.50102195901E+02  0.00000000000E+00 0.  1.
         12    1    3    3    0    0 -0.63401611258E+02 -0.91598283071E+02  0.33883937298E+01  0.11145174285E+03  0.00000000000E+00 0. -1.
        -11    1    4    4    0    0 -0.43322508020E+02  0.21624767527E+02 -0.20306808658E+03  0.20876091123E+03  0.00000000000E+00 0.  1.
         11    1    4    4    0    0 -0.94415974214E+02  0.12057588799E+03 -0.23971498127E+03  0.28445771777E+03  0.00000000000E+00 0. -1.
         21    1    1    2  503  501  0.52614850768E+02  0.23182405094E+02  0.27903824263E+02  0.63909074752E+02  0.00000000000E+00 0. -1.
          1    1    1    2  501    0  0.12848364970E+03 -0.34393411186E+02  0.12733033216E+03  0.18413030294E+03  0.00000000000E+00 0. -1.
<scales pt_clust_5="13000.00000" pt_clust_6="13000.00000" pt_clust_7="13000.00000" pt_clust_8="13000.00000" pt_clust_9="44.12212" pt_clust_10="202.77658"></scales>
<clustering>
<clus scale="   44.122">  9 10 -1 -1</clus>
<clus scale="   81.565">  5  6 -1 -1</clus>
<clus scale="   89.526">  7  8 -1 -1</clus>
<clus scale="  160.285">  1  5  2 -1</clus>
<clus scale="  202.777">  2  9  1 -1</clus>
<clus scale="  202.777">  2  5  1 -1</clus>
</clustering>
</event>
<event>
10    4  0.5389768E-005  0.8195975E+02  0.7546771E-02  0.1323950E+00
         -1   -1    0    0    0  501 -0.00000000000E+00  0.00000000000E+00  0.84058176625E+02  0.84058176625E+02  0.00000000000E+00 0.  1.
         21   -1    0    0  503  502  0.00000000000E+00 -0.00000000000E+00 -0.70175427927E+03  0.70175427927E+03  0.00000000000E+00 0.  1.
         23    2    1    2    0    0  0.55200085226E+01  0.20987367960E+02  0.41374862551E+02  0.86544389561E+02  0.72849927972E+02 0.  0.
         24    2    1    2    0    0 -0.19382415673E+02 -0.46915799426E+02 -0.27852557756E+03  0.29218592334E+03  0.72245042529E+02 0.  0.
        -13    1    4    4    0    0 -0.17468913715E+01 -0.54177675547E+02 -0.11047847616E+03  0.12306000915E+03  0.00000000000E+00 0.  1.
         14    1    4    4    0    0 -0.17635524302E+02  0.72618761209E+01 -0.16804710140E+03  0.16912591419E+03  0.00000000000E+00 0. -1.
        -11    1    3    3    0    0 -0.27658796407E+01  0.47722030436E+02  0.22872369780E+02  0.52992335092E+02  0.00000000000E+00 0.  1.
         11    1    3    3    0    0  0.82858881633E+01 -0.26734662476E+02  0.18502492771E+02  0.33552054469E+02  0.00000000000E+00 0. -1.
         21    1    1    2  503  501  0.37979131586E+02 -0.16498399804E+02 -0.25353245224E+02  0.48553050115E+02  0.00000000000E+00 0.  1.
         -2    1    1    2    0  502 -0.24116724435E+02  0.42426831270E+02 -0.35519214241E+03  0.35852909288E+03  0.00000000000E+00 0.  1.
<scales pt_clust_5="13000.00000" pt_clust_6="13000.00000" pt_clust_7="13000.00000" pt_clust_8="13000.00000" pt_clust_9="41.40787" pt_clust_10="48.04314"></scales>
<clustering>
<clus scale="   41.408">  1  9  2 -1</clus>
<clus scale="   48.043">  2 10  1 -1</clus>
<clus scale="   72.245">  5  6 -1 -1</clus>
<clus scale="   72.850">  7  8 -1 -1</clus>
<clus scale="   81.423">  2  5  1 -1</clus>
<clus scale="   48.043">  2  5  1 -1</clus>
</clustering>
</event>
<event>
10    4  0.5389768E-005  0.4200331E+03  0.7546771E-02  0.1037204E+00
          2   -1    0    0  503    0 -0.00000000000E+00  0.00000000000E+00  0.81622870212E+03  0.81622870212E+03  0.00000000000E+00 0. -1.
         21   -1    0    0  501  502  0.00000000000E+00 -0.00000000000E+00 -0.32376993849E+03  0.32376993849E+03  0.00000000000E+00 0. -1.
         24    2    1    2    0    0 -0.16427640527E+03 -0.43489250355E+03  0.29548340295E+03  0.55657819375E+03  0.79690760831E+02 0.  0.
         23    2    1    2    0    0  0.12184118840E+03  0.32988989185E+03  0.90008119201E+02  0.37369204471E+03  0.88722414441E+02 0.  0.
        -11    1    3    3    0    0 -0.54952898313E+02 -0.71021670750E+02  0.77048918094E+02  0.11832343187E+03  0.00000000000E+00 0.  1.
         12    1    3    3    0    0 -0.10932350696E+03 -0.36387083280E+03  0.21843448486E+03  0.43825476188E+03  0.00000000000E+00 0. -1.
        -13    1    4    4    0    0 -0.57107568012E+01  0.86220619459E+02  0.84626340421E+01  0.86822947071E+02  0.00000000000E+00 0.  1.
         13    1    4    4    0    0  0.12755194520E+03  0.24366927239E+03  0.81545485159E+02  0.28686909764E+03  0.00000000000E+00 0. -1.
         21    1    1    2  503  502  0.47299053799E+02 -0.22613968410E+02  0.26049800840E+02  0.58542157300E+02  0.00000000000E+00 0.  1.
          1    1    1    2  501    0 -0.48638369273E+01  0.12761658011E+03  0.80917440639E+02  0.15118624484E+03  0.00000000000E+00 0. -1.
<scales pt_clust_5="13000.00000" pt_clust_6="13000.00000" pt_clust_7="13000.00000" pt_clust_8="13000.00000" pt_clust_9="52.42702" pt_clust_10="124.24565"></scales>
<clustering>
<clus scale="   52.427">  1  9  2 -1</clus>
<clus scale="   79.691">  5  6 -1 -1</clus>
<clus scale="   88.722">  7  8 -1 -1</clus>
<clus scale="  124.246">  2 10  1 -1</clus>
<clus scale="  418.219">  1  5  2 -1</clus>
<clus scale="  124.246">  2  5  1 -1</clus>
</clustering>
</event>
<event>
10    4  0.5389768E-005  0.9356178E+02  0.7546771E-02  0.1300227E+00
         21   -1    0    0  501  502  0.00000000000E+00  0.00000000000E+00  0.10059118457E+03  0.10059118457E+03  0.00000000000E+00 0. -1.
          4   -1    0    0  503    0 -0.00000000000E+00 -0.00000000000E+00 -0.42139512880E+03  0.42139512880E+03  0.00000000000E+00 0. -1.
         24    2    1    2    0    0  0.19801024940E+01 -0.33997546445E+02 -0.15952668582E+03  0.18252716298E+03  0.81900230554E+02 0.  0.
         23    2    1    2    0    0 -0.35348821593E+02  0.84975225471E+01  0.48696736861E+02  0.10994087720E+03  0.91618105318E+02 0.  0.
        -13    1    3    3    0    0  0.37643533782E+02  0.14508396624E+01 -0.56848198177E+02  0.68197200876E+02  0.00000000000E+00 0.  1.
         14    1    3    3    0    0 -0.35663431288E+02 -0.35448386108E+02 -0.10267848765E+03  0.11432996210E+03  0.00000000000E+00 0. -1.
        -11    1    4    4    0    0 -0.44116917897E+02 -0.14023643782E+02  0.65714569460E+02  0.80382645322E+02  0.00000000000E+00 0. -1.
         11    1    4    4    0    0  0.87680963043E+01  0.22521166329E+02 -0.17017832599E+02  0.29558231882E+02  0.00000000000E+00 0.  1.
         21    1    1    2  503  502  0.19296634714E+02  0.47972563769E+02 -0.18830443688E+03  0.19527490350E+03  0.00000000000E+00 0. -1.
          3    1    1    2  501    0  0.14072084385E+02 -0.22472539871E+02 -0.21669558380E+02  0.34243369687E+02  0.00000000000E+00 0. -1.
<scales pt_clust_5="13000.00000" pt_clust_6="13000.00000" pt_clust_7="13000.00000" pt_clust_8="13000.00000" pt_clust_9="51.13779" pt_clust_10="26.51489"></scales>
<clustering>
<clus scale="   26.515">  1 10  2 -1</clus>
<clus scale="   51.138">  2  9  1 -1</clus>
<clus scale="   81.900">  5  6 -1 -1</clus>
<clus scale="   84.069">  2  5  1 -1</clus>
<clus scale="   91.618">  7  8 -1 -1</clus>
<clus scale="   26.515">  1  5  2 -1</clus>
</clustering>
</event>
<event>
10    4  0.5389768E-005  0.2349016E+03  0.7546771E-02  0.1158717E+00
         21   -1    0    0  503  502  0.00000000000E+00  0.00000000000E+00  0.17246214444E+03  0.17246214444E+03  0.00000000000E+00 0.  1.
         -1   -1    0    0    0  501 -0.00000000000E+00 -0.00000000000E+00 -0.71881902879E+03  0.71881902879E+03  0.00000000000E+00 0.  1.
         24    2    1    2    0    0  0.68334706627E+02 -0.13604122514E+02 -0.21931693705E+03  0.24380111472E+03  0.80525526290E+02 0.  0.
         23    2    1    2    0    0 -0.46259100784E+02 -0.19368389798E+03 -0.46994479878E+02  0.22390403794E+03  0.90946029751E+02 0.  0.
        -11    1    3    3    0    0  0.21933735218E+02  0.63942131065E+01 -0.47111143064E+01  0.23327436633E+02  0.00000000000E+00 0.  1.
         12    1    3    3    0    0  0.46400971409E+02 -0.19998335620E+02 -0.21460582274E+03  0.22047367809E+03  0.00000000000E+00 0. -1.
        -13    1    4    4    0    0 -0.69991569056E+02 -0.10933973063E+03 -0.15268917952E+02  0.13071777342E+03  0.00000000000E+00 0. -1.
         13    1    4    4    0    0  0.23732468273E+02 -0.84344167346E+02 -0.31725561926E+02  0.93186264519E+02  0.00000000000E+00 0.  1.
         21    1    1    2  503  501 -0.46718365519E+02 -0.43824689290E+02 -0.73529609451E+02  0.97518267695E+02  0.00000000000E+00 0. -1.
         -2    1    1    2    0  502  0.24642759675E+02  0.25111270978E+03 -0.20651585797E+03  0.32605775287E+03  0.00000000000E+00 0.  1.
<scales pt_clust_5="13000.00000" pt_clust_6="13000.00000" pt_clust_7="13000.00000" pt_clust_8="13000.00000" pt_clust_9="64.05630" pt_clust_10="216.58169"></scales>
<clustering>
<clus scale="   64.056">  2  9  1 -1</clus>
<clus scale="   80.526">  5  6 -1 -1</clus>
<clus scale="   90.946">  7  8 -1 -1</clus>
<clus scale="   99.945">  2  5  1 -1</clus>
<clus scale="  216.582">  1 10  2 -1</clus>
<clus scale="  216.582">  1  5  2 -1</clus>
</clustering>
</event>
<event>
10    4  0.5389768E-005  0.1982056E+03  0.7546771E-02  0.1190590E+00
         21   -1    0    0  501  502  0.00000000000E+00  0.00000000000E+00  0.28914297601E+03  0.28914297601E+03  0.00000000000E+00 0. -1.
         -1   -1    0    0    0  501 -0.00000000000E+00 -0.00000000000E+00 -0.20640494406E+03  0.20640494406E+03  0.00000000000E+00 0.  1.
         24    2    1    2    0    0 -0.25920494512E+01  0.13610695457E+02  0.69895411086E+02  0.10677193714E+03  0.79516717222E+02 0.  0.
         23    2    1    2    0    0  0.17138119817E+03  0.36707435703E+02 -0.16935456416E+02  0.19860924567E+03  0.91868775223E+02 0.  0.
        -11    1    3    3    0    0 -0.13820278303E+02  0.17047304167E+02 -0.11333024028E+02  0.24699151916E+02  0.00000000000E+00 0.  1.
         12    1    3    3    0    0  0.11228228852E+02 -0.34366087105E+01  0.81228435115E+02  0.82072785220E+02  0.00000000000E+00 0. -1.
        -13    1    4    4    0    0  0.15297392287E+03 -0.39975042737E+01 -0.16704322245E+02  0.15393516655E+03  0.00000000000E+00 0. -1.
         13    1    4    4    0    0  0.18407275296E+02  0.40704939977E+02 -0.23113417097E+00  0.44674079121E+02  0.00000000000E+00 0.  1.
         21    1    1    2  503  502 -0.22411685275E+02 -0.33739992482E+02  0.68134013467E+01  0.41074239707E+02  0.00000000000E+00 0.  1.
         -2    1    1    2    0  503 -0.14637746344E+03 -0.16578138678E+02  0.22964675933E+02  0.14909249755E+03  0.00000000000E+00 0.  1.
<scales pt_clust_5="13000.00000" pt_clust_6="13000.00000" pt_clust_7="13000.00000" pt_clust_8="13000.00000" pt_clust_9="34.20443" pt_clust_10="187.35136"></scales>
<clustering>
<clus scale="   34.204">  9 10 -1 -1</clus>
<clus scale="   79.517">  5  6 -1 -1</clus>
<clus scale="   80.715">  2  5  1 -1</clus>
<clus scale="   91.869">  7  8 -1 -1</clus>
<clus scale="  187.351">  1  9  2 -1</clus>
<clus scale="  187.351">  1  5  2 -1</clus>
</clustering>
</event>
<event>
10    4  0.5389768E-005  0.1174284E+03  0.7546771E-02  0.1248765E+00
          2   -1    0    0  503    0 -0.00000000000E+00  0.00000000000E+00  0.76691857074E+02  0.76691857074E+02  0.00000000000E+00 0. -1.
         21   -1    0    0  501  502  0.00000000000E+00 -0.00000000000E+00 -0.53948802100E+03  0.53948802100E+03  0.00000000000E+00 0. -1.
         23    2    1    2    0    0  0.12817815053E+03  0.19715072545E+02 -0.18814526730E+03  0.24555366685E+03  0.89886814044E+02 0.  0.
         24    2    1    2    0    0 -0.27669925311E+02  0.56205559313E+02 -0.13966610214E+03  0.17543487141E+03  0.85709301465E+02 0.  0.
        -13    1    4    4    0    0 -0.45782388016E+02  0.64202418534E+02 -0.13286006832E+03  0.15449846392E+03  0.00000000000E+00 0.  1.
         14    1    4    4    0    0  0.18112462704E+02 -0.79968592209E+01 -0.68060338143E+01  0.20936407497E+02  0.00000000000E+00 0. -1.
        -13    1    3    3    0    0  0.12739354425E+00  0.28812453679E+02 -0.26612814989E+02  0.39222641901E+02  0.00000000000E+00 0.  1.
         13    1    3    3    0    0  0.12805075698E+03 -0.90973811342E+01 -0.16153245231E+03  0.20633102495E+03  0.00000000000E+00 0. -1.
         21    1    1    2  503  502 -0.63013754210E+02 -0.65070601718E+02 -0.12592763255E+03  0.15512151710E+03  0.00000000000E+00 0. -1.
          1    1    1    2  501    0 -0.37494471006E+02 -0.10850030139E+02 -0.90571619492E+01  0.40069822718E+02  0.00000000000E+00 0. -1.
<scales pt_clust_5="13000.00000" pt_clust_6="13000.00000" pt_clust_7="13000.00000" pt_clust_8="13000.00000" pt_clust_9="99.96646" pt_clust_10="39.03281"></scales>
<clustering>
<clus scale="   39.033">  2 10  1 -1</clus>
<clus scale="   85.709">  5  6 -1 -1</clus>
<clus scale="   89.887">  7  8 -1 -1</clus>
<clus scale="   99.966">  1  9  2 -1</clus>
<clus scale="  114.262">  2  5  1 -1</clus>
<clus scale="   39.033">  2  5  1 -1</clus>
</clustering>
</event>
<event>
10    4  0.5389768E-005  0.1072772E+03  0.7546771E-02  0.1269723E+00
         21   -1    0    0  501  502  0.00000000000E+00  0.00000000000E+00  0.14936439582E+03  0.14936439582E+03  0.00000000000E+00 0. -1.
          2   -1    0    0  503    0 -0.00000000000E+00 -0.00000000000E+00 -0.30811254068E+03  0.30811254068E+03  0.00000000000E+00 0. -1.
         23    2    1    2    0    0 -0.58217447840E+02  0.39775599311E+02 -0.14391120324E+03  0.18374624794E+03  0.89893713243E+02 0.  0.
         24    2    1    2    0    0  0.67085289195E+01 -0.62268921462E+02 -0.92506304564E+02  0.13746040660E+03  0.80096966592E+02 0.  0.
        -11    1    4    4    0    0  0.25433932949E+02 -0.43434456778E+02 -0.10709680476E+02  0.51460025620E+02  0.00000000000E+00 0.  1.
         12    1    4    4    0    0 -0.18725404030E+02 -0.18834464683E+02 -0.81796624087E+02  0.86000380976E+02  0.00000000000E+00 0. -1.
        -11    1    3    3    0    0 -0.39749211634E+02 -0.51845740465E+01 -0.12554036272E+03  0.13178490925E+03  0.00000000000E+00 0. -1.
         11    1    3    3    0    0 -0.18468236206E+02  0.44960173357E+02 -0.18370840512E+02  0.51961338685E+02  0.00000000000E+00 0.  1.
         21    1    1    2  503  502  0.21657660975E+02 -0.66768119155E+01 -0.19892695564E+02  0.30155487611E+02  0.00000000000E+00 0.  1.
          1    1    1    2  501    0  0.29851257945E+02  0.29170134066E+02  0.97562058502E+02  0.10611479436E+03  0.00000000000E+00 0. -1.
<scales pt_clust_5="13000.00000" pt_clust_6="13000.00000" pt_clust_7="13000.00000" pt_clust_8="13000.00000" pt_clust_9="22.66350" pt_clust_10="41.90179"></scales>
<clustering>
<clus scale="   22.663">  2  9  1 -1</clus>
<clus scale="   41.902">  1 10  2 -1</clus>
<clus scale="   80.097">  5  6 -1 -1</clus>
<clus scale="   89.894">  7  8 -1 -1</clus>
<clus scale="   99.212">  1  5  2 -1</clus>
<clus scale="   41.902">  1  5  2 -1</clus>
</clustering>
</event>
<event>
10    4  0.5389768E-005  0.4527851E+03  0.7546771E-02  0.1070150E+00
          2   -1    0    0  503    0 -0.00000000000E+00  0.00000000000E+00  0.37572788673E+03  0.37572788673E+03  0.00000000000E+00 0. -1.
         21   -1    0    0  501  502  0.00000000000E+00 -0.00000000000E+00 -0.11543175462E+04  0.11543175462E+04  0.00000000000E+00 0. -1.
         24    2    1    2    0    0 -0.20823501744E+02  0.10161464090E+03  0.38994971087E+02  0.13806298666E+03  0.82350634759E+02 0.  0.
         23    2    1    2    0    0  0.42437308011E+03  0.46399406124E+02 -0.13226761381E+03  0.45621849168E+03  0.91625184695E+02 0.  0.
        -13    1    3    3    0    0  0.22038701642E+02  0.12884675349E+02  0.29581601547E+02  0.39074165109E+02  0.00000000000E+00 0.  1.
         14    1    3    3    0    0 -0.42862203386E+02  0.88729965554E+02  0.94133695399E+01  0.98988821553E+02  0.00000000000E+00 0. -1.
        -11    1    4    4    0    0  0.10034773070E+02  0.18869044168E+02 -0.66567830715E+01  0.22384151966E+02  0.00000000000E+00 0.  1.
         11    1    4    4    0    0  0.41433830704E+03  0.27530361956E+02 -0.12561083074E+03  0.43383433971E+03  0.00000000000E+00 0. -1.
         21    1    1    2  503  502  0.24863078100E+02 -0.11949961703E+01  0.59261240658E+02  0.64276708945E+02  0.00000000000E+00 0. -1.
          1    1    1    2  501    0 -0.42841265647E+03 -0.14681905086E+03 -0.74457825738E+03  0.87148724562E+03  0.00000000000E+00 0. -1.
<scales pt_clust_5="13000.00000" pt_clust_6="13000.00000" pt_clust_7="13000.00000" pt_clust_8="13000.00000" pt_clust_9="24.89178" pt_clust_10="443.41761"></scales>
<clustering>
<clus scale="   24.892">  1  9  2 -1</clus>
<clus scale="   82.351">  5  6 -1 -1</clus>
<clus scale="   91.625">  7  8 -1 -1</clus>
<clus scale="  131.262">  1  5  2 -1</clus>
<clus scale="  443.418">  2 10  1 -1</clus>
<clus scale="  443.418">  2  5  1 -1</clus>
</clustering>
</event>
<event>
10    4  0.5389768E-005  0.1782673E+03  0.7546771E-02  0.1201527E+00
         21   -1    0    0  501  502  0.00000000000E+00  0.00000000000E+00  0.43115072581E+03  0.43115072581E+03  0.00000000000E+00 0.  1.
          2   -1    0    0  503    0 -0.00000000000E+00 -0.00000000000E+00 -0.58246477958E+03  0.58246477958E+03  0.00000000000E+00 0. -1.
         24    2    1    2    0    0  0.34106998362E+02  0.27284599713E+02  0.14215073364E+01  0.90558300663E+02  0.79316129615E+02 0.  0.
         23    2    1    2    0    0  0.91786770893E+02 -0.12681318822E+03 -0.33610954066E+03  0.38193492833E+03  0.91642076202E+02 0.  0.
        -13    1    3    3    0    0 -0.98826110579E+01  0.20737305937E+02  0.29931469884E+02  0.37730554571E+02  0.00000000000E+00 0.  1.
         14    1    3    3    0    0  0.43989609420E+02  0.65472937763E+01 -0.28509962548E+02  0.52827746092E+02  0.00000000000E+00 0. -1.
        -11    1    4    4    0    0  0.41433684264E+02 -0.12169340085E+03 -0.21241884126E+03  0.24828974631E+03  0.00000000000E+00 0. -1.
         11    1    4    4    0    0  0.50353086629E+02 -0.51197873748E+01 -0.12369069941E+03  0.13364518202E+03  0.00000000000E+00 0.  1.
         21    1    1    2  503  502 -0.56509448842E+02 -0.36637007808E+02 -0.15545873899E+03  0.16941962011E+03  0.00000000000E+00 0. -1.
          1    1    1    2  501    0 -0.69384320413E+02  0.13616559632E+03  0.33883271854E+03  0.37170265629E+03  0.00000000000E+00 0. -1.
<scales pt_clust_5="13000.00000" pt_clust_6="13000.00000" pt_clust_7="13000.00000" pt_clust_8="13000.00000" pt_clust_9="67.34678" pt_clust_10="152.90839"></scales>
<clustering>
<clus scale="   67.347">  2  9  1 -1</clus>
<clus scale="   79.316">  5  6 -1 -1</clus>
<clus scale="   87.342">  2  5  1 -1</clus>
<clus scale="   91.642">  7  8 -1 -1</clus>
<clus scale="  152.908">  1 10  2 -1</clus>
<clus scale="  152.908">  1  5  2 -1</clus>
</clustering>
</event>
<event>
10    4  0.5389768E-005  0.1290764E+03  0.7546771E-02  0.1231076E+00
         21   -1    0    0  503  502  0.00000000000E+00  0.00000000000E+00  0.10941517890E+03  0.10941517890E+03  0.00000000000E+00 0.  1.
         -1   -1    0    0    0  501 -0.00000000000E+00 -0.00000000000E+00 -0.65884833404E+03  0.65884833404E+03  0.00000000000E+00 0.  1.
         24    2    1    2    0    0  0.93401316027E+02  0.86175893654E+02 -0.42238934031E+03  0.44824615977E+03  0.79760732574E+02 0.  0.
         23    2    1    2    0    0 -0.10681120393E+03 -0.32309329117E+02 -0.19976132117E+02  0.13318849562E+03  0.69911397345E+02 0.  0.
        -11    1    3    3    0    0  0.95045023113E+02  0.98398360146E+02 -0.39904614665E+03  0.42184549405E+03  0.00000000000E+00 0.  1.
         12    1    3    3    0    0 -0.16437070853E+01 -0.12222466491E+02 -0.23343193657E+02  0.26400665715E+02  0.00000000000E+00 0. -1.
        -13    1    4    4    0    0 -0.93571386687E+02  0.14515789076E+01 -0.24249408913E+02  0.96673395101E+02  0.00000000000E+00 0.  1.
         13    1    4    4    0    0 -0.13239817239E+02 -0.33760908025E+02  0.42732767957E+01  0.36515100517E+02  0.00000000000E+00 0. -1.
         21    1    1    2  503  501 -0.11930529871E+02 -0.38593224319E+02 -0.13813883676E+03  0.14392398246E+03  0.00000000000E+00 0.  1.
         -2    1    1    2    0  502  0.25340417769E+02 -0.15273340218E+02  0.31071154038E+02  0.42904875101E+02  0.00000000000E+00 0.  1.
<scales pt_clust_5="13000.00000" pt_clust_6="13000.00000" pt_clust_7="13000.00000" pt_clust_8="13000.00000" pt_clust_9="40.69527" pt_clust_10="29.58736"></scales>
<clustering>
<clus scale="   29.587">  1 10  2 -1</clus>
<clus scale="   40.695">  2  9  1 -1</clus>
<clus scale="   69.911">  7  8 -1 -1</clus>
<clus scale="   79.761">  5  6 -1 -1</clus>
<clus scale="  123.234">  1  7  2 -1</clus>
<clus scale="   29.587">  1  5  2 -1</clus>
</clustering>
</event>
<event>
10    4  0.5389768E-005  0.1215229E+03  0.7546771E-02  0.1254943E+00
         21   -1    0    0  501  502  0.00000000000E+00  0.00000000000E+00  0.36084243079E+02  0.36084243079E+02  0.00000000000E+00 0. -1.
          2   -1    0    0  503    0 -0.00000000000E+00 -0.00000000000E+00 -0.73228741719E+03  0.73228741719E+03  0.00000000000E+00 0. -1.
         23    2    1    2    0    0 -0.51903130617E+02 -0.84239148041E+02 -0.35168626903E+03  0.37768693688E+03  0.95781112099E+02 0.  0.
         24    2    1    2    0    0 -0.22921147881E+02  0.74665348872E+02 -0.14407448283E+03  0.17197098954E+03  0.52117859673E+02 0.  0.
        -11    1    4    4    0    0 -0.91054583920E+01  0.18365366334E+02 -0.91311686490E+02  0.93584294317E+02  0.00000000000E+00 0.  1.
         12    1    4    4    0    0 -0.13815689489E+02  0.56299982538E+02 -0.52762796342E+02  0.78386695221E+02  0.00000000000E+00 0. -1.
        -11    1    3    3    0    0 -0.79858739363E+02 -0.70660244822E+02 -0.27228973698E+03  0.29242433093E+03  0.00000000000E+00 0. -1.
         11    1    3    3    0    0  0.27955608747E+02 -0.13578903219E+02 -0.79396532047E+02  0.85262605955E+02  0.00000000000E+00 0.  1.
         21    1    1    2  503  502  0.56706915775E+02  0.23607463039E+02 -0.16892010008E+03  0.17974144435E+03  0.00000000000E+00 0. -1.
          1    1    1    2  501    0  0.18117362722E+02 -0.14033663870E+02 -0.31522322169E+02  0.38972289496E+02  0.00000000000E+00 0. -1.
<scales pt_clust_5="13000.00000" pt_clust_6="13000.00000" pt_clust_7="13000.00000" pt_clust_8="13000.00000" pt_clust_9="63.40700" pt_clust_10="22.91686"></scales>
<clustering>
<clus scale="   22.917">  1 10  2 -1</clus>
<clus scale="   52.118">  5  6 -1 -1</clus>
<clus scale="   63.407">  2  9  1 -1</clus>
<clus scale="   91.160">  1  5  2 -1</clus>
<clus scale="   95.781">  7  8 -1 -1</clus>
<clus scale="   22.917">  1  5  2 -1</clus>
</clustering>
</event>
<event>
10    4  0.5389768E-005  0.1830855E+03  0.7546771E-02  0.1187992E+00
          2   -1    0    0  503    0 -0.00000000000E+00  0.00000000000E+00  0.10527724202E+03  0.10527724202E+03  0.00000000000E+00 0. -1.
         21   -1    0    0  501  502  0.00000000000E+00 -0.00000000000E+00 -0.10431720205E+04  0.10431720205E+04  0.00000000000E+00 0.  1.
         23    2    1    2    0    0 -0.38305179305E+02 -0.52273195076E+02 -0.32657024641E+03  0.34552182928E+03  0.92398241233E+02 0.  0.
         24    2    1    2    0    0  0.15305909510E+03  0.40689131387E+02 -0.51584385299E+03  0.54673253818E+03  0.87970993160E+02 0.  0.
        -13    1    4    4    0    0  0.68050033405E+02 -0.19317804862E+02 -0.28280708901E+03  0.29151986935E+03  0.00000000000E+00 0.  1.
         14    1    4    4    0    0  0.85009061694E+02  0.60006936249E+02 -0.23303676398E+03  0.25521266883E+03  0.00000000000E+00 0. -1.
        -11    1    3    3    0    0  0.29376087356E+01 -0.65870853401E+02 -0.15303182110E+03  0.16663234122E+03  0.00000000000E+00 0. -1.
         11    1    3    3    0    0 -0.41242788040E+02  0.13597658325E+02 -0.17353842532E+03  0.17888948806E+03  0.00000000000E+00 0.  1.
         21    1    1    2  503  502  0.49906815074E+02  0.47579143801E+02 -0.22577989948E+02  0.72555018750E+02  0.00000000000E+00 0. -1.
          1    1    1    2  501    0 -0.16466073087E+03 -0.35995080112E+02 -0.72902689107E+02  0.18363987628E+03  0.00000000000E+00 0. -1.
<scales pt_clust_5="13000.00000" pt_clust_6="13000.00000" pt_clust_7="13000.00000" pt_clust_8="13000.00000" pt_clust_9="68.95263" pt_clust_10="160.56598"></scales>
<clustering>
<clus scale="   68.953">  1  9  2 -1</clus>
<clus scale="   87.971">  5  6 -1 -1</clus>
<clus scale="   92.398">  7  8 -1 -1</clus>
<clus scale="  108.467">  1  7  2 -1</clus>
<clus scale="  160.566">  2 10  1 -1</clus>
<clus scale="  160.566">  2  5  1 -1</clus>
</clustering>
</event>
<event>
10    4  0.5389768E-005  0.3691343E+03  0.7546771E-02  0.1055240E+00
          2   -1    0    0  503    0 -0.00000000000E+00  0.00000000000E+00  0.13860577486E+04  0.13860577486E+04  0.00000000000E+00 0. -1.
         21   -1    0    0  501  502  0.00000000000E+00 -0.00000000000E+00 -0.16428082180E+03  0.16428082180E+03  0.00000000000E+00 0.  1.
         24    2    1    2    0    0  0.37139549010E+03  0.15787449621E+03  0.47834200768E+03  0.63080797082E+03  0.79048422582E+02 0.  0.
         23    2    1    2    0    0 -0.26246936814E+03 -0.18478592099E+03  0.36045866444E+03  0.49077640034E+03  0.88853928157E+02 0.  0.
        -13    1    3    3    0    0  0.38445287816E+02  0.33863521568E+02  0.96359266912E+02  0.10913242675E+03  0.00000000000E+00 0.  1.
         14    1    3    3    0    0  0.33295020229E+03  0.12401097464E+03  0.38198274077E+03  0.52167554407E+03  0.00000000000E+00 0. -1.
        -11    1    4    4    0    0 -0.21343120954E+03 -0.10339823826E+03  0.24077013372E+03  0.33795611279E+03  0.00000000000E+00 0.  1.
         11    1    4    4    0    0 -0.49038158599E+02 -0.81387682735E+02  0.11968853073E+03  0.15282028755E+03  0.00000000000E+00 0. -1.
         21    1    1    2  503  502 -0.21849933359E+02 -0.40995553804E+02  0.25728972118E+03  0.26144991039E+03  0.00000000000E+00 0. -1.
          1    1    1    2  501    0 -0.87076188605E+02  0.67906978583E+02  0.12568653349E+03  0.16730428883E+03  0.00000000000E+00 0. -1.
<scales pt_clust_5="13000.00000" pt_clust_6="13000.00000" pt_clust_7="13000.00000" pt_clust_8="13000.00000" pt_clust_9="46.45487" pt_clust_10="109.54882"></scales>
<clustering>
<clus scale="   46.455">  1  9  2 -1</clus>
<clus scale="   79.048">  5  6 -1 -1</clus>
<clus scale="   88.854">  7  8 -1 -1</clus>
<clus scale="  109.549">  2 10  1 -1</clus>
<clus scale="  366.897">  1  5  2 -1</clus>
<clus scale="  109.549">  2  5  1 -1</clus>
</clustering>
</event>
<event>
10    4  0.5389768E-005  0.1316911E+03  0.7546771E-02  0.1240947E+00
          2   -1    0    0  503    0 -0.00000000000E+00  0.00000000000E+00  0.10249292305E+04  0.10249292305E+04  0.00000000000E+00 0. -1.
         21   -1    0    0  501  502  0.00000000000E+00 -0.00000000000E+00 -0.47420299841E+02  0.47420299841E+02  0.00000000000E+00 0. -1.
         23    2    1    2    0    0 -0.19399017910E+02  0.11755146682E+02  0.23940181357E+03  0.25745452988E+03  0.91951624476E+02 0.  0.
         24    2    1    2    0    0  0.51207445834E+02  0.68760679003E+02  0.92991542670E+02  0.15023140095E+03  0.81066721513E+02 0.  0.
        -11    1    4    4    0    0  0.30638868927E+02 -0.69848968903E+01  0.54268312438E+02  0.62710276738E+02  0.00000000000E+00 0.  1.
         12    1    4    4    0    0  0.20568576907E+02  0.75745575893E+02  0.38723230232E+02  0.87521124210E+02  0.00000000000E+00 0. -1.
        -11    1    3    3    0    0  0.18204237666E+02  0.42025403594E+02  0.10170514987E+03  0.11154132116E+03  0.00000000000E+00 0.  1.
         11    1    3    3    0    0 -0.37603255576E+02 -0.30270256912E+02  0.13769666371E+03  0.14591320872E+03  0.00000000000E+00 0. -1.
         21    1    1    2  503  502 -0.45569258849E+02 -0.10207267904E+03  0.61534773204E+03  0.62541843632E+03  0.00000000000E+00 0. -1.
          1    1    1    2  501    0  0.13760830926E+02  0.21556853356E+02  0.29767842364E+02  0.39245163184E+02  0.00000000000E+00 0. -1.
<scales pt_clust_5="13000.00000" pt_clust_6="13000.00000" pt_clust_7="13000.00000" pt_clust_8="13000.00000" pt_clust_9="103.78214" pt_clust_10="25.57457"></scales>
<clustering>
<clus scale="   25.575">  2 10  1 -1</clus>
<clus scale="   81.067">  5  6 -1 -1</clus>
<clus scale="   91.952">  7  8 -1 -1</clus>
<clus scale="   94.832">  1  7  2 -1</clus>
<clus scale="  103.782">  1  9  2 -1</clus>
<clus scale="   25.575">  2  5  1 -1</clus>
</clustering>
</event>
<event>
10    4  0.5389768E-005  0.4016867E+03  0.7546771E-02  0.1043197E+00
         21   -1    0    0  501  502  0.00000000000E+00  0.00000000000E+00  0.58777288657E+03  0.58777288657E+03  0.00000000000E+00 0. -1.
          2   -1    0    0  503    0 -0.00000000000E+00 -0.00000000000E+00 -0.15567359250E+04  0.15567359250E+04  0.00000000000E+00 0. -1.
         24    2    1    2    0    0  0.22260683145E+03 -0.79299448731E+02  0.36197948831E+03  0.43970152429E+03  0.80411917823E+02 0.  0.
         23    2    1    2    0    0  0.46006522423E+02  0.78337330721E+00  0.69123440073E+02  0.12316520749E+03  0.90963754256E+02 0.  0.
        -11    1    3    3    0    0  0.61660843161E+02  0.46096044601E+01  0.13939803040E+03  0.15249629147E+03  0.00000000000E+00 0.  1.
         12    1    3    3    0    0  0.16094598829E+03 -0.83909053191E+02  0.22258145791E+03  0.28720523282E+03  0.00000000000E+00 0. -1.
        -13    1    4    4    0    0  0.40247906856E+02  0.31660978143E+02  0.46148689062E+01  0.51416034058E+02  0.00000000000E+00 0.  1.
         13    1    4    4    0    0  0.57586155676E+01 -0.30877604836E+02  0.64508571167E+02  0.71749173428E+02  0.00000000000E+00 0. -1.
         21    1    1    2  503  502 -0.33192472383E+03 -0.11827406902E+02 -0.14294077014E+04  0.14674877467E+04  0.00000000000E+00 0. -1.
          1    1    1    2  501    0  0.63311369958E+02  0.90343482326E+02  0.29341734641E+02  0.11415433306E+03  0.00000000000E+00 0. -1.
<scales pt_clust_5="13000.00000" pt_clust_6="13000.00000" pt_clust_7="13000.00000" pt_clust_8="13000.00000" pt_clust_9="329.69813" pt_clust_10="110.31897"></scales>
<clustering>
<clus scale="   80.412">  5  6 -1 -1</clus>
<clus scale="   90.964">  7  8 -1 -1</clus>
<clus scale="   92.620">  5  7 -1 -1</clus>
<clus scale="  110.319">  1 10  2 -1</clus>
<clus scale="  329.698">  2  9  1 -1</clus>
<clus scale="  110.319">  1  5  2 -1</clus>
</clustering>
</event>
<event>
10    4  0.5389768E-005  0.1741267E+03  0.7546771E-02  0.1176626E+00
         21   -1    0    0  501  502  0.00000000000E+00  0.00000000000E+00  0.86864971019E+02  0.86864971019E+02  0.00000000000E+00 0. -1.
          2   -1    0    0  503    0 -0.00000000000E+00 -0.00000000000E+00 -0.77787284904E+03  0.77787284904E+03  0.00000000000E+00 0. -1.
         23    2    1    2    0    0  0.13752334017E+02  0.11186442494E+03 -0.32990636051E+03  0.36334873366E+03  0.10237831454E+03 0.  0.
         24    2    1    2    0    0 -0.86376382219E+02 -0.11604303429E+03 -0.10564072460E+03  0.19670981167E+03  0.81289126572E+02 0.  0.
        -11    1    4    4    0    0  0.12478196259E+02 -0.37155778822E+02 -0.20331257052E+02  0.44154470839E+02  0.00000000000E+00 0.  1.
         12    1    4    4    0    0 -0.98854578478E+02 -0.78887255470E+02 -0.85309467551E+02  0.15255534083E+03  0.00000000000E+00 0. -1.
        -11    1    3    3    0    0 -0.33582172730E+02  0.75384283990E+02 -0.25195192737E+03  0.26512322852E+03  0.00000000000E+00 0. -1.
         11    1    3    3    0    0  0.47334506747E+02  0.36480140948E+02 -0.77954433143E+02  0.98225505136E+02  0.00000000000E+00 0.  1.
         21    1    1    2  503  502  0.94053884527E+02  0.47369845929E+02 -0.22282565413E+03  0.24645751690E+03  0.00000000000E+00 0. -1.
          1    1    1    2  501    0 -0.21429836325E+02 -0.43191236576E+02 -0.32635138775E+02  0.58221757830E+02  0.00000000000E+00 0. -1.
<scales pt_clust_5="13000.00000" pt_clust_6="13000.00000" pt_clust_7="13000.00000" pt_clust_8="13000.00000" pt_clust_9="99.26430" pt_clust_10="48.21536"></scales>
<clustering>
<clus scale="   48.215">  1 10  2 -1</clus>
<clus scale="   81.289">  5  6 -1 -1</clus>
<clus scale="   99.264">  2  9  1 -1</clus>
<clus scale="  102.378">  7  8 -1 -1</clus>
<clus scale="  162.624">  1  5  2 -1</clus>
<clus scale="   48.215">  1  5  2 -1</clus>
</clustering>
</event>
<event>
10    4  0.5389768E-005  0.1613736E+03  0.7546771E-02  0.1214102E+00
         21   -1    0    0  501  502  0.00000000000E+00  0.00000000000E+00  0.37071171516E+03  0.37071171516E+03  0.00000000000E+00 0.  1.
          2   -1    0    0  503    0 -0.00000000000E+00 -0.00000000000E+00 -0.43616532524E+03  0.43616532524E+03  0.00000000000E+00 0. -1.
         24    2    1    2    0    0  0.21114283826E+02 -0.41029777118E+01 -0.31149079894E+03  0.32259196488E+03  0.81095071184E+02 0.  0.
         23    2    1    2    0    0  0.11125351943E+03  0.38681648789E+02  0.24207077088E+03  0.28670453912E+03  0.98628693084E+02 0.  0.
        -13    1    3    3    0    0  0.27769136748E+02 -0.38637725715E+02 -0.20476313116E+03  0.21021878766E+03  0.00000000000E+00 0.  1.
         14    1    3    3    0    0 -0.66548529220E+01  0.34534748003E+02 -0.10672766778E+03  0.11237317722E+03  0.00000000000E+00 0. -1.
        -11    1    4    4    0    0  0.66904022247E+02 -0.74353447135E+01  0.48869354661E+02  0.83184411814E+02  0.00000000000E+00 0.  1.
         11    1    4    4    0    0  0.44349497182E+02  0.46116993503E+02  0.19320141622E+03  0.20352012730E+03  0.00000000000E+00 0. -1.
         21    1    1    2  503  502  0.21669072320E+02 -0.40845590398E+01 -0.29694995881E+02  0.36986823304E+02  0.00000000000E+00 0.  1.
          1    1    1    2  501    0 -0.15403687557E+03 -0.30494112037E+02  0.33661413869E+02  0.16059371311E+03  0.00000000000E+00 0. -1.
<scales pt_clust_5="13000.00000" pt_clust_6="13000.00000" pt_clust_7="13000.00000" pt_clust_8="13000.00000" pt_clust_9="22.05068" pt_clust_10="127.72563"></scales>
<clustering>
<clus scale="   22.051">  2  9  1 -1</clus>
<clus scale="   81.095">  5  6 -1 -1</clus>
<clus scale="   89.927">  2  5  1 -1</clus>
<clus scale="   98.629">  7  8 -1 -1</clus>
<clus scale="  127.726">  1 10  2 -1</clus>
<clus scale="  127.726">  1  5  2 -1</clus>
</clustering>
</event>
<event>
10    4  0.5389768E-005  0.1858349E+03  0.7546771E-02  0.1163388E+00
          4   -1    0    0  503    0 -0.00000000000E+00  0.00000000000E+00  0.17563246208E+03  0.17563246208E+03  0.00000000000E+00 0. -1.
         21   -1    0    0  501  502  0.00000000000E+00 -0.00000000000E+00 -0.56495478680E+03  0.56495478680E+03  0.00000000000E+00 0.  1.
         23    2    1    2    0    0  0.67122955132E+02  0.15189565921E+03  0.44592485675E+02  0.19494538937E+03  0.91855498841E+02 0.  0.
         24    2    1    2    0    0 -0.11886299573E+03 -0.98378713888E+02 -0.32566873236E+03  0.36954776112E+03  0.81845228371E+02 0.  0.
        -13    1    4    4    0    0 -0.68474031541E+02 -0.49215951171E+02 -0.25978486089E+03  0.27312831562E+03  0.00000000000E+00 0.  1.
         14    1    4    4    0    0 -0.50388964185E+02 -0.49162762717E+02 -0.65883871474E+02  0.96419445498E+02  0.00000000000E+00 0. -1.
        -11    1    3    3    0    0 -0.19680849051E+02  0.28456614695E+02  0.25192404599E+02  0.42799205469E+02  0.00000000000E+00 0.  1.
         11    1    3    3    0    0  0.86803804183E+02  0.12343904451E+03  0.19400081076E+02  0.15214618390E+03  0.00000000000E+00 0. -1.
         21    1    1    2  503  502  0.77710573231E+02 -0.50166273023E+02 -0.11639275779E+03  0.14867031381E+03  0.00000000000E+00 0.  1.
          3    1    1    2  501    0 -0.25970532636E+02 -0.33506722971E+01  0.81466797564E+01  0.27423784591E+02  0.00000000000E+00 0. -1.
<scales pt_clust_5="13000.00000" pt_clust_6="13000.00000" pt_clust_7="13000.00000" pt_clust_8="13000.00000" pt_clust_9="87.81548" pt_clust_10="26.18580"></scales>
<clustering>
<clus scale="   26.186">  2 10  1 -1</clus>
<clus scale="   81.845">  5  6 -1 -1</clus>
<clus scale="   87.815">  2  9  1 -1</clus>
<clus scale="   91.855">  7  8 -1 -1</clus>
<clus scale="  181.096">  2  5  1 -1</clus>
<clus scale="   26.186">  2  5  1 -1</clus>
</clustering>
</event>
<event>
10    4  0.5389768E-005  0.1574643E+03  0.7546771E-02  0.1200780E+00
         21   -1    0    0  501  502  0.00000000000E+00  0.00000000000E+00  0.72222291845E+02  0.72222291845E+02  0.00000000000E+00 0. -1.
          2   -1    0    0  503    0 -0.00000000000E+00 -0.00000000000E+00 -0.24604919548E+04  0.24604919548E+04  0.00000000000E+00 0. -1.
         23    2    1    2    0    0  0.88616597244E+02  0.18258882384E+02 -0.26623278292E+03  0.29575347580E+03  0.91672982124E+02 0.  0.
         24    2    1    2    0    0  0.51173552383E+02  0.12691422212E+03 -0.11092508350E+03  0.19368889211E+03  0.80529873548E+02 0.  0.
        -13    1    4    4    0    0  0.30388648912E+02  0.84408207819E+02 -0.21093684998E+02  0.92158336990E+02  0.00000000000E+00 0.  1.
         14    1    4    4    0    0  0.20784903470E+02  0.42506014305E+02 -0.89831398507E+02  0.10153055512E+03  0.00000000000E+00 0. -1.
        -11    1    3    3    0    0  0.48419036060E+02  0.45312723308E+02 -0.21604131631E+03  0.22599003584E+03  0.00000000000E+00 0.  1.
         11    1    3    3    0    0  0.40197561184E+02 -0.27053840924E+02 -0.50191466608E+02  0.69763439953E+02  0.00000000000E+00 0. -1.
         21    1    1    2  503  502 -0.19046384851E+03  0.59506162973E+01 -0.13405782033E+04  0.13540538419E+04  0.00000000000E+00 0. -1.
          1    1    1    2  501    0  0.50673698881E+02 -0.15112372081E+03 -0.67053359315E+03  0.68921803682E+03  0.00000000000E+00 0. -1.
<scales pt_clust_5="13000.00000" pt_clust_6="13000.00000" pt_clust_7="13000.00000" pt_clust_8="13000.00000" pt_clust_9="136.77371" pt_clust_10="135.31432"></scales>
<clustering>
<clus scale="   80.530">  5  6 -1 -1</clus>
<clus scale="   91.673">  7  8 -1 -1</clus>
<clus scale="  128.803">  2  7  1 -1</clus>
<clus scale="  136.774">  2  9  1 -1</clus>
<clus scale="  135.314">  1 10  2 -1</clus>
<clus scale="  135.314">  1  5  2 -1</clus>
</clustering>
</event>
<event>
10    4  0.5389768E-005  0.2211232E+03  0.7546771E-02  0.1134049E+00
         21   -1    0    0  501  502  0.00000000000E+00  0.00000000000E+00  0.85863873165E+02  0.85863873165E+02  0.00000000000E+00 0. -1.
          2   -1    0    0  503    0 -0.00000000000E+00 -0.00000000000E+00 -0.20484102071E+04  0.20484102071E+04  0.00000000000E+00 0. -1.
         24    2    1    2    0    0  0.21285872479E+03  0.39544515807E+02 -0.11085793095E+04  0.11323660113E+04  0.80200328493E+02 0.  0.
         23    2    1    2    0    0 -0.11653047281E+03  0.71897992168E+02 -0.84254444705E+02  0.18603518961E+03  0.93603461198E+02 0.  0.
        -11    1    3    3    0    0  0.54207868107E+02 -0.24848736061E+02 -0.27906139621E+03  0.28536155225E+03  0.00000000000E+00 0.  1.
         12    1    3    3    0    0  0.15865085668E+03  0.64393251868E+02 -0.82951791325E+03  0.84700445903E+03  0.00000000000E+00 0. -1.
        -11    1    4    4    0    0 -0.61604514720E+02  0.56269563426E+02  0.97781568994E+00  0.83440614365E+02  0.00000000000E+00 0. -1.
         11    1    4    4    0    0 -0.54925958094E+02  0.15628428742E+02 -0.85232260395E+02  0.10259457524E+03  0.00000000000E+00 0.  1.
         21    1    1    2  503  502  0.10662057741E+02 -0.12411901968E+03 -0.61406933547E+03  0.62657829462E+03  0.00000000000E+00 0.  1.
          1    1    1    2  501    0 -0.10699030971E+03  0.12676511700E+02 -0.15564324428E+03  0.18929458474E+03  0.00000000000E+00 0. -1.
<scales pt_clust_5="13000.00000" pt_clust_6="13000.00000" pt_clust_7="13000.00000" pt_clust_8="13000.00000" pt_clust_9="122.97442" pt_clust_10="107.73867"></scales>
<clustering>
<clus scale="   80.200">  5  6 -1 -1</clus>
<clus scale="   93.603">  7  8 -1 -1</clus>
<clus scale="  107.739">  1 10  2 -1</clus>
<clus scale="  122.974">  2  9  1 -1</clus>
<clus scale="  215.791">  2  5  1 -1</clus>
<clus scale="  107.739">  1  5  2 -1</clus>
</clustering>
</event>
<event>
10    4  0.5389768E-005  0.1964125E+03  0.7546771E-02  0.1153990E+00
         21   -1    0    0  501  502  0.00000000000E+00  0.00000000000E+00  0.11505725867E+03  0.11505725867E+03  0.00000000000E+00 0. -1.
          2   -1    0    0  503    0 -0.00000000000E+00 -0.00000000000E+00 -0.83050934967E+03  0.83050934967E+03  0.00000000000E+00 0. -1.
         24    2    1    2    0    0  0.67239340174E+02 -0.15882598788E+03 -0.29375700047E+03  0.35009475194E+03  0.80785745766E+02 0.  0.
         23    2    1    2    0    0 -0.19515011881E+03  0.93955249773E+02 -0.23895532192E+03  0.33561391341E+03  0.92875697394E+02 0.  0.
        -11    1    3    3    0    0 -0.17495700880E+02 -0.18510294363E+02 -0.53425354441E+02  0.59186138950E+02  0.00000000000E+00 0.  1.
         12    1    3    3    0    0  0.84735041054E+02 -0.14031569352E+03 -0.24033164603E+03  0.29090861299E+03  0.00000000000E+00 0. -1.
        -11    1    4    4    0    0 -0.19120436597E+03  0.61208565481E+02 -0.21884681075E+03  0.29698404777E+03  0.00000000000E+00 0. -1.
         11    1    4    4    0    0 -0.39457528391E+01  0.32746684291E+02 -0.20108511170E+02  0.38629865636E+02  0.00000000000E+00 0.  1.
         21    1    1    2  503  502  0.11044157366E+01  0.26192836574E+02 -0.10046500396E+03  0.10382919360E+03  0.00000000000E+00 0. -1.
          1    1    1    2  501    0  0.12680636290E+03  0.38677901535E+02 -0.82274764651E+02  0.15602874939E+03  0.00000000000E+00 0. -1.
<scales pt_clust_5="13000.00000" pt_clust_6="13000.00000" pt_clust_7="13000.00000" pt_clust_8="13000.00000" pt_clust_9="26.21611" pt_clust_10="134.05784"></scales>
<clustering>
<clus scale="   26.216">  2  9  1 -1</clus>
<clus scale="   80.786">  5  6 -1 -1</clus>
<clus scale="   92.876">  7  8 -1 -1</clus>
<clus scale="  134.058">  1 10  2 -1</clus>
<clus scale="  190.993">  2  5  1 -1</clus>
<clus scale="  134.058">  1  5  2 -1</clus>
</clustering>
</event>
<event>
10    4  0.5389768E-005  0.9449731E+02  0.7546771E-02  0.1294016E+00
         21   -1    0    0  501  502  0.00000000000E+00  0.00000000000E+00  0.79160760765E+02  0.79160760765E+02  0.00000000000E+00 0.  1.
          2   -1    0    0  503    0 -0.00000000000E+00 -0.00000000000E+00 -0.45442965606E+03  0.45442965606E+03  0.00000000000E+00 0. -1.
         23    2    1    2    0    0  0.13348285544E+02  0.56633204113E+01 -0.25223001906E+03  0.26650946029E+03  0.84835487747E+02 0.  0.
         24    2    1    2    0    0 -0.64789007951E+02  0.25001902017E+00 -0.32560158649E+02  0.10911226989E+03  0.81533094197E+02 0.  0.
        -13    1    4    4    0    0 -0.73510807562E+02  0.12628984773E+02 -0.15517599044E+01  0.74603874186E+02  0.00000000000E+00 0.  1.
         14    1    4    4    0    0  0.87217996114E+01 -0.12378965753E+02 -0.31008398745E+02  0.34508395707E+02  0.00000000000E+00 0. -1.
        -13    1    3    3    0    0  0.44727142422E+02 -0.36932409423E+00 -0.20262905312E+03  0.20750707660E+03  0.00000000000E+00 0. -1.
         13    1    3    3    0    0 -0.31378856878E+02  0.60326445055E+01 -0.49600965943E+02  0.59002383691E+02  0.00000000000E+00 0.  1.
         21    1    1    2  503  502  0.30012662960E+02 -0.11066646368E+02 -0.11825848919E+03  0.12250837059E+03  0.00000000000E+00 0. -1.
          1    1    1    2  501    0  0.21428059447E+02  0.51533069369E+01  0.27779771606E+02  0.35460316052E+02  0.00000000000E+00 0. -1.
<scales pt_clust_5="13000.00000" pt_clust_6="13000.00000" pt_clust_7="13000.00000" pt_clust_8="13000.00000" pt_clust_9="32.81149" pt_clust_10="22.03902"></scales>
<clustering>
<clus scale="   22.039">  1 10  2 -1</clus>
<clus scale="   32.811">  2  9  1 -1</clus>
<clus scale="   81.533">  5  6 -1 -1</clus>
<clus scale="   84.835">  7  8 -1 -1</clus>
<clus scale="   91.544">  1  5  2 -1</clus>
<clus scale="   22.039">  1  5  2 -1</clus>
</clustering>
</event>
<event>
10    4  0.5389768E-005  0.1251524E+03  0.7546771E-02  0.1238620E+00
         21   -1    0    0  503  502  0.00000000000E+00  0.00000000000E+00  0.72836094483E+03  0.72836094483E+03  0.00000000000E+00 0. -1.
         -1   -1    0    0    0  501 -0.00000000000E+00 -0.00000000000E+00 -0.11978169907E+03  0.11978169907E+03  0.00000000000E+00 0.  1.
         24    2    1    2    0    0 -0.67021137642E+02 -0.12619078014E+03  0.13126226589E+02  0.16481111554E+03  0.81083044454E+02 0.  0.
         23    2    1    2    0    0  0.93224300023E+02  0.17434382000E+01  0.48210495419E+03  0.49993872663E+03  0.93913438013E+02 0.  0.
        -13    1    3    3    0    0 -0.54079114932E+02 -0.93742764803E+02 -0.27068660046E+02  0.11155702121E+03  0.00000000000E+00 0.  1.
         14    1    3    3    0    0 -0.12942022710E+02 -0.32448015334E+02  0.40194886635E+02  0.53254094327E+02  0.00000000000E+00 0. -1.
        -13    1    4    4    0    0  0.18809371424E+02 -0.41847763362E+02  0.15406948037E+03  0.16075581648E+03  0.00000000000E+00 0.  1.
         13    1    4    4    0    0  0.74414928599E+02  0.43591201562E+02  0.32803547383E+03  0.33918291015E+03  0.00000000000E+00 0. -1.
         21    1    1    2  503  501 -0.10412132723E+01  0.95153406236E+02  0.45850476551E+02  0.10562916758E+03  0.00000000000E+00 0.  1.
         -2    1    1    2    0  502 -0.25161949109E+02  0.29293935702E+02  0.67497588432E+02  0.77763634148E+02  0.00000000000E+00 0.  1.
<scales pt_clust_5="13000.00000" pt_clust_6="13000.00000" pt_clust_7="13000.00000" pt_clust_8="13000.00000" pt_clust_9="98.61603" pt_clust_10="38.61681"></scales>
<clustering>
<clus scale="   38.617">  1 10  2 -1</clus>
<clus scale="   81.083">  5  6 -1 -1</clus>
<clus scale="   93.913">  7  8 -1 -1</clus>
<clus scale="   98.616">  2  9  1 -1</clus>
<clus scale="  115.835">  2  5  1 -1</clus>
<clus scale="   38.617">  1  5  2 -1</clus>
</clustering>
</event>
<event>
10    4  0.5389768E-005  0.5013889E+03  0.7546771E-02  0.1038045E+00
         -1   -1    0    0    0  501 -0.00000000000E+00  0.00000000000E+00  0.14911269196E+04  0.14911269196E+04  0.00000000000E+00 0.  1.
         21   -1    0    0  503  502  0.00000000000E+00 -0.00000000000E+00 -0.44800898120E+03  0.44800898120E+03  0.00000000000E+00 0. -1.
         23    2    1    2    0    0 -0.34251400933E+03 -0.27846447542E+03  0.72092852230E+03  0.85005368998E+03  0.89414936819E+02 0.  0.
         24    2    1    2    0    0 -0.19356386380E+02 -0.19983790385E+03 -0.12497258645E+01  0.21741192472E+03  0.83405789280E+02 0.  0.
        -13    1    4    4    0    0  0.28968484268E+02 -0.39180069911E+02 -0.86146817692E+01  0.49481953286E+02  0.00000000000E+00 0.  1.
         14    1    4    4    0    0 -0.48324870649E+02 -0.16065783394E+03  0.73649559047E+01  0.16792997143E+03  0.00000000000E+00 0. -1.
        -11    1    3    3    0    0 -0.28563291107E+03 -0.18427247782E+03  0.56046242276E+03  0.65548503666E+03  0.00000000000E+00 0.  1.
         11    1    3    3    0    0 -0.56881098266E+02 -0.94191997601E+02  0.16046609954E+03  0.19456865332E+03  0.00000000000E+00 0. -1.
         21    1    1    2  503  501  0.37016356919E+03  0.55946576169E+03  0.38131830960E+03  0.77163894387E+03  0.00000000000E+00 0. -1.
         -2    1    1    2    0  502 -0.82931734830E+01 -0.81163382421E+02 -0.57879167666E+02  0.10003134220E+03  0.00000000000E+00 0.  1.
<scales pt_clust_5="13000.00000" pt_clust_6="13000.00000" pt_clust_7="13000.00000" pt_clust_8="13000.00000" pt_clust_9="493.35160" pt_clust_10="81.58598"></scales>
<clustering>
<clus scale="   81.586">  2 10  1 -1</clus>
<clus scale="   83.406">  5  6 -1 -1</clus>
<clus scale="   89.415">  7  8 -1 -1</clus>
<clus scale="  239.907">  2  5  1 -1</clus>
<clus scale="  493.352">  2  9  1 -1</clus>
<clus scale="   81.586">  2  5  1 -1</clus>
</clustering>
</event>
<event>
10    4  0.5389768E-005  0.9405299E+02  0.7546771E-02  0.1299708E+00
         21   -1    0    0  501  502  0.00000000000E+00  0.00000000000E+00  0.92316007353E+02  0.92316007353E+02  0.00000000000E+00 0. -1.
          2   -1    0    0  503    0 -0.00000000000E+00 -0.00000000000E+00 -0.54351736477E+03  0.54351736477E+03  0.00000000000E+00 0. -1.
         24    2    1    2    0    0  0.28681017630E+01  0.44375751928E+02 -0.26773615830E+03  0.28278507340E+03  0.79418599241E+02 0.  0.
         23    2    1    2    0    0 -0.51960967537E+01  0.23450663951E+02 -0.44818967199E+02  0.10371834364E+03  0.90398130095E+02 0.  0.
        -13    1    3    3    0    0  0.31220707935E+02  0.66792570554E+00 -0.16114739164E+03  0.16414524227E+03  0.00000000000E+00 0.  1.
         14    1    3    3    0    0 -0.28352606172E+02  0.43707826222E+02 -0.10658876666E+03  0.11863983112E+03  0.00000000000E+00 0. -1.
        -11    1    4    4    0    0 -0.37914799698E+02  0.41204288521E+02 -0.31061978103E+02  0.64032584770E+02  0.00000000000E+00 0. -1.
         11    1    4    4    0    0  0.32718702945E+02 -0.17753624571E+02 -0.13756989097E+02  0.39685758866E+02  0.00000000000E+00 0.  1.
         21    1    1    2  503  502 -0.22910698352E+02 -0.10289553362E+02 -0.17496545241E+03  0.17675883158E+03  0.00000000000E+00 0. -1.
          1    1    1    2  501    0  0.25238693343E+02 -0.57536862516E+02  0.36319220493E+02  0.72571123507E+02  0.00000000000E+00 0. -1.
<scales pt_clust_5="13000.00000" pt_clust_6="13000.00000" pt_clust_7="13000.00000" pt_clust_8="13000.00000" pt_clust_9="25.11523" pt_clust_10="62.85201"></scales>
<clustering>
<clus scale="   25.115">  2  9  1 -1</clus>
<clus scale="   62.852">  1 10  2 -1</clus>
<clus scale="   79.419">  5  6 -1 -1</clus>
<clus scale="   83.555">  2  5  1 -1</clus>
<clus scale="   90.398">  7  8 -1 -1</clus>
<clus scale="   62.852">  1  5  2 -1</clus>
</clustering>
</event>
<event>
10    4  0.5389768E-005  0.1985066E+03  0.7546771E-02  0.1152707E+00
         21   -1    0    0  501  502  0.00000000000E+00  0.00000000000E+00  0.12949287234E+03  0.12949287234E+03  0.00000000000E+00 0. -1.
          2   -1    0    0  503    0 -0.00000000000E+00 -0.00000000000E+00 -0.56564937841E+03  0.56564937841E+03  0.00000000000E+00 0. -1.
         24    2    1    2    0    0 -0.75766203564E+02  0.14832352858E+03 -0.14443625104E+03  0.23458791575E+03  0.80182746685E+02 0.  0.
         23    2    1    2    0    0  0.86920471374E+02 -0.17042266749E+03 -0.11968242623E+03  0.24575488003E+03  0.97326892335E+02 0.  0.
        -13    1    3    3    0    0 -0.53288583147E+02  0.33556280407E+02 -0.25960641045E+02  0.68114990509E+02  0.00000000000E+00 0.  1.
         14    1    3    3    0    0 -0.22477620417E+02  0.11476724818E+03 -0.11847560999E+03  0.16647292524E+03  0.00000000000E+00 0. -1.
        -13    1    4    4    0    0  0.28281931337E+02 -0.73289914496E+00  0.27833699174E+01  0.28428013110E+02  0.00000000000E+00 0.  1.
         13    1    4    4    0    0  0.58638540037E+02 -0.16968976835E+03 -0.12246579615E+03  0.21732686692E+03  0.00000000000E+00 0. -1.
         21    1    1    2  503  502  0.36580429270E+02 -0.85633682584E+01 -0.14883548935E+03  0.15350394774E+03  0.00000000000E+00 0.  1.
          1    1    1    2  501    0 -0.47734697080E+02  0.30662507169E+02 -0.23202339446E+02  0.61295507233E+02  0.00000000000E+00 0. -1.
<scales pt_clust_5="13000.00000" pt_clust_6="13000.00000" pt_clust_7="13000.00000" pt_clust_8="13000.00000" pt_clust_9="37.56939" pt_clust_10="53.14082"></scales>
<clustering>
<clus scale="   37.569">  2  9  1 -1</clus>
<clus scale="   53.141">  1 10  2 -1</clus>
<clus scale="   80.183">  5  6 -1 -1</clus>
<clus scale="   97.327">  7  8 -1 -1</clus>
<clus scale="  190.687">  2  5  1 -1</clus>
<clus scale="   53.141">  1  5  2 -1</clus>
</clustering>
</event>
<event>
10    4  0.5389768E-005  0.1103198E+03  0.7546771E-02  0.1268954E+00
         21   -1    0    0  501  502  0.00000000000E+00  0.00000000000E+00  0.23654919026E+03  0.23654919026E+03  0.00000000000E+00 0.  1.
          2   -1    0    0  503    0 -0.00000000000E+00 -0.00000000000E+00 -0.96274065531E+02  0.96274065531E+02  0.00000000000E+00 0. -1.
         23    2    1    2    0    0 -0.19244801621E+02 -0.42650691654E+02  0.20604869752E+01  0.11108131889E+03  0.10072422704E+03 0.  0.
         24    2    1    2    0    0 -0.14825502686E+02  0.35521001772E+02  0.10286739518E+03  0.13642613932E+03  0.80924986254E+02 0.  0.
        -13    1    4    4    0    0 -0.23772460562E+02 -0.93885913565E+01  0.82390898032E+02  0.86264335663E+02  0.00000000000E+00 0.  1.
         14    1    4    4    0    0  0.89469578758E+01  0.44909593128E+02  0.20476497152E+02  0.50161803654E+02  0.00000000000E+00 0. -1.
        -11    1    3    3    0    0 -0.65784733529E+01  0.27648746256E+02 -0.21747660652E+02  0.35786732528E+02  0.00000000000E+00 0. -1.
         11    1    3    3    0    0 -0.12666328268E+02 -0.70299437911E+02  0.23808147627E+02  0.75294586364E+02  0.00000000000E+00 0.  1.
         21    1    1    2  503  502  0.16847891357E+02 -0.12252267734E+02 -0.17007229686E+02  0.26892663858E+02  0.00000000000E+00 0.  1.
          1    1    1    2  501    0  0.17222412950E+02  0.19381957616E+02  0.52354472259E+02  0.58423133726E+02  0.00000000000E+00 0. -1.
<scales pt_clust_5="13000.00000" pt_clust_6="13000.00000" pt_clust_7="13000.00000" pt_clust_8="13000.00000" pt_clust_9="20.83193" pt_clust_10="26.02493"></scales>
<clustering>
<clus scale="   20.832">  2  9  1 -1</clus>
<clus scale="   26.025">  1 10  2 -1</clus>
<clus scale="   80.925">  5  6 -1 -1</clus>
<clus scale="   92.596">  1  5  2 -1</clus>
<clus scale="  100.724">  7  8 -1 -1</clus>
<clus scale="   26.025">  1  5  2 -1</clus>
</clustering>
</event>
<event>
10    4  0.5389768E-005  0.1307071E+03  0.7546771E-02  0.1247808E+00
         21   -1    0    0  501  502  0.00000000000E+00  0.00000000000E+00  0.35238014750E+02  0.35238014750E+02  0.00000000000E+00 0.  1.
          2   -1    0    0  503    0 -0.00000000000E+00 -0.00000000000E+00 -0.12509280751E+04  0.12509280751E+04  0.00000000000E+00 0. -1.
         24    2    1    2    0    0  0.23046603472E+01 -0.45058131433E+01 -0.44963708464E+03  0.45686071813E+03  0.80762578422E+02 0.  0.
         23    2    1    2    0    0 -0.42481738938E+02  0.91785105516E+02 -0.23277574996E+03  0.26954217680E+03  0.90770213000E+02 0.  0.
        -11    1    3    3    0    0  0.27604949601E+02 -0.15045886763E+02 -0.76360747084E+02  0.82579511056E+02  0.00000000000E+00 0.  1.
         12    1    3    3    0    0 -0.25300289254E+02  0.10540073620E+02 -0.37327633756E+03  0.37428120708E+03  0.00000000000E+00 0. -1.
        -11    1    4    4    0    0 -0.20460184468E+02  0.78981062915E+02 -0.22985053200E+03  0.24390140325E+03  0.00000000000E+00 0.  1.
         11    1    4    4    0    0 -0.22021554470E+02  0.12804042601E+02 -0.29252179616E+01  0.25640773552E+02  0.00000000000E+00 0. -1.
         21    1    1    2  503  502 -0.33670864917E+02 -0.29899379062E+02 -0.36048355354E+03  0.36328513923E+03  0.00000000000E+00 0. -1.
          1    1    1    2  501    0  0.73847943508E+02 -0.57379913311E+02 -0.17279367220E+03  0.19647805568E+03  0.00000000000E+00 0. -1.
<scales pt_clust_5="13000.00000" pt_clust_6="13000.00000" pt_clust_7="13000.00000" pt_clust_8="13000.00000" pt_clust_9="45.02999" pt_clust_10="94.04855"></scales>
<clustering>
<clus scale="   45.030">  2  9  1 -1</clus>
<clus scale="   80.763">  5  6 -1 -1</clus>
<clus scale="   84.460">  2  5  1 -1</clus>
<clus scale="   90.770">  7  8 -1 -1</clus>
<clus scale="   94.049">  1 10  2 -1</clus>
<clus scale="   94.049">  1  5  2 -1</clus>
</clustering>
</event>
<event>
10    4  0.5389768E-005  0.1514157E+03  0.7546771E-02  0.1205225E+00
         -3   -1    0    0    0  501 -0.00000000000E+00  0.00000000000E+00  0.66347269104E+03  0.66347269104E+03  0.00000000000E+00 0.  1.
         21   -1    0    0  503  502  0.00000000000E+00 -0.00000000000E+00 -0.71650169325E+02  0.71650169325E+02  0.00000000000E+00 0. -1.
         24    2    1    2    0    0  0.12501641943E+03 -0.50110989977E+02  0.16217562372E+03  0.22533487795E+03  0.79590563814E+02 0.  0.
         23    2    1    2    0    0 -0.73409201958E+02  0.98675645357E+01  0.92686413596E+02  0.16130811141E+03  0.10928520385E+03 0.  0.
        -11    1    3    3    0    0  0.42911429080E+02 -0.11998932108E+02  0.11485011032E+03  0.12319055548E+03  0.00000000000E+00 0.  1.
         12    1    3    3    0    0  0.82104990352E+02 -0.38112057869E+02  0.47325513400E+02  0.10214432248E+03  0.00000000000E+00 0. -1.
        -13    1    4    4    0    0  0.10047750646E+02  0.39786733096E+02  0.15859140605E+02  0.43993792337E+02  0.00000000000E+00 0. -1.
         13    1    4    4    0    0 -0.83456952604E+02 -0.29919168560E+02  0.76827272991E+02  0.11731431908E+03  0.00000000000E+00 0.  1.
         21    1    1    2  503  501 -0.17791831862E+02  0.24397161502E+02  0.45318857387E+02  0.54457043670E+02  0.00000000000E+00 0.  1.
         -4    1    1    2    0  502 -0.33815385611E+02  0.15846263940E+02  0.29164162701E+03  0.29402282732E+03  0.00000000000E+00 0.  1.
<scales pt_clust_5="13000.00000" pt_clust_6="13000.00000" pt_clust_7="13000.00000" pt_clust_8="13000.00000" pt_clust_9="30.19554" pt_clust_10="50.45325"></scales>
<clustering>
<clus scale="   30.196">  1  9  2 -1</clus>
<clus scale="   50.453">  2 10  1 -1</clus>
<clus scale="   79.591">  5  6 -1 -1</clus>
<clus scale="  109.285">  7  8 -1 -1</clus>
<clus scale="  131.598">  1  5  2 -1</clus>
<clus scale="   50.453">  2  5  1 -1</clus>
</clustering>
</event>
<event>
10    4  0.5389768E-005  0.3616337E+03  0.7546771E-02  0.1058194E+00
         21   -1    0    0  501  502  0.00000000000E+00  0.00000000000E+00  0.82344706291E+02  0.82344706291E+02  0.00000000000E+00 0. -1.
          2   -1    0    0  503    0 -0.00000000000E+00 -0.00000000000E+00 -0.25313728717E+04  0.25313728717E+04  0.00000000000E+00 0. -1.
         24    2    1    2    0    0 -0.27742750639E+03  0.25939896557E+03 -0.15059697715E+04  0.15552342603E+04  0.80961761754E+02 0.  0.
         23    2    1    2    0    0  0.18398779108E+03 -0.26029609739E+03 -0.73780139638E+03  0.80893269801E+03  0.91736818286E+02 0.  0.
        -11    1    3    3    0    0 -0.53986588468E+02  0.12867503059E+02 -0.20205734976E+03  0.20954068092E+03  0.00000000000E+00 0.  1.
         12    1    3    3    0    0 -0.22344091793E+03  0.24653146251E+03 -0.13039124218E+04  0.13456935793E+04  0.00000000000E+00 0. -1.
        -11    1    4    4    0    0  0.13304736123E+03 -0.16212854489E+03 -0.57555035819E+03  0.61257283666E+03  0.00000000000E+00 0.  1.
         11    1    4    4    0    0  0.50940429848E+02 -0.98167552500E+02 -0.16225103819E+03  0.19635986135E+03  0.00000000000E+00 0. -1.
         21    1    1    2  503  502  0.34391772882E+01 -0.19938104336E+02 -0.12663958731E+03  0.12824562768E+03  0.00000000000E+00 0. -1.
          1    1    1    2  501    0  0.90000538024E+02  0.20835236156E+02 -0.78617410187E+02  0.12130499204E+03  0.00000000000E+00 0. -1.
<scales pt_clust_5="13000.00000" pt_clust_6="13000.00000" pt_clust_7="13000.00000" pt_clust_8="13000.00000" pt_clust_9="20.23255" pt_clust_10="92.33691"></scales>
<clustering>
<clus scale="   20.233">  2  9  1 -1</clus>
<clus scale="   80.962">  5  6 -1 -1</clus>
<clus scale="   91.737">  7  8 -1 -1</clus>
<clus scale="   92.337">  1 10  2 -1</clus>
<clus scale="  359.052">  2  5  1 -1</clus>
<clus scale="   92.337">  1  5  2 -1</clus>
</clustering>
</event>
<event>
10    4  0.5389768E-005  0.4281099E+03  0.7546771E-02  0.1034459E+00
         -3   -1    0    0    0  501 -0.00000000000E+00  0.00000000000E+00  0.97855102771E+03  0.97855102771E+03  0.00000000000E+00 0.  1.
         21   -1    0    0  503  502  0.00000000000E+00 -0.00000000000E+00 -0.30782575871E+03  0.30782575871E+03  0.00000000000E+00 0.  1.
         24    2    1    2    0    0 -0.21787122887E+02 -0.97649774522E+02  0.19780182668E+03  0.23564565313E+03  0.79957201135E+02 0.  0.
         23    2    1    2    0    0 -0.30638051589E+02 -0.25273729355E+03  0.42078446580E+03  0.49973034623E+03  0.88634206337E+02 0.  0.
        -13    1    3    3    0    0  0.25382072417E+02 -0.36371379827E+02  0.11022614305E+03  0.11881468547E+03  0.00000000000E+00 0.  1.
         14    1    3    3    0    0 -0.47169195304E+02 -0.61278394695E+02  0.87575683628E+02  0.11683096766E+03  0.00000000000E+00 0. -1.
        -13    1    4    4    0    0 -0.19387266246E+02 -0.13983862533E+03  0.14923109265E+03  0.20542791008E+03  0.00000000000E+00 0.  1.
         13    1    4    4    0    0 -0.11250785343E+02 -0.11289866822E+03  0.27155337315E+03  0.29430243615E+03  0.00000000000E+00 0. -1.
         21    1    1    2  503  501  0.21103325767E+02 -0.44717769099E+02  0.13702003647E+03  0.14566921303E+03  0.00000000000E+00 0.  1.
         -4    1    1    2    0  502  0.31321848709E+02  0.39510483717E+03 -0.84881059945E+02  0.40533157402E+03  0.00000000000E+00 0.  1.
<scales pt_clust_5="13000.00000" pt_clust_6="13000.00000" pt_clust_7="13000.00000" pt_clust_8="13000.00000" pt_clust_9="49.44724" pt_clust_10="388.16071"></scales>
<clustering>
<clus scale="   49.447">  1  9  2 -1</clus>
<clus scale="   79.957">  5  6 -1 -1</clus>
<clus scale="   88.634">  7  8 -1 -1</clus>
<clus scale="   89.874">  5  7 -1 -1</clus>
<clus scale="  388.161">  2 10  1 -1</clus>
<clus scale="  388.161">  2  5  1 -1</clus>
</clustering>
</event>
<event>
10    4  0.5389768E-005  0.1067666E+03  0.7546771E-02  0.1271616E+00
          2   -1    0    0  503    0 -0.00000000000E+00  0.00000000000E+00  0.40336983004E+03  0.40336983004E+03  0.00000000000E+00 0. -1.
         21   -1    0    0  501  502  0.00000000000E+00 -0.00000000000E+00 -0.85566514409E+02  0.85566514409E+02  0.00000000000E+00 0.  1.
         24    2    1    2    0    0  0.61150173636E+02 -0.27354621965E+02  0.15064453604E+03  0.18360738962E+03  0.80810136791E+02 0.  0.
         23    2    1    2    0    0  0.28118243451E+02  0.47624970254E+02  0.18109458967E+02  0.10909343151E+03  0.92274865956E+02 0.  0.
        -11    1    3    3    0    0  0.43696152730E+02 -0.51414553289E+02  0.13274598377E+03  0.14891039675E+03  0.00000000000E+00 0.  1.
         12    1    3    3    0    0  0.17454020907E+02  0.24059931323E+02  0.17898552261E+02  0.34696992869E+02  0.00000000000E+00 0. -1.
        -11    1    4    4    0    0  0.15871310529E+02  0.22352768648E+02 -0.37701658009E+02  0.46615016688E+02  0.00000000000E+00 0.  1.
         11    1    4    4    0    0  0.12246932921E+02  0.25272201606E+02  0.55811116976E+02  0.62478414817E+02  0.00000000000E+00 0. -1.
         21    1    1    2  503  502 -0.24876705073E+01 -0.28055916855E+02  0.80768465754E+02  0.85538693206E+02  0.00000000000E+00 0.  1.
          1    1    1    2  501    0 -0.86780746580E+02  0.77855685661E+01  0.68280854870E+02  0.11069683011E+03  0.00000000000E+00 0. -1.
<scales pt_clust_5="13000.00000" pt_clust_6="13000.00000" pt_clust_7="13000.00000" pt_clust_8="13000.00000" pt_clust_9="28.16599" pt_clust_10="87.47602"></scales>
<clustering>
<clus scale="   28.166">  1  9  2 -1</clus>
<clus scale="   80.810">  5  6 -1 -1</clus>
<clus scale="   87.476">  2 10  1 -1</clus>
<clus scale="   92.275">  7  8 -1 -1</clus>
<clus scale="   97.030">  1  5  2 -1</clus>
<clus scale="   87.476">  2  5  1 -1</clus>
</clustering>
</event>
<event>
10    4  0.5389768E-005  0.1111807E+03  0.7546771E-02  0.1260912E+00
         21   -1    0    0  503  502  0.00000000000E+00  0.00000000000E+00  0.41969729707E+03  0.41969729707E+03  0.00000000000E+00 0.  1.
         -1   -1    0    0    0  501 -0.00000000000E+00 -0.00000000000E+00 -0.73506381525E+02  0.73506381525E+02  0.00000000000E+00 0.  1.
         23    2    1    2    0    0 -0.27959497847E+02  0.77553832928E+02  0.13379110593E+02  0.12339049938E+03  0.90828873246E+02 0.  0.
         24    2    1    2    0    0  0.14043826567E+02 -0.43615885503E+02  0.29193221303E+03  0.30726265339E+03  0.84180440874E+02 0.  0.
        -13    1    4    4    0    0  0.45848995937E+02 -0.15562037750E+02  0.20358797075E+03  0.20926626408E+03  0.00000000000E+00 0.  1.
         14    1    4    4    0    0 -0.31805169371E+02 -0.28053847754E+02  0.88344242286E+02  0.97996389309E+02  0.00000000000E+00 0. -1.
        -13    1    3    3    0    0 -0.41992942299E+02  0.92493289905E+02  0.65688257876E+01  0.10179177448E+03  0.00000000000E+00 0.  1.
         13    1    3    3    0    0  0.14033444452E+02 -0.14939456977E+02  0.68102848055E+01  0.21598724895E+02  0.00000000000E+00 0. -1.
         21    1    1    2  503  501  0.18065914965E+02 -0.12834470314E+02  0.86192692239E+01  0.23777988008E+02  0.00000000000E+00 0. -1.
         -2    1    1    2    0  502 -0.41502436844E+01 -0.21103477111E+02  0.32260322693E+02  0.38772537821E+02  0.00000000000E+00 0.  1.
<scales pt_clust_5="13000.00000" pt_clust_6="13000.00000" pt_clust_7="13000.00000" pt_clust_8="13000.00000" pt_clust_9="22.54864" pt_clust_10="21.50770"></scales>
<clustering>
<clus scale="   21.508">  1 10  2 -1</clus>
<clus scale="   22.549">  2  9  1 -1</clus>
<clus scale="   84.180">  5  6 -1 -1</clus>
<clus scale="   90.829">  7  8 -1 -1</clus>
<clus scale="  105.819">  1  5  2 -1</clus>
<clus scale="   21.508">  1  5  2 -1</clus>
</clustering>
</event>
<event>
10    4  0.5389768E-005  0.1051754E+03  0.7546771E-02  0.1272169E+00
         21   -1    0    0  503  502  0.00000000000E+00  0.00000000000E+00  0.47962330468E+02  0.47962330468E+02  0.00000000000E+00 0. -1.
          2   -1    0    0  502    0 -0.00000000000E+00 -0.00000000000E+00 -0.70229056683E+03  0.70229056683E+03  0.00000000000E+00 0. -1.
         23    2    1    2    0    0 -0.19592546155E+02  0.40934732720E+02 -0.13386924494E+03  0.16558315362E+03  0.86239699745E+02 0.  0.
         24    2    1    2    0    0  0.78470487540E+02 -0.38771436861E+02 -0.14803277994E+03  0.18982813730E+03  0.80375220312E+02 0.  0.
        -13    1    4    4    0    0  0.13987328991E+02 -0.19943249716E+02  0.29870455325E+01  0.24541821908E+02  0.00000000000E+00 0.  1.
         14    1    4    4    0    0  0.64483158550E+02 -0.18828187145E+02 -0.15101982548E+03  0.16528631539E+03  0.00000000000E+00 0. -1.
        -11    1    3    3    0    0 -0.26285989505E+02  0.16435911414E+02 -0.17562120181E+01  0.31051194968E+02  0.00000000000E+00 0. -1.
         11    1    3    3    0    0  0.66934433496E+01  0.24498821305E+02 -0.13211303292E+03  0.13453195865E+03  0.00000000000E+00 0.  1.
         21    1    1    2  503  501  0.36821383757E+01 -0.45620235106E+02 -0.75402043507E+02  0.88205624306E+02  0.00000000000E+00 0. -1.
          1    1    1    2  501    0 -0.62560079761E+02  0.43456939247E+02 -0.29702416797E+03  0.30663598208E+03  0.00000000000E+00 0. -1.
<scales pt_clust_5="13000.00000" pt_clust_6="13000.00000" pt_clust_7="13000.00000" pt_clust_8="13000.00000" pt_clust_9="45.76859" pt_clust_10="72.92811"></scales>
<clustering>
<clus scale="   45.769">  1  9  2 -1</clus>
<clus scale="   72.928">  1 10  2 -1</clus>
<clus scale="   80.375">  5  6 -1 -1</clus>
<clus scale="   86.240">  7  8 -1 -1</clus>
<clus scale="  100.423">  1  5  2 -1</clus>
<clus scale="   45.769">  1  5  2 -1</clus>
</clustering>
</event>
<event>
10    4  0.5389768E-005  0.9161160E+02  0.7546771E-02  0.1305829E+00
         21   -1    0    0  501  502  0.00000000000E+00  0.00000000000E+00  0.44577637482E+02  0.44577637482E+02  0.00000000000E+00 0. -1.
          2   -1    0    0  503    0 -0.00000000000E+00 -0.00000000000E+00 -0.84745950600E+03  0.84745950600E+03  0.00000000000E+00 0. -1.
         24    2    1    2    0    0  0.13117951288E+02 -0.84546609729E+01 -0.35367197778E+03  0.36309694834E+03  0.80696741514E+02 0.  0.
         23    2    1    2    0    0  0.33506740854E+02  0.28573616290E+02 -0.32711705563E+02  0.10669751399E+03  0.91515848797E+02 0.  0.
        -11    1    3    3    0    0  0.36401165261E+02 -0.26561783957E+02 -0.13218692302E+03  0.13965656382E+03  0.00000000000E+00 0.  1.
         12    1    3    3    0    0 -0.23283213973E+02  0.18107122984E+02 -0.22148505475E+03  0.22344038452E+03  0.00000000000E+00 0. -1.
        -13    1    4    4    0    0 -0.38131683739E+01 -0.30886863117E+02 -0.67218257287E+01  0.31838993504E+02  0.00000000000E+00 0. -1.
         13    1    4    4    0    0  0.37319909228E+02  0.59460479407E+02 -0.25989879834E+02  0.74858520490E+02  0.00000000000E+00 0.  1.
         21    1    1    2  503  502 -0.17647702837E+02  0.14601297159E+02 -0.18080811726E+03  0.18225316064E+03  0.00000000000E+00 0. -1.
          1    1    1    2  501    0 -0.28976989305E+02 -0.34720252477E+02 -0.23569006792E+03  0.23998952051E+03  0.00000000000E+00 0. -1.
<scales pt_clust_5="13000.00000" pt_clust_6="13000.00000" pt_clust_7="13000.00000" pt_clust_8="13000.00000" pt_clust_9="22.90501" pt_clust_10="45.99176"></scales>
<clustering>
<clus scale="   22.905">  2  9  1 -1</clus>
<clus scale="   45.992">  1 10  2 -1</clus>
<clus scale="   80.697">  5  6 -1 -1</clus>
<clus scale="   80.805">  2  5  1 -1</clus>
<clus scale="   91.516">  7  8 -1 -1</clus>
<clus scale="   45.992">  1  5  2 -1</clus>
</clustering>
</event>
<event>
10    4  0.5389768E-005  0.9301334E+02  0.7546771E-02  0.1300357E+00
         -1   -1    0    0    0  501 -0.00000000000E+00  0.00000000000E+00  0.47344313764E+03  0.47344313764E+03  0.00000000000E+00 0.  1.
         21   -1    0    0  503  502  0.00000000000E+00 -0.00000000000E+00 -0.16437953435E+03  0.16437953435E+03  0.00000000000E+00 0.  1.
         23    2    1    2    0    0  0.30675836947E+02  0.37813909474E+02  0.11628208617E+03  0.15571074355E+03  0.91397009645E+02 0.  0.
         24    2    1    2    0    0 -0.17094839045E+02 -0.35466445866E+01 -0.44587354807E+01  0.85516735379E+02  0.83596767270E+02 0.  0.
        -13    1    4    4    0    0  0.29705226043E+01 -0.39978259443E+02  0.10288752191E+02  0.41387723473E+02  0.00000000000E+00 0.  1.
         14    1    4    4    0    0 -0.20065361649E+02  0.36431614857E+02 -0.14747487672E+02  0.44129011906E+02  0.00000000000E+00 0. -1.
        -11    1    3    3    0    0  0.23735176786E+02  0.67116775645E+02  0.65868700916E+02  0.96988174281E+02  0.00000000000E+00 0. -1.
         11    1    3    3    0    0  0.69406601607E+01 -0.29302866171E+02  0.50413385250E+02  0.58722569270E+02  0.00000000000E+00 0.  1.
         21    1    1    2  503  501 -0.20345854934E+02 -0.54599596657E+02  0.29286189181E+03  0.29860200509E+03  0.00000000000E+00 0.  1.
         -2    1    1    2    0  502  0.67648570318E+01  0.20332331770E+02 -0.95621639200E+02  0.97993187973E+02  0.00000000000E+00 0.  1.
<scales pt_clust_5="13000.00000" pt_clust_6="13000.00000" pt_clust_7="13000.00000" pt_clust_8="13000.00000" pt_clust_9="57.35767" pt_clust_10="21.42818"></scales>
<clustering>
<clus scale="   21.428">  2 10  1 -1</clus>
<clus scale="   57.358">  1  9  2 -1</clus>
<clus scale="   83.597">  5  6 -1 -1</clus>
<clus scale="   85.361">  2  5  1 -1</clus>
<clus scale="   91.397">  7  8 -1 -1</clus>
<clus scale="   21.428">  2  5  1 -1</clus>
</clustering>
</event>
<event>
10    4  0.9287815E-005  0.1198181E+03  0.7546771E-02  0.1245798E+00
          2   -1    0    0  503    0 -0.00000000000E+00  0.00000000000E+00  0.79434408576E+03  0.79434408576E+03  0.00000000000E+00 0. -1.
         21   -1    0    0  501  502  0.00000000000E+00 -0.00000000000E+00 -0.19377483476E+03  0.19377483476E+03  0.00000000000E+00 0. -1.
         24    2    1    2    0    0 -0.17453740008E+01 -0.86632735422E+02  0.51308883622E+03  0.52668433935E+03  0.81412298092E+02 0.  0.
         23    2    1    2    0    0  0.61079295415E+02  0.15174974421E+03 -0.11622235770E+03  0.21958699460E+03  0.89174809059E+02 0.  0.
        -13    1    3    3    0    0  0.36945634754E+02 -0.23515950211E+02  0.22596761247E+03  0.23017241739E+03  0.00000000000E+00 0.  1.
         14    1    3    3    0    0 -0.38691008755E+02 -0.63116785211E+02  0.28712122375E+03  0.29651192195E+03  0.00000000000E+00 0. -1.
        -11    1    4    4    0    0  0.79071357990E+02  0.11249754605E+03 -0.10973016304E+03  0.17592238687E+03  0.00000000000E+00 0. -1.
         11    1    4    4    0    0 -0.17992062575E+02  0.39252198159E+02 -0.64921946507E+01  0.43664607720E+02  0.00000000000E+00 0.  1.
         21    1    1    2  503  502  0.12336063067E+02  0.15759012467E+02  0.17625751056E+02  0.26668183782E+02  0.00000000000E+00 0. -1.
          1    1    1    2  501    0 -0.71669984481E+02 -0.80876021255E+02  0.18607702142E+03  0.21517940280E+03  0.00000000000E+00 0. -1.
<scales pt_clust_5="13000.00000" pt_clust_6="13000.00000" pt_clust_7="13000.00000" pt_clust_8="13000.00000" pt_clust_9="20.01312" pt_clust_10="102.87306"></scales>
<clustering>
<clus scale="   20.013">  1  9  2 -1</clus>
<clus scale="   81.412">  5  6 -1 -1</clus>
<clus scale="   89.175">  7  8 -1 -1</clus>
<clus scale="  102.873">  2 10  1 -1</clus>
<clus scale="  114.159">  1  5  2 -1</clus>
<clus scale="  102.873">  2  5  1 -1</clus>
</clustering>
</event>
<event>
10    4  0.5389768E-005  0.1700661E+03  0.7546771E-02  0.1190784E+00
         21   -1    0    0  503  502  0.00000000000E+00  0.00000000000E+00  0.51869593039E+03  0.51869593039E+03  0.00000000000E+00 0.  1.
          2   -1    0    0  502    0 -0.00000000000E+00 -0.00000000000E+00 -0.12883449563E+03  0.12883449563E+03  0.00000000000E+00 0. -1.
         24    2    1    2    0    0 -0.25245825586E+02  0.90213430853E+02  0.10230706405E+03  0.16010532089E+03  0.79944753454E+02 0.  0.
         23    2    1    2    0    0  0.17422880188E+03 -0.76605655232E+01  0.20337494571E+03  0.28307517673E+03  0.91410215362E+02 0.  0.
        -13    1    3    3    0    0 -0.54306490656E+02  0.60213996155E+02  0.72748779674E+02  0.10893716172E+03  0.00000000000E+00 0.  1.
         14    1    3    3    0    0  0.29060665070E+02  0.29999434699E+02  0.29558284380E+02  0.51168159162E+02  0.00000000000E+00 0. -1.
        -11    1    4    4    0    0  0.77036525716E+02  0.37470618618E+02  0.11929531827E+03  0.14686744539E+03  0.00000000000E+00 0.  1.
         11    1    4    4    0    0  0.97192276164E+02 -0.45131184141E+02  0.84079627437E+02  0.13620773134E+03  0.00000000000E+00 0. -1.
         21    1    1    2  503  501 -0.39227212990E+02  0.68911569514E+01  0.38968779041E+02  0.55720983687E+02  0.00000000000E+00 0.  1.
          1    1    1    2  501    0 -0.10975576330E+03 -0.89444022282E+02  0.45210645956E+02  0.14862894472E+03  0.00000000000E+00 0. -1.
<scales pt_clust_5="13000.00000" pt_clust_6="13000.00000" pt_clust_7="13000.00000" pt_clust_8="13000.00000" pt_clust_9="39.82791" pt_clust_10="143.41083"></scales>
<clustering>
<clus scale="   39.828">  1  9  2 -1</clus>
<clus scale="   79.945">  5  6 -1 -1</clus>
<clus scale="   91.410">  7  8 -1 -1</clus>
<clus scale="  127.229">  2  5  1 -1</clus>
<clus scale="  143.411">  1 10  2 -1</clus>
<clus scale="   39.828">  1  5  2 -1</clus>
</clustering>
</event>
<event>
10    4  0.5389768E-005  0.2331804E+03  0.7546771E-02  0.1125052E+00
          4   -1    0    0  503    0 -0.00000000000E+00  0.00000000000E+00  0.73176021299E+03  0.73176021299E+03  0.00000000000E+00 0. -1.
         21   -1    0    0  501  502  0.00000000000E+00 -0.00000000000E+00 -0.14155176693E+03  0.14155176693E+03  0.00000000000E+00 0. -1.
         24    2    1    2    0    0  0.11780788225E+03 -0.18591576711E+03  0.31982398496E+03  0.39669742737E+03  0.81474523297E+02 0.  0.
         23    2    1    2    0    0 -0.99896168754E+02  0.15209811505E+03  0.40843152935E+02  0.20759244058E+03  0.91177722668E+02 0.  0.
        -11    1    3    3    0    0  0.53451660280E+02 -0.10955077826E+03  0.23874124247E+03  0.26805938495E+03  0.00000000000E+00 0.  1.
         12    1    3    3    0    0  0.64356221973E+02 -0.76364988848E+02  0.81082742498E+02  0.12863804243E+03  0.00000000000E+00 0. -1.
        -11    1    4    4    0    0 -0.47334459186E+01  0.73313817380E+02  0.40828447619E+02  0.84049291872E+02  0.00000000000E+00 0.  1.
         11    1    4    4    0    0 -0.95162722835E+02  0.78784297672E+02  0.14705316583E-01  0.12354314871E+03  0.00000000000E+00 0. -1.
         21    1    1    2  503  502 -0.16806368065E+02 -0.39792123016E+02  0.16677759313E+03  0.17228067980E+03  0.00000000000E+00 0. -1.
          3    1    1    2  501    0 -0.11053454342E+01  0.73609775072E+02  0.62763715028E+02  0.96741432172E+02  0.00000000000E+00 0. -1.
<scales pt_clust_5="13000.00000" pt_clust_6="13000.00000" pt_clust_7="13000.00000" pt_clust_8="13000.00000" pt_clust_9="43.19568" pt_clust_10="68.05480"></scales>
<clustering>
<clus scale="   43.196">  1  9  2 -1</clus>
<clus scale="   68.055">  2 10  1 -1</clus>
<clus scale="   81.475">  5  6 -1 -1</clus>
<clus scale="   91.178">  7  8 -1 -1</clus>
<clus scale="  229.560">  1  5  2 -1</clus>
<clus scale="   68.055">  2  5  1 -1</clus>
</clustering>
</event>
<event>
10    4  0.5389768E-005  0.1536280E+03  0.7546771E-02  0.1217969E+00
          2   -1    0    0  503    0 -0.00000000000E+00  0.00000000000E+00  0.26149461870E+03  0.26149461870E+03  0.00000000000E+00 0. -1.
         21   -1    0    0  501  502  0.00000000000E+00 -0.00000000000E+00 -0.18430561806E+03  0.18430561806E+03  0.00000000000E+00 0. -1.
         23    2    1    2    0    0  0.24289169707E+02 -0.86016068849E+01  0.74700704191E+02  0.12091682165E+03  0.91524483858E+02 0.  0.
         24    2    1    2    0    0  0.60308671284E+02  0.10571605992E+03  0.29817471660E+02  0.14879219943E+03  0.80231015426E+02 0.  0.
        -11    1    4    4    0    0  0.26208880952E+02  0.28952971699E+02 -0.26916623995E+02  0.47430840792E+02  0.00000000000E+00 0.  1.
         12    1    4    4    0    0  0.34099790332E+02  0.76763088223E+02  0.56734095655E+02  0.10136135863E+03  0.00000000000E+00 0. -1.
        -13    1    3    3    0    0  0.48295453441E+02 -0.22575544403E+02  0.15492881076E+02  0.55516982917E+02  0.00000000000E+00 0. -1.
         13    1    3    3    0    0 -0.24006283734E+02  0.13973937518E+02  0.59207823115E+02  0.65399838734E+02  0.00000000000E+00 0.  1.
         21    1    1    2  503  502 -0.10756858566E+03 -0.94265114850E+02 -0.37896812040E+01  0.14307786056E+03  0.00000000000E+00 0. -1.
          1    1    1    2  501    0  0.22970744669E+02 -0.28493381874E+01 -0.23539494000E+02  0.33013355124E+02  0.00000000000E+00 0. -1.
<scales pt_clust_5="13000.00000" pt_clust_6="13000.00000" pt_clust_7="13000.00000" pt_clust_8="13000.00000" pt_clust_9="131.01357" pt_clust_10="23.14679"></scales>
<clustering>
<clus scale="   23.147">  2 10  1 -1</clus>
<clus scale="   80.231">  5  6 -1 -1</clus>
<clus scale="   91.524">  7  8 -1 -1</clus>
<clus scale="   96.047">  1  7  2 -1</clus>
<clus scale="  131.014">  2  9  1 -1</clus>
<clus scale="   23.147">  2  5  1 -1</clus>
</clustering>
</event>
<event>
10    4  0.5389768E-005  0.2672739E+03  0.7546771E-02  0.1103438E+00
          2   -1    0    0  503    0 -0.00000000000E+00  0.00000000000E+00  0.14536777157E+04  0.14536777157E+04  0.00000000000E+00 0. -1.
         21   -1    0    0  501  502  0.00000000000E+00 -0.00000000000E+00 -0.16548442174E+03  0.16548442174E+03  0.00000000000E+00 0.  1.
         24    2    1    2    0    0 -0.15385406903E+03  0.21862621291E+03  0.10690581112E+04  0.11045790557E+04  0.75770374267E+02 0.  0.
         23    2    1    2    0    0  0.11041321989E+03 -0.18680723263E+03  0.28923646014E+03  0.37232054013E+03  0.88751526443E+02 0.  0.
        -11    1    3    3    0    0 -0.11452374730E+03  0.18257572835E+03  0.72323085683E+03  0.75466049158E+03  0.00000000000E+00 0.  1.
         12    1    3    3    0    0 -0.39330321727E+02  0.36050484565E+02  0.34582725439E+03  0.34991856413E+03  0.00000000000E+00 0. -1.
        -11    1    4    4    0    0  0.91369554076E+02 -0.75004291960E+02  0.17632752954E+03  0.21228621457E+03  0.00000000000E+00 0.  1.
         11    1    4    4    0    0  0.19043665810E+02 -0.11180294067E+03  0.11290893060E+03  0.16003432556E+03  0.00000000000E+00 0. -1.
         21    1    1    2  503  502  0.98436875727E+01  0.19481725716E+02  0.22402811967E+02  0.31278136228E+02  0.00000000000E+00 0.  1.
          1    1    1    2  501    0  0.33597161572E+02 -0.51300706004E+02 -0.92504089327E+02  0.11098440541E+03  0.00000000000E+00 0. -1.
<scales pt_clust_5="13000.00000" pt_clust_6="13000.00000" pt_clust_7="13000.00000" pt_clust_8="13000.00000" pt_clust_9="21.82741" pt_clust_10="55.72932"></scales>
<clustering>
<clus scale="   21.827">  2  9  1 -1</clus>
<clus scale="   55.729">  2 10  1 -1</clus>
<clus scale="   75.770">  5  6 -1 -1</clus>
<clus scale="   88.752">  7  8 -1 -1</clus>
<clus scale="  263.248">  1  5  2 -1</clus>
<clus scale="   21.827">  2  5  1 -1</clus>
</clustering>
</event>
<event>
10    4  0.5389768E-005  0.9794165E+02  0.7546771E-02  0.1287802E+00
         -1   -1    0    0    0  501 -0.00000000000E+00  0.00000000000E+00  0.29171205285E+03  0.29171205285E+03  0.00000000000E+00 0.  1.
         21   -1    0    0  503  502  0.00000000000E+00 -0.00000000000E+00 -0.20139144283E+03  0.20139144283E+03  0.00000000000E+00 0.  1.
         24    2    1    2    0    0 -0.72694152653E+01 -0.37630514662E+02  0.14623722834E+03  0.17331653607E+03  0.84760808695E+02 0.  0.
         23    2    1    2    0    0  0.54414852203E+02  0.73152919791E+01 -0.10031873995E+03  0.14603410975E+03  0.90816419154E+02 0.  0.
        -13    1    3    3    0    0  0.18920169351E+02 -0.42529314635E+02  0.13767449178E+03  0.14533059244E+03  0.00000000000E+00 0.  1.
         14    1    3    3    0    0 -0.26189584616E+02  0.48987999724E+01  0.85627365597E+01  0.27985943631E+02  0.00000000000E+00 0. -1.
        -13    1    4    4    0    0  0.79553032743E+02  0.95805829261E+01 -0.68475536822E+02  0.10540100441E+03  0.00000000000E+00 0.  1.
         13    1    4    4    0    0 -0.25138180540E+02 -0.22652909470E+01 -0.31843203133E+02  0.40633105341E+02  0.00000000000E+00 0. -1.
         21    1    1    2  503  501  0.25235726106E+02 -0.32541940340E+01  0.81778375755E+02  0.85645399129E+02  0.00000000000E+00 0.  1.
         -2    1    1    2    0  502 -0.72381163044E+02  0.33569416717E+02 -0.37376254113E+02  0.88107450728E+02  0.00000000000E+00 0.  1.
<scales pt_clust_5="13000.00000" pt_clust_6="13000.00000" pt_clust_7="13000.00000" pt_clust_8="13000.00000" pt_clust_9="25.44468" pt_clust_10="76.83370"></scales>
<clustering>
<clus scale="   25.445">  1  9  2 -1</clus>
<clus scale="   76.834">  2 10  1 -1</clus>
<clus scale="   84.761">  5  6 -1 -1</clus>
<clus scale="   90.816">  7  8 -1 -1</clus>
<clus scale="   92.354">  1  5  2 -1</clus>
<clus scale="   76.834">  2  5  1 -1</clus>
</clustering>
</event>
<event>
10    4  0.5389768E-005  0.1260629E+03  0.7546771E-02  0.1235305E+00
          2   -1    0    0  503    0 -0.00000000000E+00  0.00000000000E+00  0.88787950381E+03  0.88787950381E+03  0.00000000000E+00 0. -1.
         21   -1    0    0  501  502  0.00000000000E+00 -0.00000000000E+00 -0.35276000598E+02  0.35276000598E+02  0.00000000000E+00 0. -1.
         24    2    1    2    0    0 -0.73496603683E+02 -0.60563550616E+02  0.23978252866E+03  0.27106404341E+03  0.83128576098E+02 0.  0.
         23    2    1    2    0    0  0.29140003480E+02  0.84878650149E+02  0.21403898769E+03  0.24891787860E+03  0.89966087954E+02 0.  0.
        -13    1    3    3    0    0  0.12005083976E+01 -0.49681382383E+02  0.77200643502E+02  0.91812963861E+02  0.00000000000E+00 0.  1.
         14    1    3    3    0    0 -0.74697112081E+02 -0.10882168234E+02  0.16258188515E+03  0.17925107955E+03  0.00000000000E+00 0. -1.
        -13    1    4    4    0    0  0.46721696110E+02  0.66776514983E+02  0.86260375171E+02  0.11867127776E+03  0.00000000000E+00 0. -1.
         13    1    4    4    0    0 -0.17581692630E+02  0.18102135166E+02  0.12777861252E+03  0.13024660084E+03  0.00000000000E+00 0.  1.
         21    1    1    2  503  502  0.31178309729E+02  0.41825935957E-01  0.18563563950E+03  0.18823570171E+03  0.00000000000E+00 0. -1.
          1    1    1    2  501    0  0.13178290474E+02 -0.24356925468E+02  0.21314634737E+03  0.21493788069E+03  0.00000000000E+00 0. -1.
<scales pt_clust_5="13000.00000" pt_clust_6="13000.00000" pt_clust_7="13000.00000" pt_clust_8="13000.00000" pt_clust_9="31.68882" pt_clust_10="27.69346"></scales>
<clustering>
<clus scale="   27.693">  2 10  1 -1</clus>
<clus scale="   31.689">  1  9  2 -1</clus>
<clus scale="   83.129">  5  6 -1 -1</clus>
<clus scale="   89.966">  7  8 -1 -1</clus>
<clus scale="  121.278">  1  5  2 -1</clus>
<clus scale="   27.693">  2  5  1 -1</clus>
</clustering>
</event>
<event>
10    4  0.5389768E-005  0.1231013E+03  0.7546771E-02  0.1244182E+00
         21   -1    0    0  503  502  0.00000000000E+00  0.00000000000E+00  0.59402578847E+02  0.59402578847E+02  0.00000000000E+00 0.  1.
          2   -1    0    0  502    0 -0.00000000000E+00 -0.00000000000E+00 -0.50021456404E+03  0.50021456404E+03  0.00000000000E+00 0. -1.
         24    2    1    2    0    0  0.46411382654E+02 -0.21935172180E+02 -0.88199072270E+02  0.12975618712E+03  0.80140024514E+02 0.  0.
         23    2    1    2    0    0 -0.90155892412E+02  0.63305335281E+02 -0.12868728824E+03  0.19607714711E+03  0.98742994960E+02 0.  0.
        -13    1    3    3    0    0  0.37181313630E+02 -0.50561283027E+02 -0.45462700511E+02  0.77496777755E+02  0.00000000000E+00 0.  1.
         14    1    3    3    0    0  0.92300690242E+01  0.28626110848E+02 -0.42736371759E+02  0.52259409368E+02  0.00000000000E+00 0. -1.
        -13    1    4    4    0    0 -0.20725757177E+02  0.33501141567E+02  0.77187769742E+01  0.40143031959E+02  0.00000000000E+00 0.  1.
         13    1    4    4    0    0 -0.69430135234E+02  0.29804193715E+02 -0.13640606522E+03  0.15593411515E+03  0.00000000000E+00 0. -1.
         21    1    1    2  503  501  0.26196729857E+02 -0.11941895038E+02 -0.63228454356E+02  0.69474563349E+02  0.00000000000E+00 0. -1.
          1    1    1    2  501    0  0.17547779901E+02 -0.29428268064E+02 -0.16069717033E+03  0.16430924531E+03  0.00000000000E+00 0. -1.
<scales pt_clust_5="13000.00000" pt_clust_6="13000.00000" pt_clust_7="13000.00000" pt_clust_8="13000.00000" pt_clust_9="27.30231" pt_clust_10="67.17282"></scales>
<clustering>
<clus scale="   27.302">  9 10 -1 -1</clus>
<clus scale="   67.173">  1  9  2 -1</clus>
<clus scale="   80.140">  5  6 -1 -1</clus>
<clus scale="   98.743">  7  8 -1 -1</clus>
<clus scale="  108.748">  2  5  1 -1</clus>
<clus scale="   67.173">  1  5  2 -1</clus>
</clustering>
</event>
<event>
10    4  0.5389768E-005  0.1458477E+03  0.7546771E-02  0.1207980E+00
          2   -1    0    0  503    0 -0.00000000000E+00  0.00000000000E+00  0.57583976930E+03  0.57583976930E+03  0.00000000000E+00 0. -1.
         21   -1    0    0  501  502  0.00000000000E+00 -0.00000000000E+00 -0.20221626181E+03  0.20221626181E+03  0.00000000000E+00 0. -1.
         24    2    1    2    0    0 -0.35277174601E+02  0.55588195264E+02  0.34379292973E+03  0.35912577783E+03  0.80269665933E+02 0.  0.
         23    2    1    2    0    0  0.11875994589E+03 -0.58294344049E+02 -0.53449348668E+02  0.16973684507E+03  0.91932629717E+02 0.  0.
        -11    1    3    3    0    0 -0.29737749486E+02 -0.11516830844E+02  0.16545001307E+03  0.16849533513E+03  0.00000000000E+00 0.  1.
         12    1    3    3    0    0 -0.55394251148E+01  0.67105026107E+02  0.17834291666E+03  0.19063044270E+03  0.00000000000E+00 0. -1.
        -13    1    4    4    0    0  0.21331980819E+02  0.23816791150E+02 -0.21007437193E+02  0.38257095600E+02  0.00000000000E+00 0.  1.
         13    1    4    4    0    0  0.97427965066E+02 -0.82111135199E+02 -0.32441911474E+02  0.13147974947E+03  0.00000000000E+00 0. -1.
         21    1    1    2  503  502 -0.58412122611E+00  0.73595656923E+02  0.11416274824E+03  0.13583002246E+03  0.00000000000E+00 0. -1.
          1    1    1    2  501    0 -0.82898650058E+02 -0.70889508137E+02 -0.30882821818E+02  0.11336338575E+03  0.00000000000E+00 0. -1.
<scales pt_clust_5="13000.00000" pt_clust_6="13000.00000" pt_clust_7="13000.00000" pt_clust_8="13000.00000" pt_clust_9="73.59797" pt_clust_10="104.86766"></scales>
<clustering>
<clus scale="   73.598">  1  9  2 -1</clus>
<clus scale="   80.270">  5  6 -1 -1</clus>
<clus scale="   91.933">  7  8 -1 -1</clus>
<clus scale="  104.868">  2 10  1 -1</clus>
<clus scale="  138.792">  1  5  2 -1</clus>
<clus scale="  104.868">  2  5  1 -1</clus>
</clustering>
</event>
<event>
10    4  0.5389769E-005  0.1321964E+03  0.7546771E-02  0.1239416E+00
         21   -1    0    0  501  502  0.00000000000E+00  0.00000000000E+00  0.36448920942E+02  0.36448920942E+02  0.00000000000E+00 0. -1.
          2   -1    0    0  503    0 -0.00000000000E+00 -0.00000000000E+00 -0.14177718676E+04  0.14177718676E+04  0.00000000000E+00 0. -1.
         24    2    1    2    0    0 -0.36178447272E+02  0.13612086719E+01 -0.59342462701E+03  0.60007749597E+03  0.81421620595E+02 0.  0.
         23    2    1    2    0    0  0.30626974735E+00  0.88066937097E+02 -0.47391305745E+03  0.48610044545E+03  0.62802689743E+02 0.  0.
        -11    1    3    3    0    0  0.13992442198E+02 -0.15093985682E+02 -0.49671997384E+02  0.53767315039E+02  0.00000000000E+00 0.  1.
         12    1    3    3    0    0 -0.50170889469E+02  0.16455194354E+02 -0.54375262962E+03  0.54631018093E+03  0.00000000000E+00 0. -1.
        -13    1    4    4    0    0 -0.28756083010E+02  0.35191396694E+02 -0.25532726233E+03  0.25934023521E+03  0.00000000000E+00 0.  1.
         13    1    4    4    0    0  0.29062352758E+02  0.52875540403E+02 -0.21858579512E+03  0.22676021024E+03  0.00000000000E+00 0. -1.
         21    1    1    2  503  502 -0.30487318251E+02  0.22205096044E+02 -0.17003796282E+03  0.17417075433E+03  0.00000000000E+00 0. -1.
          1    1    1    2  501    0  0.66359495776E+02 -0.11163324181E+03 -0.14394729935E+03  0.19387209275E+03  0.00000000000E+00 0. -1.
<scales pt_clust_5="13000.00000" pt_clust_6="13000.00000" pt_clust_7="13000.00000" pt_clust_8="13000.00000" pt_clust_9="37.71661" pt_clust_10="116.32588"></scales>
<clustering>
<clus scale="   37.717">  2  9  1 -1</clus>
<clus scale="   62.803">  7  8 -1 -1</clus>
<clus scale="   81.422">  5  6 -1 -1</clus>
<clus scale="   96.708">  2  5  1 -1</clus>
<clus scale="  116.326">  1 10  2 -1</clus>
<clus scale="  116.326">  1  5  2 -1</clus>
</clustering>
</event>
<event>
10    4  0.5389768E-005  0.1091808E+03  0.7546771E-02  0.1267145E+00
         21   -1    0    0  501  502  0.00000000000E+00  0.00000000000E+00  0.64407626958E+02  0.64407626958E+02  0.00000000000E+00 0. -1.
          4   -1    0    0  503    0 -0.00000000000E+00 -0.00000000000E+00 -0.44396626119E+03  0.44396626119E+03  0.00000000000E+00 0. -1.
         24    2    1    2    0    0 -0.64539129524E+02  0.35852002903E+02 -0.10095287368E+03  0.14715519234E+03  0.77540328707E+02 0.  0.
         23    2    1    2    0    0  0.44643727416E+02 -0.26915324964E+02 -0.68345647484E+02  0.12463194531E+03  0.90246867787E+02 0.  0.
        -11    1    3    3    0    0  0.74935518168E+01  0.26380165064E+02 -0.68440811751E+01  0.28264958425E+02  0.00000000000E+00 0.  1.
         12    1    3    3    0    0 -0.72032681341E+02  0.94718378392E+01 -0.94108792507E+02  0.11889023391E+03  0.00000000000E+00 0. -1.
        -13    1    4    4    0    0 -0.14259639405E+02 -0.25561091589E+02  0.58902715764E+01  0.29856356416E+02  0.00000000000E+00 0. -1.
         13    1    4    4    0    0  0.58903366821E+02 -0.13542333748E+01 -0.74235919061E+02  0.94775588891E+02  0.00000000000E+00 0.  1.
         21    1    1    2  503  502  0.69472280038E+01 -0.57488865215E+02 -0.12138452951E+03  0.13448954459E+03  0.00000000000E+00 0. -1.
          3    1    1    2  501    0  0.12948174105E+02  0.48552187275E+02 -0.88875583553E+02  0.10209720591E+03  0.00000000000E+00 0. -1.
<scales pt_clust_5="13000.00000" pt_clust_6="13000.00000" pt_clust_7="13000.00000" pt_clust_8="13000.00000" pt_clust_9="52.66115" pt_clust_10="50.24911"></scales>
<clustering>
<clus scale="   50.249">  1 10  2 -1</clus>
<clus scale="   52.661">  2  9  1 -1</clus>
<clus scale="   77.540">  5  6 -1 -1</clus>
<clus scale="   90.247">  7  8 -1 -1</clus>
<clus scale="   98.937">  2  5  1 -1</clus>
<clus scale="   50.249">  1  5  2 -1</clus>
</clustering>
</event>
<event>
10    4  0.5389768E-005  0.1621424E+03  0.7546771E-02  0.1187712E+00
         -1   -1    0    0    0  501 -0.00000000000E+00  0.00000000000E+00  0.48610449096E+03  0.48610449096E+03  0.00000000000E+00 0.  1.
         21   -1    0    0  503  502  0.00000000000E+00 -0.00000000000E+00 -0.21133457404E+03  0.21133457404E+03  0.00000000000E+00 0. -1.
         23    2    1    2    0    0  0.13797440331E+03 -0.40941717088E+02  0.39827319822E+03  0.43304128446E+03  0.90498914102E+02 0.  0.
         24    2    1    2    0    0 -0.74262834482E+02  0.49730687865E+02 -0.50010663465E+02  0.13069195083E+03  0.81186265158E+02 0.  0.
        -11    1    4    4    0    0 -0.11646834414E+02  0.56201774970E+02 -0.29164487989E+02  0.64380553130E+02  0.00000000000E+00 0.  1.
         12    1    4    4    0    0 -0.62616000068E+02 -0.64710871045E+01 -0.20846175476E+02  0.66311397699E+02  0.00000000000E+00 0. -1.
        -13    1    3    3    0    0  0.10202797614E+03 -0.19043258252E+02  0.36475628062E+03  0.37923541218E+03  0.00000000000E+00 0.  1.
         13    1    3    3    0    0  0.35946427171E+02 -0.21898458836E+02  0.33516917604E+02  0.53805872277E+02  0.00000000000E+00 0. -1.
         21    1    1    2  503  501 -0.40642494768E+02 -0.97354796180E+01  0.13329288321E+02  0.43866409376E+02  0.00000000000E+00 0. -1.
         -2    1    1    2    0  502 -0.23069074058E+02  0.94650884030E+00 -0.86821906166E+02  0.89839420341E+02  0.00000000000E+00 0.  1.
<scales pt_clust_5="13000.00000" pt_clust_6="13000.00000" pt_clust_7="13000.00000" pt_clust_8="13000.00000" pt_clust_9="44.55653" pt_clust_10="23.08848"></scales>
<clustering>
<clus scale="   23.088">  2 10  1 -1</clus>
<clus scale="   44.557">  2  9  1 -1</clus>
<clus scale="   81.186">  5  6 -1 -1</clus>
<clus scale="   90.499">  7  8 -1 -1</clus>
<clus scale="  157.135">  2  5  1 -1</clus>
<clus scale="   23.088">  2  5  1 -1</clus>
</clustering>
</event>
<event>
10    4  0.5389768E-005  0.2760163E+03  0.7546771E-02  0.1143009E+00
         21   -1    0    0  501  502  0.00000000000E+00  0.00000000000E+00  0.11919874358E+03  0.11919874358E+03  0.00000000000E+00 0.  1.
          2   -1    0    0  503    0 -0.00000000000E+00 -0.00000000000E+00 -0.10172307086E+04  0.10172307086E+04  0.00000000000E+00 0. -1.
         24    2    1    2    0    0 -0.13112280575E+02  0.26896783665E+02 -0.12871387392E+03  0.15584262668E+03  0.82609285658E+02 0.  0.
         23    2    1    2    0    0 -0.14224792876E+03  0.17278607232E+03 -0.49856560619E+03  0.55419192805E+03  0.92040911635E+02 0.  0.
        -13    1    3    3    0    0 -0.33141121102E+02  0.38816368560E+02 -0.42144704121E+02  0.66190788344E+02  0.00000000000E+00 0.  1.
         14    1    3    3    0    0  0.20028840527E+02 -0.11919584896E+02 -0.86569169801E+02  0.89651838335E+02  0.00000000000E+00 0. -1.
        -11    1    4    4    0    0 -0.44007270586E+02  0.10766326959E+03 -0.31759809801E+03  0.33822562195E+03  0.00000000000E+00 0.  1.
         11    1    4    4    0    0 -0.98240658171E+02  0.65122802730E+02 -0.18096750818E+03  0.21596630610E+03  0.00000000000E+00 0. -1.
         21    1    1    2  503  502 -0.69677344887E+01  0.25992683661E+02 -0.92088095301E+02  0.95939492514E+02  0.00000000000E+00 0.  1.
          1    1    1    2  501    0  0.16232794382E+03 -0.22567553965E+03 -0.17866438964E+03  0.33045540496E+03  0.00000000000E+00 0. -1.
<scales pt_clust_5="13000.00000" pt_clust_6="13000.00000" pt_clust_7="13000.00000" pt_clust_8="13000.00000" pt_clust_9="26.91039" pt_clust_10="260.21816"></scales>
<clustering>
<clus scale="   26.910">  2  9  1 -1</clus>
<clus scale="   82.609">  5  6 -1 -1</clus>
<clus scale="   89.334">  2  5  1 -1</clus>
<clus scale="   92.041">  7  8 -1 -1</clus>
<clus scale="  260.218">  1 10  2 -1</clus>
<clus scale="  260.218">  1  5  2 -1</clus>
</clustering>
</event>
<event>
10    4  0.5389768E-005  0.2073709E+03  0.7546771E-02  0.1159416E+00
          2   -1    0    0  503    0 -0.00000000000E+00  0.00000000000E+00  0.59371597440E+03  0.59371597440E+03  0.00000000000E+00 0. -1.
         21   -1    0    0  501  502  0.00000000000E+00 -0.00000000000E+00 -0.16055901277E+03  0.16055901277E+03  0.00000000000E+00 0. -1.
         23    2    1    2    0    0  0.95677323591E+02  0.31535309839E+02  0.14961403863E+03  0.20209374751E+03  0.91153147015E+02 0.  0.
         24    2    1    2    0    0 -0.15772842617E+03 -0.17024880633E+03  0.10913459613E+03  0.26861204196E+03  0.79869622108E+02 0.  0.
        -13    1    4    4    0    0 -0.33983297110E+02 -0.13975886172E+01  0.28158227438E+02  0.44155447103E+02  0.00000000000E+00 0.  1.
         14    1    4    4    0    0 -0.12374512906E+03 -0.16885121771E+03  0.80976368694E+02  0.22445659486E+03  0.00000000000E+00 0. -1.
        -11    1    3    3    0    0  0.73598801329E+02 -0.22871964696E+02  0.88150829840E+02  0.11709175517E+03  0.00000000000E+00 0.  1.
         11    1    3    3    0    0  0.22078522261E+02  0.54407274535E+02  0.61463208785E+02  0.85001992340E+02  0.00000000000E+00 0. -1.
         21    1    1    2  503  502  0.37397031978E+02 -0.32120617960E+02  0.53990526721E+02  0.73111210320E+02  0.00000000000E+00 0. -1.
          1    1    1    2  501    0  0.24654070600E+02  0.17083411445E+03  0.12041780015E+03  0.21045798738E+03  0.00000000000E+00 0. -1.
<scales pt_clust_5="13000.00000" pt_clust_6="13000.00000" pt_clust_7="13000.00000" pt_clust_8="13000.00000" pt_clust_9="49.29779" pt_clust_10="191.37277"></scales>
<clustering>
<clus scale="   49.298">  1  9  2 -1</clus>
<clus scale="   79.870">  5  6 -1 -1</clus>
<clus scale="   91.153">  7  8 -1 -1</clus>
<clus scale="  142.922">  1  7  2 -1</clus>
<clus scale="  191.373">  2 10  1 -1</clus>
<clus scale="  191.373">  2  5  1 -1</clus>
</clustering>
</event>
<event>
10    4  0.5389768E-005  0.9742174E+02  0.7546771E-02  0.1292659E+00
         21   -1    0    0  501  502  0.00000000000E+00  0.00000000000E+00  0.61942042364E+02  0.61942042364E+02  0.00000000000E+00 0. -1.
          2   -1    0    0  503    0 -0.00000000000E+00 -0.00000000000E+00 -0.71842461874E+03  0.71842461874E+03  0.00000000000E+00 0. -1.
         24    2    1    2    0    0  0.22578277947E+02  0.24304736658E+02 -0.43387128057E+03  0.44240742077E+03  0.79872016356E+02 0.  0.
         23    2    1    2    0    0 -0.42425481783E+01 -0.29275511142E+02 -0.21046318292E+03  0.23172966788E+03  0.92351680228E+02 0.  0.
        -11    1    3    3    0    0  0.62826172944E+01  0.46531244792E+02 -0.14940846810E+03  0.15661263794E+03  0.00000000000E+00 0.  1.
         12    1    3    3    0    0  0.16295660652E+02 -0.22226508134E+02 -0.28446281247E+03  0.28579478284E+03  0.00000000000E+00 0. -1.
        -11    1    4    4    0    0 -0.37548559299E+02  0.72448087397E+01 -0.45062401774E+02  0.59101621067E+02  0.00000000000E+00 0.  1.
         11    1    4    4    0    0  0.33306011120E+02 -0.36520319882E+02 -0.16540078115E+03  0.17262804681E+03  0.00000000000E+00 0. -1.
         21    1    1    2  503  502 -0.24206473733E+02 -0.18543003767E+02 -0.51595303793E+02  0.59932226163E+02  0.00000000000E+00 0. -1.
          1    1    1    2  501    0  0.58707439647E+01  0.23513778251E+02  0.39447190911E+02  0.46297346286E+02  0.00000000000E+00 0. -1.
<scales pt_clust_5="13000.00000" pt_clust_6="13000.00000" pt_clust_7="13000.00000" pt_clust_8="13000.00000" pt_clust_9="26.55403" pt_clust_10="24.23558"></scales>
<clustering>
<clus scale="   24.236">  1 10  2 -1</clus>
<clus scale="   26.554">  1  9  2 -1</clus>
<clus scale="   79.872">  5  6 -1 -1</clus>
<clus scale="   85.684">  2  5  1 -1</clus>
<clus scale="   92.352">  7  8 -1 -1</clus>
<clus scale="   24.236">  1  5  2 -1</clus>
</clustering>
</event>
<event>
10    4  0.5389768E-005  0.1041907E+03  0.7546771E-02  0.1277662E+00
         21   -1    0    0  501  502  0.00000000000E+00  0.00000000000E+00  0.12862404885E+03  0.12862404885E+03  0.00000000000E+00 0.  1.
          2   -1    0    0  503    0 -0.00000000000E+00 -0.00000000000E+00 -0.15545242997E+03  0.15545242997E+03  0.00000000000E+00 0. -1.
         24    2    1    2    0    0 -0.38077947115E+02  0.12198309949E+02 -0.89981681954E-02  0.84103073349E+02  0.73990526716E+02 0.  0.
         23    2    1    2    0    0  0.76559095917E+02 -0.13729089761E+02  0.15275563121E+02  0.11819896995E+03  0.87680502934E+02 0.  0.
        -11    1    3    3    0    0 -0.35204751666E+02  0.41135400199E+02 -0.57987245704E+01  0.54452923669E+02  0.00000000000E+00 0.  1.
         12    1    3    3    0    0 -0.28731954487E+01 -0.28937090250E+02  0.57897264022E+01  0.29650149680E+02  0.00000000000E+00 0. -1.
        -13    1    4    4    0    0  0.42748545785E+02  0.31454139678E+01 -0.34977362830E+02  0.55324024676E+02  0.00000000000E+00 0. -1.
         13    1    4    4    0    0  0.33810550131E+02 -0.16874503729E+02  0.50252925951E+02  0.62874945272E+02  0.00000000000E+00 0.  1.
         21    1    1    2  503  502 -0.10579994750E+02  0.24108729016E+02 -0.37164672376E+02  0.45545361745E+02  0.00000000000E+00 0. -1.
          1    1    1    2  501    0 -0.27901154051E+02 -0.22577949204E+02 -0.49302736962E+01  0.36229073772E+02  0.00000000000E+00 0. -1.
<scales pt_clust_5="13000.00000" pt_clust_6="13000.00000" pt_clust_7="13000.00000" pt_clust_8="13000.00000" pt_clust_9="26.32807" pt_clust_10="34.94165"></scales>
<clustering>
<clus scale="   26.328">  2  9  1 -1</clus>
<clus scale="   34.942">  1 10  2 -1</clus>
<clus scale="   73.991">  5  6 -1 -1</clus>
<clus scale="   87.681">  7  8 -1 -1</clus>
<clus scale="   92.965">  2  5  1 -1</clus>
<clus scale="   34.942">  1  5  2 -1</clus>
</clustering>
</event>
<event>
10    4  0.5389768E-005  0.2188557E+03  0.7546771E-02  0.1135848E+00
         -1   -1    0    0    0  501 -0.00000000000E+00  0.00000000000E+00  0.52494099126E+03  0.52494099126E+03  0.00000000000E+00 0.  1.
         21   -1    0    0  503  502  0.00000000000E+00 -0.00000000000E+00 -0.64167764611E+03  0.64167764611E+03  0.00000000000E+00 0. -1.
         24    2    1    2    0    0 -0.73284867605E+02 -0.18660270125E+03  0.80191872857E+02  0.22977394478E+03  0.78575373327E+02 0.  0.
         23    2    1    2    0    0  0.22391947476E+03  0.17153445617E+03 -0.50165154681E+03  0.58301697441E+03  0.93222943580E+02 0.  0.
        -11    1    3    3    0    0 -0.70935658055E+02 -0.19356093282E+03  0.71055532285E+02  0.21805180799E+03  0.00000000000E+00 0.  1.
         12    1    3    3    0    0 -0.23492095504E+01  0.69582315654E+01  0.91363405725E+01  0.11722136797E+02  0.00000000000E+00 0. -1.
        -13    1    4    4    0    0  0.10987078493E+03  0.28994375179E+02 -0.17083362041E+03  0.20517404571E+03  0.00000000000E+00 0.  1.
         13    1    4    4    0    0  0.11404868983E+03  0.14254008100E+03 -0.33081792640E+03  0.37784292870E+03  0.00000000000E+00 0. -1.
         21    1    1    2  503  501 -0.27821274579E+02  0.41704150647E+02  0.12357992764E+03  0.13336138127E+03  0.00000000000E+00 0. -1.
         -2    1    1    2    0  502 -0.12281333257E+03 -0.26635905567E+02  0.18114309146E+03  0.22046633690E+03  0.00000000000E+00 0.  1.
<scales pt_clust_5="13000.00000" pt_clust_6="13000.00000" pt_clust_7="13000.00000" pt_clust_8="13000.00000" pt_clust_9="50.13242" pt_clust_10="137.01533"></scales>
<clustering>
<clus scale="   50.132">  1  9  2 -1</clus>
<clus scale="   78.575">  5  6 -1 -1</clus>
<clus scale="   93.223">  7  8 -1 -1</clus>
<clus scale="  137.015">  2 10  1 -1</clus>
<clus scale="  213.029">  1  5  2 -1</clus>
<clus scale="  137.015">  2  5  1 -1</clus>
</clustering>
</event>
<event>
10    4  0.5389768E-005  0.1253638E+03  0.7546771E-02  0.1238132E+00
          2   -1    0    0  503    0 -0.00000000000E+00  0.00000000000E+00  0.79539219521E+02  0.79539219521E+02  0.00000000000E+00 0. -1.
         21   -1    0    0  501  502  0.00000000000E+00 -0.00000000000E+00 -0.64093948103E+03  0.64093948103E+03  0.00000000000E+00 0.  1.
         23    2    1    2    0    0  0.12411176499E+03 -0.36327168292E+02 -0.20821835211E+03  0.26101262124E+03  0.89717963218E+02 0.  0.
         24    2    1    2    0    0 -0.14198413381E+02  0.62959674618E+02 -0.28602653723E+03  0.30308264690E+03  0.76696774905E+02 0.  0.
        -13    1    4    4    0    0  0.11405547112E+02  0.53720165258E+02 -0.25887538102E+03  0.26463636477E+03  0.00000000000E+00 0.  1.
         14    1    4    4    0    0 -0.25603960493E+02  0.92395093600E+01 -0.27151156217E+02  0.38446282136E+02  0.00000000000E+00 0. -1.
        -11    1    3    3    0    0  0.67180746716E+02  0.25461700538E+02 -0.78026936332E+02  0.10606485618E+03  0.00000000000E+00 0.  1.
         11    1    3    3    0    0  0.56931018279E+02 -0.61788868830E+02 -0.13019141578E+03  0.15494776506E+03  0.00000000000E+00 0. -1.
         21    1    1    2  503  502 -0.23493395966E+02 -0.31620261709E+01  0.20302423117E+02  0.31210998829E+02  0.00000000000E+00 0. -1.
          1    1    1    2  501    0 -0.86419955648E+02 -0.23470480155E+02 -0.87457795279E+02  0.12517243358E+03  0.00000000000E+00 0. -1.
<scales pt_clust_5="13000.00000" pt_clust_6="13000.00000" pt_clust_7="13000.00000" pt_clust_8="13000.00000" pt_clust_9="23.70523" pt_clust_10="97.79642"></scales>
<clustering>
<clus scale="   23.705">  1  9  2 -1</clus>
<clus scale="   76.697">  5  6 -1 -1</clus>
<clus scale="   89.718">  7  8 -1 -1</clus>
<clus scale="   97.796">  2 10  1 -1</clus>
<clus scale="  116.401">  2  5  1 -1</clus>
<clus scale="   97.796">  2  5  1 -1</clus>
</clustering>
</event>
<event>
10    4  0.5389768E-005  0.3830338E+03  0.7546771E-02  0.1050086E+00
          2   -1    0    0  503    0 -0.00000000000E+00  0.00000000000E+00  0.43437196038E+03  0.43437196038E+03  0.00000000000E+00 0. -1.
         21   -1    0    0  501  502  0.00000000000E+00 -0.00000000000E+00 -0.84560974245E+03  0.84560974245E+03  0.00000000000E+00 0. -1.
         24    2    1    2    0    0 -0.21838380461E+03  0.23351426328E+03 -0.12764486010E+03  0.35299899157E+03  0.78068434525E+02 0.  0.
         23    2    1    2    0    0  0.39455117063E+03 -0.22810494836E+03 -0.44741756850E+03  0.64513816660E+03  0.91204603450E+02 0.  0.
        -13    1    3    3    0    0 -0.58225561295E+02  0.10122803014E+03 -0.18149681198E+02  0.11818096717E+03  0.00000000000E+00 0.  1.
         14    1    3    3    0    0 -0.16015824332E+03  0.13228623314E+03 -0.10949517890E+03  0.23481802440E+03  0.00000000000E+00 0. -1.
        -13    1    4    4    0    0  0.19800690302E+02 -0.39290558545E+02 -0.56730952335E+02  0.71792870677E+02  0.00000000000E+00 0.  1.
         13    1    4    4    0    0  0.37475048033E+03 -0.18881438982E+03 -0.39068661616E+03  0.57334529592E+03  0.00000000000E+00 0. -1.
         21    1    1    2  503  502 -0.88445014642E+02 -0.28196647307E+02  0.16709704378E+03  0.19115175535E+03  0.00000000000E+00 0. -1.
          1    1    1    2  501    0 -0.87722351375E+02  0.22787332389E+02 -0.32723972601E+01  0.90692789305E+02  0.00000000000E+00 0. -1.
<scales pt_clust_5="13000.00000" pt_clust_6="13000.00000" pt_clust_7="13000.00000" pt_clust_8="13000.00000" pt_clust_9="93.98815" pt_clust_10="90.63378"></scales>
<clustering>
<clus scale="   78.068">  5  6 -1 -1</clus>
<clus scale="   90.634">  2 10  1 -1</clus>
<clus scale="   91.205">  7  8 -1 -1</clus>
<clus scale="   93.988">  1  9  2 -1</clus>
<clus scale="  380.120">  1  5  2 -1</clus>
<clus scale="   90.634">  2  5  1 -1</clus>
</clustering>
</event>
<event>
10    4  0.5389768E-005  0.2964461E+03  0.7546771E-02  0.1087357E+00
          2   -1    0    0  503    0 -0.00000000000E+00  0.00000000000E+00  0.98808625774E+03  0.98808625774E+03  0.00000000000E+00 0. -1.
         21   -1    0    0  501  502  0.00000000000E+00 -0.00000000000E+00 -0.18417370526E+03  0.18417370526E+03  0.00000000000E+00 0. -1.
         24    2    1    2    0    0  0.14017025389E+03  0.23288727129E+03  0.13596200589E+03  0.31518938533E+03  0.83513474205E+02 0.  0.
         23    2    1    2    0    0 -0.15186643201E+03 -0.24915598442E+03  0.17131092610E+03  0.35067874874E+03  0.92119670402E+02 0.  0.
        -11    1    3    3    0    0  0.44428741846E+02  0.21553010309E+02  0.42176831730E+02  0.64940976973E+02  0.00000000000E+00 0.  1.
         12    1    3    3    0    0  0.95741512047E+02  0.21133426098E+03  0.93785174164E+02  0.25024840836E+03  0.00000000000E+00 0. -1.
        -11    1    4    4    0    0 -0.83464239556E+02 -0.20706473499E+03  0.14480588584E+03  0.26610304082E+03  0.00000000000E+00 0. -1.
         11    1    4    4    0    0 -0.68402192453E+02 -0.42091249427E+02  0.26505040262E+02  0.84575707919E+02  0.00000000000E+00 0.  1.
         21    1    1    2  503  502  0.34089127253E+02 -0.31325017624E+02  0.22923767111E+03  0.23386584869E+03  0.00000000000E+00 0. -1.
          1    1    1    2  501    0 -0.22392949138E+02  0.47593730754E+02  0.26740194937E+03  0.27252598024E+03  0.00000000000E+00 0. -1.
<scales pt_clust_5="13000.00000" pt_clust_6="13000.00000" pt_clust_7="13000.00000" pt_clust_8="13000.00000" pt_clust_9="46.29606" pt_clust_10="37.82487"></scales>
<clustering>
<clus scale="   46.296">  1  9  2 -1</clus>
<clus scale="   37.825">  2 10  1 -1</clus>
<clus scale="   83.513">  5  6 -1 -1</clus>
<clus scale="   92.120">  7  8 -1 -1</clus>
<clus scale="  293.886">  1  5  2 -1</clus>
<clus scale="   37.825">  2  5  1 -1</clus>
</clustering>
</event>
<event>
10    4  0.5389768E-005  0.1513587E+03  0.7546771E-02  0.1199981E+00
          2   -1    0    0  503    0 -0.00000000000E+00  0.00000000000E+00  0.49486803262E+03  0.49486803262E+03  0.00000000000E+00 0. -1.
         21   -1    0    0  501  502  0.00000000000E+00 -0.00000000000E+00 -0.19263595747E+03  0.19263595747E+03  0.00000000000E+00 0. -1.
         23    2    1    2    0    0 -0.87941546888E+02 -0.14967918360E+03  0.13428071534E+03  0.23653140857E+03  0.88194234815E+02 0.  0.
         24    2    1    2    0    0  0.13646797326E+02  0.66908981888E+02 -0.91834745532E+02  0.14050204507E+03  0.81511700062E+02 0.  0.
        -13    1    4    4    0    0 -0.30957510545E+02  0.44705154602E+02 -0.33857781207E+02  0.64056753394E+02  0.00000000000E+00 0.  1.
         14    1    4    4    0    0  0.44604307871E+02  0.22203827285E+02 -0.57976964326E+02  0.76445291675E+02  0.00000000000E+00 0. -1.
        -13    1    3    3    0    0 -0.45755260473E+02 -0.13718139370E+03  0.75576560234E+02  0.16316891583E+03  0.00000000000E+00 0. -1.
         13    1    3    3    0    0 -0.42186286415E+02 -0.12497789909E+02  0.58704155104E+02  0.73362492737E+02  0.00000000000E+00 0.  1.
         21    1    1    2  503  502  0.41633729395E+02  0.29787406607E+02  0.23964532597E+03  0.24505211542E+03  0.00000000000E+00 0. -1.
          1    1    1    2  501    0  0.32661020167E+02  0.52982795110E+02  0.20140779373E+02  0.65418421027E+02  0.00000000000E+00 0. -1.
<scales pt_clust_5="13000.00000" pt_clust_6="13000.00000" pt_clust_7="13000.00000" pt_clust_8="13000.00000" pt_clust_9="51.19235" pt_clust_10="70.31788"></scales>
<clustering>
<clus scale="   51.192">  1  9  2 -1</clus>
<clus scale="   70.318">  2 10  1 -1</clus>
<clus scale="   81.512">  5  6 -1 -1</clus>
<clus scale="   88.194">  7  8 -1 -1</clus>
<clus scale="  147.565">  2  5  1 -1</clus>
<clus scale="   70.318">  2  5  1 -1</clus>
</clustering>
</event>
<event>
10    4  0.5389768E-005  0.1701667E+03  0.7546771E-02  0.1177963E+00
          2   -1    0    0  503    0 -0.00000000000E+00  0.00000000000E+00  0.56210675518E+03  0.56210675518E+03  0.00000000000E+00 0. -1.
         21   -1    0    0  501  502  0.00000000000E+00 -0.00000000000E+00 -0.13884818065E+03  0.13884818065E+03  0.00000000000E+00 0. -1.
         24    2    1    2    0    0 -0.15046544896E+03  0.35332289298E+02  0.12225479200E+03  0.21184271964E+03  0.77735974310E+02 0.  0.
         23    2    1    2    0    0  0.13956017979E+03  0.21325823408E+02  0.63363389236E+00  0.16232872446E+03  0.80114784934E+02 0.  0.
        -11    1    3    3    0    0 -0.14024237475E+03  0.53046230938E+02  0.11835295995E+03  0.19102159412E+03  0.00000000000E+00 0.  1.
         12    1    3    3    0    0 -0.10223074207E+02 -0.17713941640E+02  0.39018320538E+01  0.20821125523E+02  0.00000000000E+00 0. -1.
        -13    1    4    4    0    0  0.13578310539E+02 -0.14902317093E+02  0.21632006980E+02  0.29570141999E+02  0.00000000000E+00 0.  1.
         13    1    4    4    0    0  0.12598186925E+03  0.36228140501E+02 -0.20998373088E+02  0.13275858246E+03  0.00000000000E+00 0. -1.
         21    1    1    2  503  502 -0.20605407306E+02  0.28624499881E+02  0.57517373497E+02  0.67469941883E+02  0.00000000000E+00 0. -1.
          1    1    1    2  501    0  0.31510676470E+02 -0.85282612587E+02  0.24285277514E+03  0.25931354985E+03  0.00000000000E+00 0. -1.
<scales pt_clust_5="13000.00000" pt_clust_6="13000.00000" pt_clust_7="13000.00000" pt_clust_8="13000.00000" pt_clust_9="35.26960" pt_clust_10="73.98628"></scales>
<clustering>
<clus scale="   35.270">  1  9  2 -1</clus>
<clus scale="   73.986">  2 10  1 -1</clus>
<clus scale="   77.736">  5  6 -1 -1</clus>
<clus scale="   80.115">  7  8 -1 -1</clus>
<clus scale="  169.060">  1  5  2 -1</clus>
<clus scale="   73.986">  2  5  1 -1</clus>
</clustering>
</event>
<event>
10    4  0.5389768E-005  0.1861048E+03  0.7546771E-02  0.1163079E+00
          2   -1    0    0  503    0 -0.00000000000E+00  0.00000000000E+00  0.24619503687E+03  0.24619503687E+03  0.00000000000E+00 0. -1.
         21   -1    0    0  501  502  0.00000000000E+00 -0.00000000000E+00 -0.71599732381E+03  0.71599732381E+03  0.00000000000E+00 0.  1.
         23    2    1    2    0    0  0.98985907705E+02 -0.17659829499E+03 -0.12244945696E+03  0.25330716880E+03  0.90473667661E+02 0.  0.
         24    2    1    2    0    0 -0.10763349210E+03  0.52147052894E+02 -0.46920767975E+03  0.49090688422E+03  0.80804941023E+02 0.  0.
        -13    1    4    4    0    0 -0.88577068211E+02  0.45668674269E+02 -0.45616259480E+03  0.46692166123E+03  0.00000000000E+00 0.  1.
         14    1    4    4    0    0 -0.19056423885E+02  0.64783786252E+01 -0.13045084941E+02  0.23985222992E+02  0.00000000000E+00 0. -1.
        -13    1    3    3    0    0  0.61537706045E+02 -0.26511162428E+02 -0.34533927528E+02  0.75381185644E+02  0.00000000000E+00 0. -1.
         13    1    3    3    0    0  0.37448201660E+02 -0.15008713256E+03 -0.87915529428E+02  0.17792598315E+03  0.00000000000E+00 0.  1.
         21    1    1    2  503  502 -0.32800215231E+02  0.31172009327E+02  0.10524796863E+03  0.11456300967E+03  0.00000000000E+00 0. -1.
          1    1    1    2  501    0  0.41447799621E+02  0.93279232764E+02  0.16606881128E+02  0.10341529799E+03  0.00000000000E+00 0. -1.
<scales pt_clust_5="13000.00000" pt_clust_6="13000.00000" pt_clust_7="13000.00000" pt_clust_8="13000.00000" pt_clust_9="45.24984" pt_clust_10="110.36006"></scales>
<clustering>
<clus scale="   45.250">  1  9  2 -1</clus>
<clus scale="   80.805">  5  6 -1 -1</clus>
<clus scale="   90.474">  7  8 -1 -1</clus>
<clus scale="  110.360">  2 10  1 -1</clus>
<clus scale="  181.601">  2  5  1 -1</clus>
<clus scale="  110.360">  2  5  1 -1</clus>
</clustering>
</event>
<event>
10    4  0.5389768E-005  0.1181529E+03  0.7546771E-02  0.1250077E+00
         21   -1    0    0  501  502  0.00000000000E+00  0.00000000000E+00  0.95345975451E+02  0.95345975451E+02  0.00000000000E+00 0. -1.
          2   -1    0    0  503    0 -0.00000000000E+00 -0.00000000000E+00 -0.57366067744E+03  0.57366067744E+03  0.00000000000E+00 0. -1.
         24    2    1    2    0    0  0.42772849876E+02 -0.25518065712E+01 -0.59264076606E+02  0.10740761761E+03  0.78664713448E+02 0.  0.
         23    2    1    2    0    0 -0.10469299409E+03  0.68899790292E+02 -0.38364506657E+02  0.15933749647E+03  0.90602418822E+02 0.  0.
        -13    1    3    3    0    0  0.19136605555E+02 -0.39827208501E+02 -0.38602257239E+02  0.58673251769E+02  0.00000000000E+00 0.  1.
         14    1    3    3    0    0  0.23636244321E+02  0.37275401930E+02 -0.20661819366E+02  0.48734365843E+02  0.00000000000E+00 0. -1.
        -13    1    4    4    0    0 -0.84389981450E+02  0.69725441114E+02  0.69366410114E+01  0.10968784389E+03  0.00000000000E+00 0. -1.
         13    1    4    4    0    0 -0.20303012636E+02 -0.82565082271E+00 -0.45301147669E+02  0.49649652582E+02  0.00000000000E+00 0.  1.
         21    1    1    2  503  502  0.39140839089E+02 -0.38388180776E+02 -0.35182390612E+03  0.35606982268E+03  0.00000000000E+00 0. -1.
          1    1    1    2  501    0  0.22779305121E+02 -0.27959802944E+02 -0.28862212608E+02  0.46191716131E+02  0.00000000000E+00 0. -1.
<scales pt_clust_5="13000.00000" pt_clust_6="13000.00000" pt_clust_7="13000.00000" pt_clust_8="13000.00000" pt_clust_9="55.70176" pt_clust_10="36.06449"></scales>
<clustering>
<clus scale="   36.064">  1 10  2 -1</clus>
<clus scale="   55.702">  2  9  1 -1</clus>
<clus scale="   78.665">  5  6 -1 -1</clus>
<clus scale="   90.602">  7  8 -1 -1</clus>
<clus scale="  109.268">  2  5  1 -1</clus>
<clus scale="   36.064">  1  5  2 -1</clus>
</clustering>
</event>
<event>
10    4  0.5389768E-005  0.1282891E+03  0.7546771E-02  0.1231271E+00
          4   -1    0    0  503    0 -0.00000000000E+00  0.00000000000E+00  0.24332607687E+03  0.24332607687E+03  0.00000000000E+00 0. -1.
         21   -1    0    0  501  502  0.00000000000E+00 -0.00000000000E+00 -0.31788030252E+03  0.31788030252E+03  0.00000000000E+00 0. -1.
         23    2    1    2    0    0 -0.24348165915E+02  0.69164174174E+02  0.17263395179E+03  0.20588301841E+03  0.84904768906E+02 0.  0.
         24    2    1    2    0    0  0.64988644398E+02 -0.96242612113E+02 -0.19404860192E+03  0.23983274352E+03  0.79866893448E+02 0.  0.
        -11    1    4    4    0    0  0.23842373390E+02  0.10720958039E+02 -0.41137665481E+02  0.48741206708E+02  0.00000000000E+00 0.  1.
         12    1    4    4    0    0  0.41146271008E+02 -0.10696357015E+03 -0.15291093644E+03  0.19109153681E+03  0.00000000000E+00 0. -1.
        -13    1    3    3    0    0 -0.30081661616E+02  0.20395982744E+02  0.12570288462E+02  0.38456659108E+02  0.00000000000E+00 0.  1.
         13    1    3    3    0    0  0.57334957016E+01  0.48768191430E+02  0.16006366333E+03  0.16742635930E+03  0.00000000000E+00 0. -1.
         21    1    1    2  503  502 -0.14344098974E+02  0.19808486905E+02  0.23635952747E+02  0.34011580250E+02  0.00000000000E+00 0. -1.
          3    1    1    2  501    0 -0.26296379509E+02  0.72699510334E+01 -0.76775528277E+02  0.81479037215E+02  0.00000000000E+00 0. -1.
<scales pt_clust_5="13000.00000" pt_clust_6="13000.00000" pt_clust_7="13000.00000" pt_clust_8="13000.00000" pt_clust_9="24.45668" pt_clust_10="27.49277"></scales>
<clustering>
<clus scale="   24.457">  1  9  2 -1</clus>
<clus scale="   27.493">  2 10  1 -1</clus>
<clus scale="   79.867">  5  6 -1 -1</clus>
<clus scale="   84.905">  7  8 -1 -1</clus>
<clus scale="  125.012">  2  5  1 -1</clus>
<clus scale="   27.493">  2  5  1 -1</clus>
</clustering>
</event>
<event>
10    4  0.5389768E-005  0.1441958E+03  0.7546771E-02  0.1208790E+00
         21   -1    0    0  501  502  0.00000000000E+00  0.00000000000E+00  0.11437100154E+03  0.11437100154E+03  0.00000000000E+00 0. -1.
          2   -1    0    0  503    0 -0.00000000000E+00 -0.00000000000E+00 -0.83406627016E+03  0.83406627016E+03  0.00000000000E+00 0. -1.
         23    2    1    2    0    0  0.11193052291E+03  0.50207390324E+02 -0.48187621208E+03  0.50289796064E+03  0.75182784225E+02 0.  0.
         24    2    1    2    0    0 -0.10452402992E+03  0.78146194766E+02 -0.17321547882E+02  0.15444840297E+03  0.80759968864E+02 0.  0.
        -13    1    4    4    0    0 -0.25309229392E+02  0.31583900315E+02  0.30672851103E+02  0.50783103945E+02  0.00000000000E+00 0.  1.
         14    1    4    4    0    0 -0.79214800531E+02  0.46562294451E+02 -0.47994398986E+02  0.10366529902E+03  0.00000000000E+00 0. -1.
        -13    1    3    3    0    0  0.24393179045E+02  0.36064344277E+02 -0.77300153861E+02  0.88718531880E+02  0.00000000000E+00 0. -1.
         13    1    3    3    0    0  0.87537343867E+02  0.14143046046E+02 -0.40457605822E+03  0.41417942876E+03  0.00000000000E+00 0.  1.
         21    1    1    2  503  502  0.13196615156E+02 -0.63792930327E+02 -0.21320039396E+03  0.22293069909E+03  0.00000000000E+00 0. -1.
          1    1    1    2  501    0 -0.20603108145E+02 -0.64560654763E+02 -0.72971147033E+01  0.68160209005E+02  0.00000000000E+00 0. -1.
<scales pt_clust_5="13000.00000" pt_clust_6="13000.00000" pt_clust_7="13000.00000" pt_clust_8="13000.00000" pt_clust_9="65.14360" pt_clust_10="71.27187"></scales>
<clustering>
<clus scale="   65.144">  2  9  1 -1</clus>
<clus scale="   71.272">  1 10  2 -1</clus>
<clus scale="   75.183">  7  8 -1 -1</clus>
<clus scale="   80.760">  5  6 -1 -1</clus>
<clus scale="  141.148">  2  7  1 -1</clus>
<clus scale="   71.272">  1  5  2 -1</clus>
</clustering>
</event>
<event>
10    4  0.5389768E-005  0.1001427E+03  0.7546771E-02  0.1286160E+00
         21   -1    0    0  501  502  0.00000000000E+00  0.00000000000E+00  0.90407564133E+02  0.90407564133E+02  0.00000000000E+00 0.  1.
          4   -1    0    0  503    0 -0.00000000000E+00 -0.00000000000E+00 -0.29622570305E+03  0.29622570305E+03  0.00000000000E+00 0. -1.
         24    2    1    2    0    0 -0.14788166484E+02  0.41959359466E+01 -0.16732736154E+03  0.18585113104E+03  0.79409704975E+02 0.  0.
         23    2    1    2    0    0  0.24913560825E+02  0.62206368764E+02 -0.17079798053E+02  0.11478674410E+03  0.91618553202E+02 0.  0.
        -13    1    3    3    0    0  0.14033018882E+02 -0.25648577600E+02 -0.28015782141E+02  0.40492705526E+02  0.00000000000E+00 0.  1.
         14    1    3    3    0    0 -0.28821185366E+02  0.29844513547E+02 -0.13931157939E+03  0.14535842551E+03  0.00000000000E+00 0. -1.
        -11    1    4    4    0    0  0.41127295743E+01  0.22670374845E+02 -0.52786881708E+02  0.57596139807E+02  0.00000000000E+00 0. -1.
         11    1    4    4    0    0  0.20800831250E+02  0.39535993919E+02  0.35707083655E+02  0.57190604289E+02  0.00000000000E+00 0.  1.
         21    1    1    2  503  502 -0.18742431753E+02 -0.38243761804E+02 -0.33477021228E+02  0.54171717853E+02  0.00000000000E+00 0. -1.
          3    1    1    2  501    0  0.86170374127E+01 -0.28158542907E+02  0.12066041894E+02  0.31823674197E+02  0.00000000000E+00 0. -1.
<scales pt_clust_5="13000.00000" pt_clust_6="13000.00000" pt_clust_7="13000.00000" pt_clust_8="13000.00000" pt_clust_9="45.93878" pt_clust_10="29.44753"></scales>
<clustering>
<clus scale="   29.448">  1 10  2 -1</clus>
<clus scale="   45.939">  2  9  1 -1</clus>
<clus scale="   79.410">  5  6 -1 -1</clus>
<clus scale="   89.110">  2  5  1 -1</clus>
<clus scale="   91.619">  7  8 -1 -1</clus>
<clus scale="   29.448">  1  5  2 -1</clus>
</clustering>
</event>
<event>
10    4  0.5389768E-005  0.9105697E+02  0.7546771E-02  0.1306725E+00
         21   -1    0    0  501  502  0.00000000000E+00  0.00000000000E+00  0.11705313291E+03  0.11705313291E+03  0.00000000000E+00 0. -1.
          2   -1    0    0  503    0 -0.00000000000E+00 -0.00000000000E+00 -0.39675360253E+03  0.39675360253E+03  0.00000000000E+00 0. -1.
         24    2    1    2    0    0  0.29178366829E+02 -0.81622780639E+01 -0.29427626096E+03  0.30658913224E+03  0.80500797291E+02 0.  0.
         23    2    1    2    0    0 -0.52346401838E+01  0.21412302922E+02  0.64073074872E+02  0.11317723477E+03  0.90652299321E+02 0.  0.
        -13    1    3    3    0    0  0.63696296121E+01 -0.36363382604E+02 -0.67546733709E+02  0.76976808265E+02  0.00000000000E+00 0.  1.
         14    1    3    3    0    0  0.22808737217E+02  0.28201104540E+02 -0.22672952725E+03  0.22961232397E+03  0.00000000000E+00 0. -1.
        -11    1    4    4    0    0  0.30855254884E+02 -0.47764145187E+01  0.60944470565E+02  0.68476925910E+02  0.00000000000E+00 0. -1.
         11    1    4    4    0    0 -0.36089895068E+02  0.26188717440E+02  0.31286043068E+01  0.44700308859E+02  0.00000000000E+00 0.  1.
         21    1    1    2  503  502 -0.24385477445E+02  0.17156087626E+02 -0.55539432838E+02  0.63036588208E+02  0.00000000000E+00 0. -1.
          1    1    1    2  501    0  0.44175079952E+00 -0.30406112484E+02  0.60421493143E+01  0.31003780229E+02  0.00000000000E+00 0. -1.
<scales pt_clust_5="13000.00000" pt_clust_6="13000.00000" pt_clust_7="13000.00000" pt_clust_8="13000.00000" pt_clust_9="29.81582" pt_clust_10="29.77517"></scales>
<clustering>
<clus scale="   29.816">  2  9  1 -1</clus>
<clus scale="   29.775">  1 10  2 -1</clus>
<clus scale="   80.501">  5  6 -1 -1</clus>
<clus scale="   80.956">  2  5  1 -1</clus>
<clus scale="   90.652">  7  8 -1 -1</clus>
<clus scale="   29.775">  1  5  2 -1</clus>
</clustering>
</event>
<event>
10    4  0.5389768E-005  0.3110929E+03  0.7546771E-02  0.1115056E+00
          2   -1    0    0  503    0 -0.00000000000E+00  0.00000000000E+00  0.67791188090E+03  0.67791188090E+03  0.00000000000E+00 0. -1.
         21   -1    0    0  501  502  0.00000000000E+00 -0.00000000000E+00 -0.56413382767E+03  0.56413382767E+03  0.00000000000E+00 0. -1.
         24    2    1    2    0    0 -0.36561139459E+02  0.80214936069E+02 -0.10664392424E+03  0.16364693379E+03  0.87385579330E+02 0.  0.
         23    2    1    2    0    0  0.31992816958E+03  0.19153861996E+03 -0.19120077902E+03  0.42866143688E+03  0.90287390813E+02 0.  0.
        -11    1    3    3    0    0  0.17206289672E+02  0.41473604843E+02 -0.92492466463E+01  0.45843918533E+02  0.00000000000E+00 0.  1.
         12    1    3    3    0    0 -0.53767429130E+02  0.38741331227E+02 -0.97394677593E+02  0.11780301526E+03  0.00000000000E+00 0. -1.
        -11    1    4    4    0    0  0.13358208764E+03  0.12412114220E+03 -0.64330050377E+02  0.19336128739E+03  0.00000000000E+00 0.  1.
         11    1    4    4    0    0  0.18634608194E+03  0.67417477758E+02 -0.12687072865E+03  0.23530014949E+03  0.00000000000E+00 0. -1.
         21    1    1    2  503  502 -0.21473310698E+03 -0.16761325981E+03  0.44397904660E+03  0.52088569372E+03  0.00000000000E+00 0. -1.
          1    1    1    2  501    0 -0.68633923138E+02 -0.10414029622E+03 -0.32356290107E+02  0.12885164419E+03  0.00000000000E+00 0. -1.
<scales pt_clust_5="13000.00000" pt_clust_6="13000.00000" pt_clust_7="13000.00000" pt_clust_8="13000.00000" pt_clust_9="297.70284" pt_clust_10="121.36851"></scales>
<clustering>
<clus scale="   87.386">  5  6 -1 -1</clus>
<clus scale="   90.287">  7  8 -1 -1</clus>
<clus scale="  124.127">  1  5  2 -1</clus>
<clus scale="  121.369">  2 10  1 -1</clus>
<clus scale="  297.703">  1  9  2 -1</clus>
<clus scale="  121.369">  2  5  1 -1</clus>
</clustering>
</event>
<event>
10    4  0.5389768E-005  0.1636483E+03  0.7546771E-02  0.1206114E+00
          2   -1    0    0  503    0 -0.00000000000E+00  0.00000000000E+00  0.12715528316E+04  0.12715528316E+04  0.00000000000E+00 0. -1.
         21   -1    0    0  501  502  0.00000000000E+00 -0.00000000000E+00 -0.75996117454E+02  0.75996117454E+02  0.00000000000E+00 0. -1.
         24    2    1    2    0    0 -0.61920816253E+02  0.11081646316E+02  0.48067145516E+02  0.11299643998E+03  0.80627257174E+02 0.  0.
         23    2    1    2    0    0 -0.13885378542E+03  0.31614410963E+02  0.35042578961E+03  0.38921698740E+03  0.91715781338E+02 0.  0.
        -11    1    3    3    0    0 -0.34226018288E+02  0.37886838729E+02 -0.41732435640E+00  0.51058858549E+02  0.00000000000E+00 0.  1.
         12    1    3    3    0    0 -0.27694797966E+02 -0.26805192413E+02  0.48484469872E+02  0.61937581430E+02  0.00000000000E+00 0. -1.
        -13    1    4    4    0    0 -0.27725262520E+02 -0.28080095050E+02  0.52429595566E+02  0.65620457261E+02  0.00000000000E+00 0.  1.
         13    1    4    4    0    0 -0.11112852290E+03  0.59694506013E+02  0.29799619404E+03  0.32359653013E+03  0.00000000000E+00 0. -1.
         21    1    1    2  503  502  0.14818198191E+03  0.51978636764E+02  0.60283844855E+03  0.62295575565E+03  0.00000000000E+00 0. -1.
          1    1    1    2  501    0  0.52592619761E+02 -0.94674694044E+02  0.19422533049E+03  0.22237976605E+03  0.00000000000E+00 0. -1.
<scales pt_clust_5="13000.00000" pt_clust_6="13000.00000" pt_clust_7="13000.00000" pt_clust_8="13000.00000" pt_clust_9="135.53216" pt_clust_10="101.70656"></scales>
<clustering>
<clus scale="   80.627">  5  6 -1 -1</clus>
<clus scale="   91.716">  7  8 -1 -1</clus>
<clus scale="  102.263">  1  5  2 -1</clus>
<clus scale="  101.707">  2 10  1 -1</clus>
<clus scale="  135.532">  1  9  2 -1</clus>
<clus scale="  101.707">  2  5  1 -1</clus>
</clustering>
</event>
<event>
10    4  0.5389768E-005  0.1072469E+03  0.7546771E-02  0.1268093E+00
          4   -1    0    0  503    0 -0.00000000000E+00  0.00000000000E+00  0.68499620693E+02  0.68499620693E+02  0.00000000000E+00 0. -1.
         21   -1    0    0  501  502  0.00000000000E+00 -0.00000000000E+00 -0.42378487405E+03  0.42378487405E+03  0.00000000000E+00 0.  1.
         24    2    1    2    0    0 -0.28713123880E+02  0.73202936214E+02 -0.11853327631E+03  0.16537885282E+03  0.84361804233E+02 0.  0.
         23    2    1    2    0    0  0.52142268556E+02 -0.75985655242E+01 -0.14347290989E+03  0.17741827992E+03  0.90090042789E+02 0.  0.
        -11    1    3    3    0    0 -0.20890315483E+01  0.75212038513E+02 -0.46243070318E+02  0.88315549834E+02  0.00000000000E+00 0.  1.
         12    1    3    3    0    0 -0.26624092332E+02 -0.20091022986E+01 -0.72290205992E+02  0.77063302984E+02  0.00000000000E+00 0. -1.
        -13    1    4    4    0    0  0.20327583017E+01 -0.39771650688E+02 -0.85456193867E+02  0.94279782430E+02  0.00000000000E+00 0.  1.
         13    1    4    4    0    0  0.50109510254E+02  0.32173085164E+02 -0.58016716018E+02  0.83138497487E+02  0.00000000000E+00 0. -1.
         21    1    1    2  503  502  0.11191562739E+02  0.20444655608E+02 -0.12273989878E+02  0.26341713061E+02  0.00000000000E+00 0. -1.
          3    1    1    2  501    0 -0.34620707414E+02 -0.86049026298E+02 -0.81005077283E+02  0.12314564895E+03  0.00000000000E+00 0. -1.
<scales pt_clust_5="13000.00000" pt_clust_6="13000.00000" pt_clust_7="13000.00000" pt_clust_8="13000.00000" pt_clust_9="23.30740" pt_clust_10="84.82396"></scales>
<clustering>
<clus scale="   23.307">  1  9  2 -1</clus>
<clus scale="   84.362">  5  6 -1 -1</clus>
<clus scale="   84.824">  2 10  1 -1</clus>
<clus scale="   90.090">  7  8 -1 -1</clus>
<clus scale="  102.482">  1  5  2 -1</clus>
<clus scale="   84.824">  2  5  1 -1</clus>
</clustering>
</event>
<event>
10    4  0.5389768E-005  0.1069806E+03  0.7546771E-02  0.1270434E+00
         21   -1    0    0  503  502  0.00000000000E+00  0.00000000000E+00  0.10865395039E+03  0.10865395039E+03  0.00000000000E+00 0.  1.
         -1   -1    0    0    0  501 -0.00000000000E+00 -0.00000000000E+00 -0.61275486177E+03  0.61275486177E+03  0.00000000000E+00 0.  1.
         23    2    1    2    0    0  0.49606177984E+02 -0.15555906439E+02 -0.32258004511E+03  0.33888568421E+03  0.89904740357E+02 0.  0.
         24    2    1    2    0    0  0.24675300401E+02  0.69792582920E+02  0.45066708670E+02  0.11783708312E+03  0.79841686147E+02 0.  0.
        -13    1    4    4    0    0 -0.11904037698E+02  0.66579816150E+02  0.12552154350E+02  0.68790512506E+02  0.00000000000E+00 0.  1.
         14    1    4    4    0    0  0.36579338099E+02  0.32127667703E+01  0.32514554320E+02  0.49046570612E+02  0.00000000000E+00 0. -1.
        -11    1    3    3    0    0 -0.88203328672E+01 -0.20827906080E+02 -0.18563675627E+02  0.29261066221E+02  0.00000000000E+00 0.  1.
         11    1    3    3    0    0  0.58426510851E+02  0.52719996408E+01 -0.30401636948E+03  0.30962461799E+03  0.00000000000E+00 0. -1.
         21    1    1    2  503  501  0.76270066638E+01 -0.22368649932E+02 -0.13759213672E+03  0.13960703356E+03  0.00000000000E+00 0.  1.
         -2    1    1    2    0  502 -0.81908485049E+02 -0.31868026549E+02 -0.88995438222E+02  0.12507901128E+03  0.00000000000E+00 0.  1.
<scales pt_clust_5="13000.00000" pt_clust_6="13000.00000" pt_clust_7="13000.00000" pt_clust_8="13000.00000" pt_clust_9="23.63319" pt_clust_10="88.27701"></scales>
<clustering>
<clus scale="   23.633">  2  9  1 -1</clus>
<clus scale="   79.842">  5  6 -1 -1</clus>
<clus scale="   88.277">  1 10  2 -1</clus>
<clus scale="   89.905">  7  8 -1 -1</clus>
<clus scale="   98.675">  1  5  2 -1</clus>
<clus scale="   88.277">  1  5  2 -1</clus>
</clustering>
</event>
<event>
10    4  0.5389768E-005  0.2323997E+03  0.7546771E-02  0.1149337E+00
         21   -1    0    0  501  502  0.00000000000E+00  0.00000000000E+00  0.41460018884E+03  0.41460018884E+03  0.00000000000E+00 0. -1.
          2   -1    0    0  503    0 -0.00000000000E+00 -0.00000000000E+00 -0.97108991723E+03  0.97108991723E+03  0.00000000000E+00 0. -1.
         23    2    1    2    0    0  0.48514815150E+02 -0.68073821385E+02 -0.27619916379E+02  0.12741816404E+03  0.92112954033E+02 0.  0.
         24    2    1    2    0    0  0.16921214701E+03  0.13647115313E+03  0.28742058951E+03  0.36940808735E+03  0.81207224977E+02 0.  0.
        -11    1    4    4    0    0  0.83587378843E+02  0.11579882436E+03  0.15951319368E+03  0.21410435909E+03  0.00000000000E+00 0.  1.
         12    1    4    4    0    0  0.85624768170E+02  0.20672328773E+02  0.12790739583E+03  0.15530372825E+03  0.00000000000E+00 0. -1.
        -13    1    3    3    0    0  0.54982197940E+02 -0.87568875109E+02 -0.18938618555E+02  0.10511908129E+03  0.00000000000E+00 0.  1.
         13    1    3    3    0    0 -0.64673827894E+01  0.19495053724E+02 -0.86812978233E+01  0.22299082756E+02  0.00000000000E+00 0. -1.
         21    1    1    2  503  502  0.51407321531E+02 -0.49248098082E+02 -0.94665586435E+02  0.11844687048E+03  0.00000000000E+00 0. -1.
          1    1    1    2  501    0 -0.26913428369E+03 -0.19149233666E+02 -0.72162481507E+03  0.77041698420E+03  0.00000000000E+00 0. -1.
<scales pt_clust_5="13000.00000" pt_clust_6="13000.00000" pt_clust_7="13000.00000" pt_clust_8="13000.00000" pt_clust_9="71.19050" pt_clust_10="217.74997"></scales>
<clustering>
<clus scale="   71.191">  2  9  1 -1</clus>
<clus scale="   81.207">  5  6 -1 -1</clus>
<clus scale="   92.113">  7  8 -1 -1</clus>
<clus scale="  128.692">  2  7  1 -1</clus>
<clus scale="  217.750">  1 10  2 -1</clus>
<clus scale="  217.750">  1  5  2 -1</clus>
</clustering>
</event>
<event>
10    4  0.5389768E-005  0.9755756E+02  0.7546771E-02  0.1289274E+00
          4   -1    0    0  503    0 -0.00000000000E+00  0.00000000000E+00  0.91792859272E+02  0.91792859272E+02  0.00000000000E+00 0. -1.
         21   -1    0    0  501  502  0.00000000000E+00 -0.00000000000E+00 -0.33049056166E+03  0.33049056166E+03  0.00000000000E+00 0. -1.
         24    2    1    2    0    0  0.28741246033E+02 -0.70425023068E+01 -0.10652329822E+03  0.13673634873E+03  0.80460921809E+02 0.  0.
         23    2    1    2    0    0 -0.57499878172E+02 -0.15552805913E+02 -0.17053544563E+03  0.20089427907E+03  0.87909313429E+02 0.  0.
        -11    1    3    3    0    0  0.32868432869E+01  0.32210322421E+02 -0.70869818735E+02  0.77915591616E+02  0.00000000000E+00 0.  1.
         12    1    3    3    0    0  0.25454402746E+02 -0.39252824728E+02 -0.35653479489E+02  0.58820757119E+02  0.00000000000E+00 0. -1.
        -11    1    4    4    0    0 -0.12072227778E+02  0.28045744474E+02 -0.10768346471E+03  0.11192868729E+03  0.00000000000E+00 0. -1.
         11    1    4    4    0    0 -0.45427650394E+02 -0.43598550387E+02 -0.62851980919E+02  0.88965591785E+02  0.00000000000E+00 0.  1.
         21    1    1    2  503  502  0.32819275125E+02 -0.16095785015E+02  0.18110834039E+02  0.40794379816E+02  0.00000000000E+00 0. -1.
          3    1    1    2  501    0 -0.40606429865E+01  0.38691093235E+02  0.20250207425E+02  0.43858413308E+02  0.00000000000E+00 0. -1.
<scales pt_clust_5="13000.00000" pt_clust_6="13000.00000" pt_clust_7="13000.00000" pt_clust_8="13000.00000" pt_clust_9="36.55378" pt_clust_10="33.00422"></scales>
<clustering>
<clus scale="   36.554">  1  9  2 -1</clus>
<clus scale="   33.004">  2 10  1 -1</clus>
<clus scale="   80.461">  5  6 -1 -1</clus>
<clus scale="   87.909">  7  8 -1 -1</clus>
<clus scale="   90.903">  1  5  2 -1</clus>
<clus scale="   33.004">  2  5  1 -1</clus>
</clustering>
</event>
<event>
10    4  0.5389768E-005  0.1820248E+03  0.7546771E-02  0.1166974E+00
          2   -1    0    0  503    0 -0.00000000000E+00  0.00000000000E+00  0.11153526932E+04  0.11153526932E+04  0.00000000000E+00 0. -1.
         21   -1    0    0  501  502  0.00000000000E+00 -0.00000000000E+00 -0.94376952096E+02  0.94376952096E+02  0.00000000000E+00 0.  1.
         24    2    1    2    0    0 -0.84309426889E+02  0.77514226093E+02  0.35543895908E+03  0.38188795258E+03  0.79906320057E+02 0.  0.
         23    2    1    2    0    0  0.12415740930E+03 -0.14561546553E+03  0.70642892442E+02  0.22283085730E+03  0.89689724189E+02 0.  0.
        -13    1    3    3    0    0 -0.52285044506E+02  0.16372156816E+02  0.73796091892E+02  0.91911025325E+02  0.00000000000E+00 0.  1.
         14    1    3    3    0    0 -0.32024382383E+02  0.61142069277E+02  0.28164286719E+03  0.28997692726E+03  0.00000000000E+00 0. -1.
        -13    1    4    4    0    0  0.98532723535E+02 -0.53966396906E+02  0.59183752293E+02  0.12697947132E+03  0.00000000000E+00 0. -1.
         13    1    4    4    0    0  0.25624685769E+02 -0.91649068622E+02  0.11459140149E+02  0.95851385973E+02  0.00000000000E+00 0.  1.
         21    1    1    2  503  502 -0.11169645849E+02  0.76503344147E+02  0.48510921478E+03  0.49123158786E+03  0.00000000000E+00 0. -1.
          1    1    1    2  501    0 -0.28678336567E+02 -0.84021047116E+01  0.10978467481E+03  0.11377924755E+03  0.00000000000E+00 0. -1.
<scales pt_clust_5="13000.00000" pt_clust_6="13000.00000" pt_clust_7="13000.00000" pt_clust_8="13000.00000" pt_clust_9="77.18246" pt_clust_10="29.88383"></scales>
<clustering>
<clus scale="   29.884">  2 10  1 -1</clus>
<clus scale="   77.182">  1  9  2 -1</clus>
<clus scale="   79.906">  5  6 -1 -1</clus>
<clus scale="   89.690">  7  8 -1 -1</clus>
<clus scale="  177.409">  1  5  2 -1</clus>
<clus scale="   29.884">  2  5  1 -1</clus>
</clustering>
</event>
<event>
10    4  0.5389768E-005  0.4776939E+03  0.7546771E-02  0.1063655E+00
         21   -1    0    0  501  502  0.00000000000E+00  0.00000000000E+00  0.14764440837E+03  0.14764440837E+03  0.00000000000E+00 0. -1.
          2   -1    0    0  503    0 -0.00000000000E+00 -0.00000000000E+00 -0.25282312712E+04  0.25282312712E+04  0.00000000000E+00 0. -1.
         24    2    1    2    0    0  0.10257653445E+03  0.35462672894E+01 -0.92484013755E+02  0.16068971570E+03  0.82057117293E+02 0.  0.
         23    2    1    2    0    0 -0.54135578487E+03  0.49686487343E+02 -0.99587519202E+03  0.11387860979E+04  0.97629636219E+02 0.  0.
        -13    1    3    3    0    0  0.97049386732E+02  0.26511993795E+02 -0.50623049442E+02  0.11262398685E+03  0.00000000000E+00 0.  1.
         14    1    3    3    0    0  0.55271477184E+01 -0.22965726506E+02 -0.41860964313E+02  0.48065728842E+02  0.00000000000E+00 0. -1.
        -13    1    4    4    0    0 -0.47015338946E+03  0.29146716326E+02 -0.91472607485E+03  0.10288914096E+04  0.00000000000E+00 0. -1.
         13    1    4    4    0    0 -0.71202395409E+02  0.20539771017E+02 -0.81149117174E+02  0.10989468833E+03  0.00000000000E+00 0.  1.
         21    1    1    2  503  502  0.50196845761E+02  0.32010248352E+02 -0.32748500099E+03  0.33285252770E+03  0.00000000000E+00 0.  1.
          1    1    1    2  501    0  0.38858240466E+03 -0.85243002984E+02 -0.96474265601E+03  0.10435473382E+04  0.00000000000E+00 0. -1.
<scales pt_clust_5="13000.00000" pt_clust_6="13000.00000" pt_clust_7="13000.00000" pt_clust_8="13000.00000" pt_clust_9="59.53469" pt_clust_10="467.61083"></scales>
<clustering>
<clus scale="   59.535">  2  9  1 -1</clus>
<clus scale="   82.057">  5  6 -1 -1</clus>
<clus scale="   97.630">  7  8 -1 -1</clus>
<clus scale="  133.738">  2  5  1 -1</clus>
<clus scale="  467.611">  1 10  2 -1</clus>
<clus scale="  467.611">  1  5  2 -1</clus>
</clustering>
</event>
<event>
10    4  0.5389768E-005  0.1174848E+03  0.7546771E-02  0.1257902E+00
          2   -1    0    0  503    0 -0.00000000000E+00  0.00000000000E+00  0.38903029261E+03  0.38903029261E+03  0.00000000000E+00 0. -1.
         21   -1    0    0  501  502  0.00000000000E+00 -0.00000000000E+00 -0.29760740227E+03  0.29760740227E+03  0.00000000000E+00 0. -1.
         24    2    1    2    0    0  0.71870569572E+02 -0.16026567471E+02  0.11291382556E+03  0.15650826519E+03  0.79517768039E+02 0.  0.
         23    2    1    2    0    0 -0.62477249890E+02  0.59392295268E+01 -0.21291438886E+01  0.12253447947E+03  0.10522112052E+03 0.  0.
        -13    1    3    3    0    0  0.91746198640E+01  0.28798523629E+02  0.42229435495E+02  0.51931241417E+02  0.00000000000E+00 0.  1.
         14    1    3    3    0    0  0.62695949708E+02 -0.44825091100E+02  0.70684390064E+02  0.10457702377E+03  0.00000000000E+00 0. -1.
        -13    1    4    4    0    0 -0.32534483412E+02 -0.28147584641E+02 -0.43466505493E+02  0.61156489695E+02  0.00000000000E+00 0.  1.
         13    1    4    4    0    0 -0.29942766478E+02  0.34086814168E+02  0.41337361605E+02  0.61377989775E+02  0.00000000000E+00 0. -1.
         21    1    1    2  503  502 -0.37644108869E+02  0.16596525574E+02  0.19093110662E+03  0.19531311034E+03  0.00000000000E+00 0.  1.
          1    1    1    2  501    0  0.28250789188E+02 -0.65091876298E+01 -0.21029289796E+03  0.21228183989E+03  0.00000000000E+00 0. -1.
<scales pt_clust_5="13000.00000" pt_clust_6="13000.00000" pt_clust_7="13000.00000" pt_clust_8="13000.00000" pt_clust_9="40.41774" pt_clust_10="28.99097"></scales>
<clustering>
<clus scale="   28.991">  2 10  1 -1</clus>
<clus scale="   40.418">  1  9  2 -1</clus>
<clus scale="   79.518">  5  6 -1 -1</clus>
<clus scale="   95.154">  1  5  2 -1</clus>
<clus scale="  105.221">  7  8 -1 -1</clus>
<clus scale="   28.991">  2  5  1 -1</clus>
</clustering>
</event>
<event>
10    4  0.5389768E-005  0.2082211E+03  0.7546771E-02  0.1144303E+00
         21   -1    0    0  501  502  0.00000000000E+00  0.00000000000E+00  0.90732423514E+03  0.90732423514E+03  0.00000000000E+00 0.  1.
          2   -1    0    0  503    0 -0.00000000000E+00 -0.00000000000E+00 -0.33157852531E+03  0.33157852531E+03  0.00000000000E+00 0. -1.
         24    2    1    2    0    0 -0.15088419210E+03 -0.48956995637E+02 -0.10851340473E+03  0.20799179297E+03  0.79514779050E+02 0.  0.
         23    2    1    2    0    0  0.17477177462E+03  0.29710725752E+02  0.82060636465E+03  0.84486909203E+03  0.94768541891E+02 0.  0.
        -13    1    3    3    0    0 -0.42662681511E+02 -0.33880020164E+02 -0.69121573121E+00  0.54483373052E+02  0.00000000000E+00 0.  1.
         14    1    3    3    0    0 -0.10822151059E+03 -0.15076975473E+02 -0.10782218900E+03  0.15350841992E+03  0.00000000000E+00 0. -1.
        -13    1    4    4    0    0  0.69781281017E+02 -0.98487747564E+01  0.16042093549E+03  0.17521787034E+03  0.00000000000E+00 0. -1.
         13    1    4    4    0    0  0.10499049361E+03  0.39559500508E+02  0.66018542917E+03  0.66965122169E+03  0.00000000000E+00 0.  1.
         21    1    1    2  503  502 -0.39132268431E+02  0.37714749035E+02 -0.14925157095E+03  0.15883881188E+03  0.00000000000E+00 0. -1.
          1    1    1    2  501    0  0.15244685910E+02 -0.18468479150E+02  0.12904320863E+02  0.27203063569E+02  0.00000000000E+00 0. -1.
<scales pt_clust_5="13000.00000" pt_clust_6="13000.00000" pt_clust_7="13000.00000" pt_clust_8="13000.00000" pt_clust_9="54.21975" pt_clust_10="23.94755"></scales>
<clustering>
<clus scale="   23.948">  1 10  2 -1</clus>
<clus scale="   54.220">  2  9  1 -1</clus>
<clus scale="   79.515">  5  6 -1 -1</clus>
<clus scale="   94.769">  7  8 -1 -1</clus>
<clus scale="  201.736">  2  5  1 -1</clus>
<clus scale="   23.948">  1  5  2 -1</clus>
</clustering>
</event>
<event>
10    4  0.5389768E-005  0.1024612E+03  0.7546771E-02  0.1278937E+00
         21   -1    0    0  503  502  0.00000000000E+00  0.00000000000E+00  0.41121728754E+02  0.41121728754E+02  0.00000000000E+00 0. -1.
         -1   -1    0    0    0  501 -0.00000000000E+00 -0.00000000000E+00 -0.51288463191E+03  0.51288463191E+03  0.00000000000E+00 0.  1.
         23    2    1    2    0    0 -0.33742759284E+02  0.67475287112E+02 -0.28447758328E+03  0.30645574363E+03  0.85417441088E+02 0.  0.
         24    2    1    2    0    0  0.69529986535E+01 -0.35982571742E+02 -0.13657461045E+03  0.16092038173E+03  0.76809214138E+02 0.  0.
        -11    1    4    4    0    0 -0.22435995570E+02 -0.22408689079E+02 -0.12083142928E+03  0.12492300647E+03  0.00000000000E+00 0.  1.
         12    1    4    4    0    0  0.29388994224E+02 -0.13573882664E+02 -0.15743181166E+02  0.35997375255E+02  0.00000000000E+00 0. -1.
        -13    1    3    3    0    0 -0.27268800113E+02 -0.40220591658E+01 -0.16329291594E+03  0.16560296137E+03  0.00000000000E+00 0. -1.
         13    1    3    3    0    0 -0.64739591714E+01  0.71497346278E+02 -0.12118466734E+03  0.14085278226E+03  0.00000000000E+00 0.  1.
         21    1    1    2  503  501  0.28175749353E+02 -0.11125217658E+02 -0.57603763198E+02  0.65083307031E+02  0.00000000000E+00 0.  1.
         -2    1    1    2    0  502 -0.13859887218E+01 -0.20367497711E+02  0.68930537698E+01  0.21546928274E+02  0.00000000000E+00 0.  1.
<scales pt_clust_5="13000.00000" pt_clust_6="13000.00000" pt_clust_7="13000.00000" pt_clust_8="13000.00000" pt_clust_9="31.27043" pt_clust_10="20.41460"></scales>
<clustering>
<clus scale="   20.415">  1 10  2 -1</clus>
<clus scale="   31.270">  1  9  2 -1</clus>
<clus scale="   76.809">  5  6 -1 -1</clus>
<clus scale="   85.417">  7  8 -1 -1</clus>
<clus scale="   95.403">  1  5  2 -1</clus>
<clus scale="   20.415">  1  5  2 -1</clus>
</clustering>
</event>
<event>
10    4  0.5389768E-005  0.9453039E+02  0.7546771E-02  0.1297804E+00
          2   -1    0    0  503    0 -0.00000000000E+00  0.00000000000E+00  0.70361230604E+02  0.70361230604E+02  0.00000000000E+00 0. -1.
         21   -1    0    0  501  502  0.00000000000E+00 -0.00000000000E+00 -0.44178727856E+03  0.44178727856E+03  0.00000000000E+00 0.  1.
         24    2    1    2    0    0 -0.21743468493E+02 -0.57803520589E+01 -0.10583984088E+03  0.13502452479E+03  0.80767316948E+02 0.  0.
         23    2    1    2    0    0  0.31351184607E+02  0.13447693456E+02 -0.15551610496E+03  0.18314531647E+03  0.90516356582E+02 0.  0.
        -13    1    3    3    0    0 -0.11769216842E+02  0.30912458039E+02 -0.85986835708E+02  0.92129422240E+02  0.00000000000E+00 0.  1.
         14    1    3    3    0    0 -0.99742516505E+01 -0.36692810098E+02 -0.19853005168E+02  0.42895102554E+02  0.00000000000E+00 0. -1.
        -13    1    4    4    0    0  0.11528683736E+02  0.46361923908E+02 -0.43092895619E+02  0.64337673178E+02  0.00000000000E+00 0. -1.
         13    1    4    4    0    0  0.19822500871E+02 -0.32914230452E+02 -0.11242320934E+03  0.11880764330E+03  0.00000000000E+00 0.  1.
         21    1    1    2  503  502  0.44102121926E+02 -0.56263572893E+02 -0.96808280029E+02  0.12034296770E+03  0.00000000000E+00 0.  1.
          1    1    1    2  501    0 -0.53709838040E+02  0.48596231496E+02 -0.13261822090E+02  0.73635700194E+02  0.00000000000E+00 0. -1.
<scales pt_clust_5="13000.00000" pt_clust_6="13000.00000" pt_clust_7="13000.00000" pt_clust_8="13000.00000" pt_clust_9="71.48837" pt_clust_10="63.26500"></scales>
<clustering>
<clus scale="   71.488">  2  9  1 -1</clus>
<clus scale="   63.265">  2 10  1 -1</clus>
<clus scale="   80.767">  5  6 -1 -1</clus>
<clus scale="   85.242">  1  5  2 -1</clus>
<clus scale="   90.516">  7  8 -1 -1</clus>
<clus scale="   71.488">  2  5  1 -1</clus>
</clustering>
</event>
<event>
10    4  0.5389768E-005  0.1299114E+03  0.7546771E-02  0.1233042E+00
         -3   -1    0    0    0  501 -0.00000000000E+00  0.00000000000E+00  0.82261092362E+02  0.82261092362E+02  0.00000000000E+00 0.  1.
         21   -1    0    0  503  502  0.00000000000E+00 -0.00000000000E+00 -0.64893967754E+03  0.64893967754E+03  0.00000000000E+00 0.  1.
         23    2    1    2    0    0  0.26271494265E+02 -0.62855987713E+02 -0.11941629100E+03  0.16934879592E+03  0.98882240678E+02 0.  0.
         24    2    1    2    0    0 -0.12993858469E+03  0.68678108319E+02 -0.28902784425E+03  0.33393588141E+03  0.79845850168E+02 0.  0.
        -13    1    4    4    0    0 -0.11914935875E+03  0.59782082063E+02 -0.17985523269E+03  0.22387132856E+03  0.00000000000E+00 0.  1.
         14    1    4    4    0    0 -0.10789225945E+02  0.88960262560E+01 -0.10917261156E+03  0.11006455285E+03  0.00000000000E+00 0. -1.
        -13    1    3    3    0    0  0.16046244541E+02 -0.87354237872E+02 -0.69364687635E+02  0.11269296663E+03  0.00000000000E+00 0.  1.
         13    1    3    3    0    0  0.10225249724E+02  0.24498250159E+02 -0.50051603365E+02  0.56655829287E+02  0.00000000000E+00 0. -1.
         21    1    1    2  503  501  0.17784299478E+02  0.43762201712E+02 -0.80117304956E+01  0.47912414176E+02  0.00000000000E+00 0.  1.
         -4    1    1    2    0  502  0.85882790950E+02 -0.49584322318E+02 -0.15022271943E+03  0.18000367839E+03  0.00000000000E+00 0.  1.
<scales pt_clust_5="13000.00000" pt_clust_6="13000.00000" pt_clust_7="13000.00000" pt_clust_8="13000.00000" pt_clust_9="47.23782" pt_clust_10="98.25876"></scales>
<clustering>
<clus scale="   47.238">  1  9  2 -1</clus>
<clus scale="   79.846">  5  6 -1 -1</clus>
<clus scale="   98.259">  2 10  1 -1</clus>
<clus scale="   98.882">  7  8 -1 -1</clus>
<clus scale="  116.080">  2  5  1 -1</clus>
<clus scale="   98.259">  2  5  1 -1</clus>
</clustering>
</event>
<event>
10    4  0.5389768E-005  0.1445254E+03  0.7546771E-02  0.1214292E+00
         21   -1    0    0  503  502  0.00000000000E+00  0.00000000000E+00  0.12897042231E+03  0.12897042231E+03  0.00000000000E+00 0. -1.
          2   -1    0    0  502    0 -0.00000000000E+00 -0.00000000000E+00 -0.95683907395E+03  0.95683907395E+03  0.00000000000E+00 0. -1.
         23    2    1    2    0    0 -0.82468197593E+02 -0.80514501873E+01  0.37446941669E+02  0.13018480133E+03  0.93166408065E+02 0.  0.
         24    2    1    2    0    0 -0.10722157425E+03  0.22887284695E+02 -0.10678450278E+03  0.17170230273E+03  0.77836090244E+02 0.  0.
        -13    1    4    4    0    0 -0.59958494326E+02 -0.26817625276E+02 -0.56755092401E+02  0.86806374079E+02  0.00000000000E+00 0.  1.
         14    1    4    4    0    0 -0.47263079923E+02  0.49704909971E+02 -0.50029410377E+02  0.84895928652E+02  0.00000000000E+00 0. -1.
        -13    1    3    3    0    0 -0.94856534364E+02 -0.25981324170E+02  0.16064858303E+02  0.99653755521E+02  0.00000000000E+00 0. -1.
         13    1    3    3    0    0  0.12388336771E+02  0.17929873982E+02  0.21382083365E+02  0.30531045806E+02  0.00000000000E+00 0.  1.
         21    1    1    2  503  501  0.38997499752E+02  0.15978950132E+02 -0.12209401685E+03  0.12916300084E+03  0.00000000000E+00 0.  1.
          1    1    1    2  501    0  0.15069227209E+03 -0.30814784640E+02 -0.63643707368E+03  0.65475939136E+03  0.00000000000E+00 0. -1.
<scales pt_clust_5="13000.00000" pt_clust_6="13000.00000" pt_clust_7="13000.00000" pt_clust_8="13000.00000" pt_clust_9="28.49124" pt_clust_10="133.38573"></scales>
<clustering>
<clus scale="   28.491">  9 10 -1 -1</clus>
<clus scale="   77.836">  5  6 -1 -1</clus>
<clus scale="   93.166">  7  8 -1 -1</clus>
<clus scale="  124.683">  2  7  1 -1</clus>
<clus scale="  133.386">  1  9  2 -1</clus>
<clus scale="  133.386">  1  5  2 -1</clus>
</clustering>
</event>
<event>
10    4  0.5389768E-005  0.9444747E+02  0.7546771E-02  0.1292525E+00
          2   -1    0    0  503    0 -0.00000000000E+00  0.00000000000E+00  0.49665933248E+03  0.49665933248E+03  0.00000000000E+00 0. -1.
         21   -1    0    0  501  502  0.00000000000E+00 -0.00000000000E+00 -0.32310458967E+03  0.32310458967E+03  0.00000000000E+00 0. -1.
         23    2    1    2    0    0 -0.18906426816E+02 -0.10624656138E+01  0.49181411471E+02  0.10497543564E+03  0.90787934469E+02 0.  0.
         24    2    1    2    0    0  0.33587552495E+02 -0.29986501117E+02 -0.28032668153E+03  0.29802616447E+03  0.90604814443E+02 0.  0.
        -13    1    4    4    0    0 -0.10517062444E+02  0.20234050713E+02 -0.23908026901E+02  0.33039660425E+02  0.00000000000E+00 0.  1.
         14    1    4    4    0    0  0.44104614940E+02 -0.50220551830E+02 -0.25641865463E+03  0.26498650405E+03  0.00000000000E+00 0. -1.
        -13    1    3    3    0    0  0.46025720637E+01 -0.38263552480E+02  0.47184510343E+02  0.60923403831E+02  0.00000000000E+00 0. -1.
         13    1    3    3    0    0 -0.23508998879E+02  0.37201086866E+02  0.19969011280E+01  0.44052031808E+02  0.00000000000E+00 0.  1.
         21    1    1    2  503  502 -0.59803882373E+01  0.59265028065E+02  0.16839427145E+03  0.17861897786E+03  0.00000000000E+00 0. -1.
          1    1    1    2  501    0 -0.87007374422E+01 -0.28216061334E+02  0.23630574142E+03  0.23814334418E+03  0.00000000000E+00 0. -1.
<scales pt_clust_5="13000.00000" pt_clust_6="13000.00000" pt_clust_7="13000.00000" pt_clust_8="13000.00000" pt_clust_9="59.13468" pt_clust_10="29.52710"></scales>
<clustering>
<clus scale="   29.527">  2 10  1 -1</clus>
<clus scale="   59.135">  1  9  2 -1</clus>
<clus scale="   90.605">  5  6 -1 -1</clus>
<clus scale="   90.788">  7  8 -1 -1</clus>
<clus scale="   94.271">  2  5  1 -1</clus>
<clus scale="   29.527">  2  5  1 -1</clus>
</clustering>
</event>
<event>
10    4  0.5389768E-005  0.1600671E+03  0.7546771E-02  0.1219004E+00
         -3   -1    0    0    0  501 -0.00000000000E+00  0.00000000000E+00  0.15141751488E+03  0.15141751488E+03  0.00000000000E+00 0.  1.
         21   -1    0    0  503  502  0.00000000000E+00 -0.00000000000E+00 -0.41374743256E+03  0.41374743256E+03  0.00000000000E+00 0. -1.
         24    2    1    2    0    0 -0.28631857196E+01  0.11680994485E+02  0.29665070400E+02  0.84506541390E+02  0.78209306807E+02 0.  0.
         23    2    1    2    0    0 -0.12956777361E+03 -0.78694453035E+01 -0.45620903104E+02  0.16783540167E+03  0.96113053891E+02 0.  0.
        -11    1    3    3    0    0  0.31010175927E+02  0.25642233417E+02  0.54894959749E+01  0.40611448037E+02  0.00000000000E+00 0.  1.
         12    1    3    3    0    0 -0.33873361646E+02 -0.13961238931E+02  0.24175574425E+02  0.43895093353E+02  0.00000000000E+00 0. -1.
        -13    1    4    4    0    0 -0.12400018429E+03 -0.37990008349E+02 -0.28644928751E+02  0.13281497800E+03  0.00000000000E+00 0. -1.
         13    1    4    4    0    0 -0.55675893162E+01  0.30120563045E+02 -0.16975974353E+02  0.35020423672E+02  0.00000000000E+00 0.  1.
         21    1    1    2  503  501  0.99093756333E+01  0.38503547552E+02 -0.66672352092E+01  0.40313408748E+02  0.00000000000E+00 0.  1.
         -4    1    1    2    0  502  0.12252158369E+03 -0.42315096734E+02 -0.23970684977E+03  0.27250959563E+03  0.00000000000E+00 0.  1.
<scales pt_clust_5="13000.00000" pt_clust_6="13000.00000" pt_clust_7="13000.00000" pt_clust_8="13000.00000" pt_clust_9="39.75826" pt_clust_10="127.99900"></scales>
<clustering>
<clus scale="   39.758">  1  9  2 -1</clus>
<clus scale="   78.209">  5  6 -1 -1</clus>
<clus scale="   83.085">  1  5  2 -1</clus>
<clus scale="   96.113">  7  8 -1 -1</clus>
<clus scale="  127.999">  2 10  1 -1</clus>
<clus scale="  127.999">  2  5  1 -1</clus>
</clustering>
</event>
<event>
10    4  0.5389768E-005  0.1045415E+03  0.7546771E-02  0.1276346E+00
         21   -1    0    0  501  502  0.00000000000E+00  0.00000000000E+00  0.37593610949E+02  0.37593610949E+02  0.00000000000E+00 0.  1.
          2   -1    0    0  503    0 -0.00000000000E+00 -0.00000000000E+00 -0.64951426912E+03  0.64951426912E+03  0.00000000000E+00 0. -1.
         23    2    1    2    0    0 -0.15244870833E+01 -0.56630676756E+02 -0.46747121729E+03  0.47954393541E+03  0.90684559788E+02 0.  0.
         24    2    1    2    0    0  0.21095232963E+02  0.37081021153E+02 -0.97831778842E+02  0.13263763930E+03  0.78750716970E+02 0.  0.
        -11    1    4    4    0    0  0.49461093734E+02  0.22865808996E+02 -0.78248175243E+02  0.95352094593E+02  0.00000000000E+00 0.  1.
         12    1    4    4    0    0 -0.28365860770E+02  0.14215212158E+02 -0.19583603599E+02  0.37285544704E+02  0.00000000000E+00 0. -1.
        -11    1    3    3    0    0 -0.41409519312E+02 -0.62721979713E+01 -0.21391851247E+03  0.21797985855E+03  0.00000000000E+00 0. -1.
         11    1    3    3    0    0  0.39885032228E+02 -0.50358478785E+02 -0.25355270482E+03  0.26156407686E+03  0.00000000000E+00 0.  1.
         21    1    1    2  503  502 -0.32883385596E+02 -0.16302924663E+01 -0.32201929624E+02  0.46053655374E+02  0.00000000000E+00 0. -1.
          1    1    1    2  501    0  0.13312639716E+02  0.21179948069E+02 -0.14415732421E+02  0.28872649994E+02  0.00000000000E+00 0. -1.
<scales pt_clust_5="13000.00000" pt_clust_6="13000.00000" pt_clust_7="13000.00000" pt_clust_8="13000.00000" pt_clust_9="30.01807" pt_clust_10="25.01633"></scales>
<clustering>
<clus scale="   25.016">  1 10  2 -1</clus>
<clus scale="   30.018">  1  9  2 -1</clus>
<clus scale="   78.751">  5  6 -1 -1</clus>
<clus scale="   90.685">  7  8 -1 -1</clus>
<clus scale="   94.376">  1  5  2 -1</clus>
<clus scale="   25.016">  1  5  2 -1</clus>
</clustering>
</event>
<event>
10    4  0.5389768E-005  0.1062597E+03  0.7546771E-02  0.1276948E+00
          2   -1    0    0  503    0 -0.00000000000E+00  0.00000000000E+00  0.65725276002E+03  0.65725276002E+03  0.00000000000E+00 0. -1.
         21   -1    0    0  501  502  0.00000000000E+00 -0.00000000000E+00 -0.17736122927E+03  0.17736122927E+03  0.00000000000E+00 0. -1.
         24    2    1    2    0    0  0.30823274678E+02 -0.38107386568E+02  0.11189166611E+03  0.14618987174E+03  0.80308694933E+02 0.  0.
         23    2    1    2    0    0 -0.22684225287E+02 -0.33485702188E+01 -0.46066438268E+02  0.11214367532E+03  0.99640855982E+02 0.  0.
        -11    1    3    3    0    0  0.38893233022E+02 -0.21152929224E+02  0.13883436016E+02  0.46399135609E+02  0.00000000000E+00 0.  1.
         12    1    3    3    0    0 -0.80699583442E+01 -0.16954457344E+02  0.98008230097E+02  0.99790736135E+02  0.00000000000E+00 0. -1.
        -13    1    4    4    0    0 -0.18253351125E+02 -0.30915951797E+02  0.19516815593E+02  0.40864250803E+02  0.00000000000E+00 0.  1.
         13    1    4    4    0    0 -0.44308741615E+01  0.27567381578E+02 -0.65583253861E+02  0.71279424520E+02  0.00000000000E+00 0. -1.
         21    1    1    2  503  502  0.53542158933E+01  0.90801960311E+02  0.48241025636E+03  0.49091070376E+03  0.00000000000E+00 0. -1.
          1    1    1    2  501    0 -0.13493265284E+02 -0.49346003524E+02 -0.68343953459E+02  0.85369738469E+02  0.00000000000E+00 0. -1.
<scales pt_clust_5="13000.00000" pt_clust_6="13000.00000" pt_clust_7="13000.00000" pt_clust_8="13000.00000" pt_clust_9="88.84404" pt_clust_10="51.15756"></scales>
<clustering>
<clus scale="   51.158">  2 10  1 -1</clus>
<clus scale="   80.309">  5  6 -1 -1</clus>
<clus scale="   88.844">  1  9  2 -1</clus>
<clus scale="   88.844">  1  5  2 -1</clus>
<clus scale="   99.641">  7  8 -1 -1</clus>
<clus scale="   51.158">  2  5  1 -1</clus>
</clustering>
</event>
<event>
10    4  0.5389768E-005  0.1703023E+03  0.7546771E-02  0.1178663E+00
         -3   -1    0    0    0  501 -0.00000000000E+00  0.00000000000E+00  0.62106795817E+03  0.62106795817E+03  0.00000000000E+00 0.  1.
         21   -1    0    0  503  502  0.00000000000E+00 -0.00000000000E+00 -0.14421952875E+03  0.14421952875E+03  0.00000000000E+00 0.  1.
         24    2    1    2    0    0  0.51056124455E+02  0.12855885492E+03  0.18298022953E+03  0.24345238169E+03  0.81567093408E+02 0.  0.
         23    2    1    2    0    0 -0.95667379419E+02 -0.76156919976E+02 -0.41576646497E+02  0.15740137752E+03  0.89969173416E+02 0.  0.
        -13    1    3    3    0    0  0.54115937015E+02  0.10705716343E+03  0.18620131621E+03  0.22149650345E+03  0.00000000000E+00 0.  1.
         14    1    3    3    0    0 -0.30598125599E+01  0.21501691490E+02 -0.32210866802E+01  0.21955878239E+02  0.00000000000E+00 0. -1.
        -13    1    4    4    0    0 -0.10824429728E+03 -0.47416655484E+02 -0.43609034735E+02  0.12596394334E+03  0.00000000000E+00 0.  1.
         13    1    4    4    0    0  0.12576917859E+02 -0.28740264492E+02  0.20323882377E+01  0.31437434180E+02  0.00000000000E+00 0. -1.
         21    1    1    2  503  501  0.44135547289E+02  0.26260272470E+02  0.21140187155E+03  0.21755068315E+03  0.00000000000E+00 0.  1.
         -4    1    1    2    0  502  0.47570767592E+00 -0.78662207410E+02  0.12404297483E+03  0.14688304455E+03  0.00000000000E+00 0.  1.
<scales pt_clust_5="13000.00000" pt_clust_6="13000.00000" pt_clust_7="13000.00000" pt_clust_8="13000.00000" pt_clust_9="51.35707" pt_clust_10="71.54224"></scales>
<clustering>
<clus scale="   51.357">  1  9  2 -1</clus>
<clus scale="   71.542">  2 10  1 -1</clus>
<clus scale="   81.567">  5  6 -1 -1</clus>
<clus scale="   89.969">  7  8 -1 -1</clus>
<clus scale="  166.017">  1  5  2 -1</clus>
<clus scale="   71.542">  2  5  1 -1</clus>
</clustering>
</event>
<event>
10    4  0.5389768E-005  0.2127389E+03  0.7546771E-02  0.1140314E+00
         21   -1    0    0  501  502  0.00000000000E+00  0.00000000000E+00  0.59251630902E+02  0.59251630902E+02  0.00000000000E+00 0.  1.
          2   -1    0    0  503    0 -0.00000000000E+00 -0.00000000000E+00 -0.11431909657E+04  0.11431909657E+04  0.00000000000E+00 0. -1.
         24    2    1    2    0    0 -0.21268734428E+03 -0.59601689213E+02 -0.51148544560E+03  0.56268935329E+03  0.78826895607E+02 0.  0.
         23    2    1    2    0    0  0.17087586561E+03  0.16856242638E+01 -0.32532531598E+03  0.37838014243E+03  0.90186297115E+02 0.  0.
        -13    1    3    3    0    0 -0.20528666711E+03 -0.42393599140E+02 -0.49567794948E+03  0.53817883881E+03  0.00000000000E+00 0.  1.
         14    1    3    3    0    0 -0.74006771657E+01 -0.17208090073E+02 -0.15807496122E+02  0.24510514481E+02  0.00000000000E+00 0. -1.
        -11    1    4    4    0    0  0.75628108313E+02 -0.68088548550E+01 -0.61357845999E+02  0.97625593658E+02  0.00000000000E+00 0.  1.
         11    1    4    4    0    0  0.95247757300E+02  0.84944791188E+01 -0.26396746998E+03  0.28075454877E+03  0.00000000000E+00 0. -1.
         21    1    1    2  503  502  0.21915033298E+02  0.46172560707E+02 -0.21943145504E+03  0.22530498775E+03  0.00000000000E+00 0. -1.
          1    1    1    2  501    0  0.19896445365E+02  0.11743504242E+02 -0.27697118216E+02  0.36068113168E+02  0.00000000000E+00 0. -1.
<scales pt_clust_5="13000.00000" pt_clust_6="13000.00000" pt_clust_7="13000.00000" pt_clust_8="13000.00000" pt_clust_9="52.13479" pt_clust_10="23.10365"></scales>
<clustering>
<clus scale="   23.104">  1 10  2 -1</clus>
<clus scale="   52.135">  2  9  1 -1</clus>
<clus scale="   78.827">  5  6 -1 -1</clus>
<clus scale="   90.186">  7  8 -1 -1</clus>
<clus scale="  208.178">  2  5  1 -1</clus>
<clus scale="   23.104">  1  5  2 -1</clus>
</clustering>
</event>
<event>
10    4  0.5389768E-005  0.2069212E+03  0.7546771E-02  0.1145040E+00
         21   -1    0    0  501  502  0.00000000000E+00  0.00000000000E+00  0.47109222744E+03  0.47109222744E+03  0.00000000000E+00 0. -1.
          2   -1    0    0  503    0 -0.00000000000E+00 -0.00000000000E+00 -0.71314384549E+03  0.71314384549E+03  0.00000000000E+00 0. -1.
         23    2    1    2    0    0  0.17169079344E+03  0.18765747694E+03 -0.11254406961E+03  0.29271517547E+03  0.91230198601E+02 0.  0.
         24    2    1    2    0    0 -0.22078083516E+03  0.22137432697E+02  0.23136994000E+03  0.33024773970E+03  0.79355386333E+02 0.  0.
        -11    1    4    4    0    0 -0.18065996153E+02 -0.12224086686E+02  0.55685682188E+02  0.59805549183E+02  0.00000000000E+00 0.  1.
         12    1    4    4    0    0 -0.20271483901E+03  0.34361519383E+02  0.17568425781E+03  0.27044219052E+03  0.00000000000E+00 0. -1.
        -11    1    3    3    0    0  0.80782193525E+02  0.99361460674E+02 -0.10527811186E+03  0.16577678817E+03  0.00000000000E+00 0. -1.
         11    1    3    3    0    0  0.90908599920E+02  0.88296016268E+02 -0.72659577535E+01  0.12693838730E+03  0.00000000000E+00 0.  1.
         21    1    1    2  503  502 -0.30690704786E+02 -0.11737940826E+03 -0.41156912195E+03  0.42907923160E+03  0.00000000000E+00 0. -1.
          1    1    1    2  501    0  0.79780746506E+02 -0.92415501376E+02  0.50691633515E+02  0.13219392617E+03  0.00000000000E+00 0. -1.
<scales pt_clust_5="13000.00000" pt_clust_6="13000.00000" pt_clust_7="13000.00000" pt_clust_8="13000.00000" pt_clust_9="121.32537" pt_clust_10="132.39513"></scales>
<clustering>
<clus scale="   79.355">  5  6 -1 -1</clus>
<clus scale="   91.230">  7  8 -1 -1</clus>
<clus scale="  121.325">  2  9  1 -1</clus>
<clus scale="  132.395">  1 10  2 -1</clus>
<clus scale="  201.967">  1  5  2 -1</clus>
<clus scale="  132.395">  1  5  2 -1</clus>
</clustering>
</event>
<event>
10    4  0.5389768E-005  0.1254994E+03  0.7546771E-02  0.1252336E+00
          2   -1    0    0  502    0 -0.00000000000E+00  0.00000000000E+00  0.58414971101E+03  0.58414971101E+03  0.00000000000E+00 0. -1.
         21   -1    0    0  503  502  0.00000000000E+00 -0.00000000000E+00 -0.87840713663E+02  0.87840713663E+02  0.00000000000E+00 0.  1.
         23    2    1    2    0    0 -0.16500826951E+02 -0.50659996051E+01  0.22610558287E+03  0.24259602284E+03  0.86204141734E+02 0.  0.
         24    2    1    2    0    0 -0.10462503874E+03  0.44624318753E+02  0.28554719289E+02  0.14381541412E+03  0.83245256856E+02 0.  0.
        -11    1    4    4    0    0 -0.87309306023E+02  0.17950552064E+02 -0.14481576818E+02  0.90304226394E+02  0.00000000000E+00 0.  1.
         12    1    4    4    0    0 -0.17315732713E+02  0.26673766689E+02  0.43036296107E+02  0.53511187722E+02  0.00000000000E+00 0. -1.
        -13    1    3    3    0    0  0.19361040950E+02 -0.35766734500E+02  0.10116954568E+03  0.10903846191E+03  0.00000000000E+00 0. -1.
         13    1    3    3    0    0 -0.35861867902E+02  0.30700734895E+02  0.12493603719E+03  0.13355756093E+03  0.00000000000E+00 0.  1.
         21    1    1    2  503  501  0.38863170244E+02  0.10465740023E+02  0.22258376210E+02  0.45992532298E+02  0.00000000000E+00 0. -1.
          1    1    1    2  501    0  0.82262695443E+02 -0.50024059172E+02  0.21939031898E+03  0.23958645542E+03  0.00000000000E+00 0. -1.
<scales pt_clust_5="13000.00000" pt_clust_6="13000.00000" pt_clust_7="13000.00000" pt_clust_8="13000.00000" pt_clust_9="40.24770" pt_clust_10="93.91661"></scales>
<clustering>
<clus scale="   40.248">  2  9  1 -1</clus>
<clus scale="   83.245">  5  6 -1 -1</clus>
<clus scale="   86.204">  7  8 -1 -1</clus>
<clus scale="   87.163">  1  7  2 -1</clus>
<clus scale="   93.917">  2 10  1 -1</clus>
<clus scale="   40.248">  2  5  1 -1</clus>
</clustering>
</event>
<event>
10    4  0.5389768E-005  0.1366422E+03  0.7546771E-02  0.1220468E+00
          2   -1    0    0  503    0 -0.00000000000E+00  0.00000000000E+00  0.19707719309E+03  0.19707719309E+03  0.00000000000E+00 0. -1.
         21   -1    0    0  501  502  0.00000000000E+00 -0.00000000000E+00 -0.26793421184E+03  0.26793421184E+03  0.00000000000E+00 0.  1.
         24    2    1    2    0    0 -0.76391466724E+02 -0.21945869492E+02 -0.49703535048E+02  0.12314216075E+03  0.79851568440E+02 0.  0.
         23    2    1    2    0    0  0.13505372710E+03  0.44501608848E+02 -0.10962800440E+03  0.20127475076E+03  0.90957811928E+02 0.  0.
        -13    1    3    3    0    0 -0.75587911272E+02 -0.76199845691E+01 -0.66561212117E+02  0.10100490807E+03  0.00000000000E+00 0.  1.
         14    1    3    3    0    0 -0.80355545136E+00 -0.14325884923E+02  0.16857677070E+02  0.22137252684E+02  0.00000000000E+00 0. -1.
        -11    1    4    4    0    0  0.13209099460E+03  0.21647609665E+02 -0.11626060121E+03  0.17729404178E+03  0.00000000000E+00 0.  1.
         11    1    4    4    0    0  0.29627325039E+01  0.22853999183E+02  0.66325968116E+01  0.23980708976E+02  0.00000000000E+00 0. -1.
         21    1    1    2  503  502 -0.65770178685E+01  0.30153675945E+02  0.94854294816E+01  0.32287376937E+02  0.00000000000E+00 0. -1.
          1    1    1    2  501    0 -0.52085242510E+02 -0.52709415300E+02  0.78989091218E+02  0.10830711648E+03  0.00000000000E+00 0. -1.
<scales pt_clust_5="13000.00000" pt_clust_6="13000.00000" pt_clust_7="13000.00000" pt_clust_8="13000.00000" pt_clust_9="30.86262" pt_clust_10="66.59463"></scales>
<clustering>
<clus scale="   30.863">  1  9  2 -1</clus>
<clus scale="   66.595">  2 10  1 -1</clus>
<clus scale="   79.852">  5  6 -1 -1</clus>
<clus scale="   90.958">  7  8 -1 -1</clus>
<clus scale="  129.515">  1  5  2 -1</clus>
<clus scale="   66.595">  2  5  1 -1</clus>
</clustering>
</event>
<event>
10    4  0.5389768E-005  0.1147184E+03  0.7546771E-02  0.1257176E+00
         21   -1    0    0  501  502  0.00000000000E+00  0.00000000000E+00  0.13086020455E+03  0.13086020455E+03  0.00000000000E+00 0. -1.
          2   -1    0    0  503    0 -0.00000000000E+00 -0.00000000000E+00 -0.35249454704E+03  0.35249454704E+03  0.00000000000E+00 0. -1.
         24    2    1    2    0    0  0.41912603821E+02  0.35094316113E+02 -0.13822788478E+03  0.16838920259E+03  0.79118253505E+02 0.  0.
         23    2    1    2    0    0  0.36206320530E+02 -0.10188779169E+03  0.27987052751E+01  0.14272490612E+03  0.93115768452E+02 0.  0.
        -13    1    3    3    0    0  0.32230961710E+02 -0.18656348952E+02 -0.81698907976E+02  0.89786445600E+02  0.00000000000E+00 0.  1.
         14    1    3    3    0    0  0.96816421115E+01  0.53750665065E+02 -0.56528976802E+02  0.78602756995E+02  0.00000000000E+00 0. -1.
        -13    1    4    4    0    0  0.11460632206E+02 -0.47985814109E+02 -0.44827084944E+02  0.66659222849E+02  0.00000000000E+00 0.  1.
         13    1    4    4    0    0  0.24745688324E+02 -0.53901977583E+02  0.47625790219E+02  0.76065683275E+02  0.00000000000E+00 0. -1.
         21    1    1    2  503  502  0.25237018975E+01  0.31393170384E+02 -0.77603783322E+02  0.83751103896E+02  0.00000000000E+00 0. -1.
          1    1    1    2  501    0 -0.80642626249E+02  0.35400305195E+02 -0.86013796675E+01  0.88489538977E+02  0.00000000000E+00 0. -1.
<scales pt_clust_5="13000.00000" pt_clust_6="13000.00000" pt_clust_7="13000.00000" pt_clust_8="13000.00000" pt_clust_9="31.49445" pt_clust_10="90.06839"></scales>
<clustering>
<clus scale="   31.494">  2  9  1 -1</clus>
<clus scale="   79.118">  5  6 -1 -1</clus>
<clus scale="   90.068">  1 10  2 -1</clus>
<clus scale="   93.116">  7  8 -1 -1</clus>
<clus scale="  103.680">  2  5  1 -1</clus>
<clus scale="   90.068">  1  5  2 -1</clus>
</clustering>
</event>
<event>
10    4  0.5389768E-005  0.2434286E+03  0.7546771E-02  0.1146516E+00
         21   -1    0    0  501  502  0.00000000000E+00  0.00000000000E+00  0.86585945109E+03  0.86585945109E+03  0.00000000000E+00 0. -1.
          2   -1    0    0  503    0 -0.00000000000E+00 -0.00000000000E+00 -0.48313571182E+03  0.48313571182E+03  0.00000000000E+00 0. -1.
         23    2    1    2    0    0  0.73878081783E+02 -0.24341530306E+02 -0.22021084649E+03  0.25066620901E+03  0.91050811983E+02 0.  0.
         24    2    1    2    0    0  0.52985906757E+02 -0.11249478975E+03  0.23790397615E+03  0.27978606081E+03  0.78862880516E+02 0.  0.
        -11    1    4    4    0    0  0.73526412642E+02 -0.95273043254E+02  0.19054029448E+03  0.22536346188E+03  0.00000000000E+00 0.  1.
         12    1    4    4    0    0 -0.20540505885E+02 -0.17221746495E+02  0.47363681665E+02  0.54422598938E+02  0.00000000000E+00 0. -1.
        -13    1    3    3    0    0  0.57466292207E+02 -0.52841988936E+02 -0.10493030202E+03  0.13078615682E+03  0.00000000000E+00 0.  1.
         13    1    3    3    0    0  0.16411789576E+02  0.28500458629E+02 -0.11528054447E+03  0.11988005219E+03  0.00000000000E+00 0. -1.
         21    1    1    2  503  502 -0.20057838139E+03  0.24935998687E+03 -0.99338477340E+02  0.33508241256E+03  0.00000000000E+00 0. -1.
          1    1    1    2  501    0  0.73714392846E+02 -0.11252366681E+03  0.46436908695E+03  0.48346048052E+03  0.00000000000E+00 0. -1.
<scales pt_clust_5="13000.00000" pt_clust_6="13000.00000" pt_clust_7="13000.00000" pt_clust_8="13000.00000" pt_clust_9="230.30007" pt_clust_10="136.87669"></scales>
<clustering>
<clus scale="   78.863">  5  6 -1 -1</clus>
<clus scale="   91.051">  7  8 -1 -1</clus>
<clus scale="  119.753">  2  7  1 -1</clus>
<clus scale="  136.877">  1 10  2 -1</clus>
<clus scale="  230.300">  2  9  1 -1</clus>
<clus scale="  136.877">  1  5  2 -1</clus>
</clustering>
</event>
<event>
10    4  0.5389768E-005  0.1753750E+03  0.7546771E-02  0.1173149E+00
         21   -1    0    0  501  502  0.00000000000E+00  0.00000000000E+00  0.36914636894E+03  0.36914636894E+03  0.00000000000E+00 0.  1.
          2   -1    0    0  503    0 -0.00000000000E+00 -0.00000000000E+00 -0.40144363198E+03  0.40144363198E+03  0.00000000000E+00 0. -1.
         23    2    1    2    0    0  0.66859336589E+02  0.14950478174E+03 -0.17528176292E+03  0.25531299909E+03  0.87402405247E+02 0.  0.
         24    2    1    2    0    0 -0.63306731844E+02 -0.87617756547E+02  0.30722950711E+03  0.33559368876E+03  0.80923051962E+02 0.  0.
        -11    1    4    4    0    0 -0.33649179551E+02 -0.97948482486E+02  0.23153004670E+03  0.25363819710E+03  0.00000000000E+00 0.  1.
         12    1    4    4    0    0 -0.29657552293E+02  0.10330725938E+02  0.75699460410E+02  0.81955491657E+02  0.00000000000E+00 0. -1.
        -11    1    3    3    0    0  0.36884927431E+02  0.47960403798E+02 -0.13541259497E+02  0.62000515424E+02  0.00000000000E+00 0.  1.
         11    1    3    3    0    0  0.29974409158E+02  0.10154437794E+03 -0.16174050342E+03  0.19331248367E+03  0.00000000000E+00 0. -1.
         21    1    1    2  503  502  0.14508951169E+02 -0.18893981233E+02 -0.35491421786E+02  0.42744978785E+02  0.00000000000E+00 0. -1.
          1    1    1    2  501    0 -0.18061555914E+02 -0.42993043956E+02 -0.12875358544E+03  0.13693833428E+03  0.00000000000E+00 0. -1.
<scales pt_clust_5="13000.00000" pt_clust_6="13000.00000" pt_clust_7="13000.00000" pt_clust_8="13000.00000" pt_clust_9="23.82209" pt_clust_10="51.52100"></scales>
<clustering>
<clus scale="   23.822">  2  9  1 -1</clus>
<clus scale="   51.521">  1 10  2 -1</clus>
<clus scale="   80.923">  5  6 -1 -1</clus>
<clus scale="   87.402">  7  8 -1 -1</clus>
<clus scale="  172.237">  1  5  2 -1</clus>
<clus scale="   51.521">  1  5  2 -1</clus>
</clustering>
</event>
<event>
10    4  0.5389768E-005  0.1137687E+03  0.7546771E-02  0.1257207E+00
         21   -1    0    0  501  502  0.00000000000E+00  0.00000000000E+00  0.46353347388E+03  0.46353347388E+03  0.00000000000E+00 0. -1.
          2   -1    0    0  503    0 -0.00000000000E+00 -0.00000000000E+00 -0.12630894584E+03  0.12630894584E+03  0.00000000000E+00 0. -1.
         23    2    1    2    0    0  0.58605439094E+02 -0.26886562902E+02 -0.38374436259E+02  0.11830384058E+03  0.91464291294E+02 0.  0.
         24    2    1    2    0    0 -0.81413013373E+02 -0.28515286127E+02  0.10140231657E+03  0.15630526818E+03  0.81900590762E+02 0.  0.
        -13    1    4    4    0    0 -0.44965347374E+02  0.21780037020E+02  0.71866098549E+02  0.87527073513E+02  0.00000000000E+00 0.  1.
         14    1    4    4    0    0 -0.36447665999E+02 -0.50295323147E+02  0.29536218019E+02  0.68778194670E+02  0.00000000000E+00 0. -1.
        -11    1    3    3    0    0  0.15449285438E+02 -0.33653671912E+02  0.22535622068E+02  0.43348636838E+02  0.00000000000E+00 0.  1.
         11    1    3    3    0    0  0.43156153656E+02  0.67671090096E+01 -0.60910058327E+02  0.74955203742E+02  0.00000000000E+00 0. -1.
         21    1    1    2  503  502  0.61893806588E+01  0.23554093488E+02 -0.11749277251E+02  0.27039771983E+02  0.00000000000E+00 0. -1.
          1    1    1    2  501    0  0.16618193620E+02  0.31847755542E+02  0.28594592498E+03  0.28819353897E+03  0.00000000000E+00 0. -1.
<scales pt_clust_5="13000.00000" pt_clust_6="13000.00000" pt_clust_7="13000.00000" pt_clust_8="13000.00000" pt_clust_9="24.35372" pt_clust_10="36.17239"></scales>
<clustering>
<clus scale="   24.354">  2  9  1 -1</clus>
<clus scale="   36.172">  1 10  2 -1</clus>
<clus scale="   81.901">  5  6 -1 -1</clus>
<clus scale="   91.464">  7  8 -1 -1</clus>
<clus scale="  106.232">  1  5  2 -1</clus>
<clus scale="   36.172">  1  5  2 -1</clus>
</clustering>
</event>
<event>
10    4  0.5389768E-005  0.1945275E+03  0.7546771E-02  0.1186091E+00
          4   -1    0    0  503    0 -0.00000000000E+00  0.00000000000E+00  0.11350172804E+04  0.11350172804E+04  0.00000000000E+00 0. -1.
         21   -1    0    0  501  502  0.00000000000E+00 -0.00000000000E+00 -0.95567625058E+02  0.95567625058E+02  0.00000000000E+00 0.  1.
         23    2    1    2    0    0  0.30810303129E+02 -0.37413858402E+02  0.10462214197E+02  0.95508969598E+02  0.81629858314E+02 0.  0.
         24    2    1    2    0    0 -0.17561438287E+03 -0.31926633403E+02  0.18892516326E+03  0.27222042191E+03  0.80941456614E+02 0.  0.
        -13    1    4    4    0    0 -0.12041553674E+03  0.12347425997E+02  0.91157657762E+02  0.15153243542E+03  0.00000000000E+00 0.  1.
         14    1    4    4    0    0 -0.55198846135E+02 -0.44274059400E+02  0.97767505501E+02  0.12068798649E+03  0.00000000000E+00 0. -1.
        -13    1    3    3    0    0  0.33967323193E+02 -0.17243592155E+02 -0.31117435568E+02  0.49187552405E+02  0.00000000000E+00 0.  1.
         13    1    3    3    0    0 -0.31570200640E+01 -0.20170266247E+02  0.41579649765E+02  0.46321417193E+02  0.00000000000E+00 0. -1.
         21    1    1    2  503  502 -0.19259655006E+02  0.14203883317E+02  0.10376720976E+03  0.10649093122E+03  0.00000000000E+00 0.  1.
          3    1    1    2  501    0  0.16406373475E+03  0.55136608488E+02  0.73629506815E+03  0.75636458275E+03  0.00000000000E+00 0. -1.
<scales pt_clust_5="13000.00000" pt_clust_6="13000.00000" pt_clust_7="13000.00000" pt_clust_8="13000.00000" pt_clust_9="23.93083" pt_clust_10="176.88827"></scales>
<clustering>
<clus scale="   23.931">  1  9  2 -1</clus>
<clus scale="   80.941">  5  6 -1 -1</clus>
<clus scale="   81.630">  7  8 -1 -1</clus>
<clus scale="   94.331">  1  7  2 -1</clus>
<clus scale="  176.888">  2 10  1 -1</clus>
<clus scale="  176.888">  2  5  1 -1</clus>
</clustering>
</event>
<event>
10    4  0.5389768E-005  0.1696299E+03  0.7546771E-02  0.1201912E+00
         21   -1    0    0  503  502  0.00000000000E+00  0.00000000000E+00  0.87729124673E+02  0.87729124673E+02  0.00000000000E+00 0. -1.
          2   -1    0    0  502    0 -0.00000000000E+00 -0.00000000000E+00 -0.77304156529E+03  0.77304156529E+03  0.00000000000E+00 0. -1.
         24    2    1    2    0    0  0.58769291507E+02 -0.25570444038E+02 -0.20003235180E+03  0.22416326875E+03  0.78285069204E+02 0.  0.
         23    2    1    2    0    0  0.60238118151E+02 -0.11867903875E+03 -0.29066973367E+03  0.33252763156E+03  0.91500746256E+02 0.  0.
        -13    1    3    3    0    0  0.57569189422E+02 -0.24389065365E+02 -0.68972748388E+02  0.93092846665E+02  0.00000000000E+00 0.  1.
         14    1    3    3    0    0  0.12001020856E+01 -0.11813786729E+01 -0.13105960341E+03  0.13107042209E+03  0.00000000000E+00 0. -1.
        -11    1    4    4    0    0  0.56483687214E+02 -0.91654971265E+02 -0.12652710979E+03  0.16613292928E+03  0.00000000000E+00 0. -1.
         11    1    4    4    0    0  0.37544309372E+01 -0.27024067484E+02 -0.16414262387E+03  0.16639470228E+03  0.00000000000E+00 0.  1.
         21    1    1    2  503  501  0.18416841405E+02  0.79414553125E+02 -0.73608686326E+02  0.10983665143E+03  0.00000000000E+00 0.  1.
          1    1    1    2  501    0 -0.13742425106E+03  0.64834929662E+02 -0.12100166883E+03  0.19424313822E+03  0.00000000000E+00 0. -1.
<scales pt_clust_5="13000.00000" pt_clust_6="13000.00000" pt_clust_7="13000.00000" pt_clust_8="13000.00000" pt_clust_9="81.52209" pt_clust_10="142.83530"></scales>
<clustering>
<clus scale="   78.285">  5  6 -1 -1</clus>
<clus scale="   81.522">  1  9  2 -1</clus>
<clus scale="   91.501">  7  8 -1 -1</clus>
<clus scale="  100.534">  2  5  1 -1</clus>
<clus scale="  142.835">  1 10  2 -1</clus>
<clus scale="   81.522">  1  5  2 -1</clus>
</clustering>
</event>
<event>
10    4  0.5389768E-005  0.9993933E+02  0.7546771E-02  0.1284622E+00
         -1   -1    0    0    0  501 -0.00000000000E+00  0.00000000000E+00  0.61371865432E+03  0.61371865432E+03  0.00000000000E+00 0.  1.
         21   -1    0    0  503  502  0.00000000000E+00 -0.00000000000E+00 -0.72975870595E+02  0.72975870595E+02  0.00000000000E+00 0.  1.
         23    2    1    2    0    0 -0.49804660993E+02  0.23125467047E+02  0.80785789319E+02  0.13300431540E+03  0.90269112526E+02 0.  0.
         24    2    1    2    0    0  0.29004818700E+02  0.77465533103E+02  0.52502057753E+02  0.12591169230E+03  0.79089189292E+02 0.  0.
        -11    1    4    4    0    0  0.18240735962E+02  0.92906915998E+02  0.37479493599E+02  0.10182893464E+03  0.00000000000E+00 0.  1.
         12    1    4    4    0    0  0.10764082738E+02 -0.15441382896E+02  0.15022564154E+02  0.24082757664E+02  0.00000000000E+00 0. -1.
        -11    1    3    3    0    0 -0.50012383094E+02  0.52245553298E+02  0.73218366837E+02  0.10291630359E+03  0.00000000000E+00 0.  1.
         11    1    3    3    0    0  0.20772210065E+00 -0.29120086251E+02  0.75674224822E+01  0.30088011811E+02  0.00000000000E+00 0. -1.
         21    1    1    2  503  501  0.41115179277E+02 -0.18881235172E+02  0.16645019105E+03  0.17248949275E+03  0.00000000000E+00 0. -1.
         -2    1    1    2    0  502 -0.20315336983E+02 -0.81709764977E+02  0.24100474561E+03  0.25528902447E+03  0.00000000000E+00 0.  1.
<scales pt_clust_5="13000.00000" pt_clust_6="13000.00000" pt_clust_7="13000.00000" pt_clust_8="13000.00000" pt_clust_9="45.24333" pt_clust_10="92.29449"></scales>
<clustering>
<clus scale="   45.243">  1  9  2 -1</clus>
<clus scale="   79.089">  5  6 -1 -1</clus>
<clus scale="   90.269">  7  8 -1 -1</clus>
<clus scale="   92.294">  2 10  1 -1</clus>
<clus scale="   92.294">  2  5  1 -1</clus>
<clus scale="   92.294">  2  5  1 -1</clus>
</clustering>
</event>
<event>
10    4  0.5389768E-005  0.1681046E+03  0.7546771E-02  0.1200739E+00
         21   -1    0    0  501  502  0.00000000000E+00  0.00000000000E+00  0.24132522632E+03  0.24132522632E+03  0.00000000000E+00 0. -1.
          4   -1    0    0  503    0 -0.00000000000E+00 -0.00000000000E+00 -0.27755530309E+03  0.27755530309E+03  0.00000000000E+00 0. -1.
         23    2    1    2    0    0  0.51361665533E+02  0.25563649034E+02  0.24370008576E+01  0.10840234883E+03  0.91943512112E+02 0.  0.
         24    2    1    2    0    0  0.70797643167E+02 -0.11833939115E+03 -0.88627141036E+02  0.18192582722E+03  0.78903223676E+02 0.  0.
        -13    1    4    4    0    0  0.20935816369E+02  0.49914309960E+00  0.62938583726E+01  0.21867103240E+02  0.00000000000E+00 0.  1.
         14    1    4    4    0    0  0.49861826797E+02 -0.11883853425E+03 -0.94920999408E+02  0.16005872398E+03  0.00000000000E+00 0. -1.
        -13    1    3    3    0    0  0.44499906063E+00  0.43417898080E+02  0.24790631930E+02  0.49998873281E+02  0.00000000000E+00 0.  1.
         13    1    3    3    0    0  0.50916666472E+02 -0.17854249046E+02 -0.22353631072E+02  0.58403475545E+02  0.00000000000E+00 0. -1.
         21    1    1    2  503  502 -0.15083905468E+02 -0.16113716423E+02 -0.44014700086E+02  0.49238906211E+02  0.00000000000E+00 0. -1.
          3    1    1    2  501    0 -0.10707540323E+03  0.10888945854E+03  0.93974763498E+02  0.17931344716E+03  0.00000000000E+00 0. -1.
<scales pt_clust_5="13000.00000" pt_clust_6="13000.00000" pt_clust_7="13000.00000" pt_clust_8="13000.00000" pt_clust_9="22.07207" pt_clust_10="148.43669"></scales>
<clustering>
<clus scale="   22.072">  2  9  1 -1</clus>
<clus scale="   78.903">  5  6 -1 -1</clus>
<clus scale="   91.944">  7  8 -1 -1</clus>
<clus scale="  105.954">  2  7  1 -1</clus>
<clus scale="  148.437">  1 10  2 -1</clus>
<clus scale="  148.437">  1  5  2 -1</clus>
</clustering>
</event>
<event>
10    4  0.5389768E-005  0.1276015E+03  0.7546771E-02  0.1234012E+00
         21   -1    0    0  501  502  0.00000000000E+00  0.00000000000E+00  0.45405573340E+02  0.45405573340E+02  0.00000000000E+00 0.  1.
          2   -1    0    0  503    0 -0.00000000000E+00 -0.00000000000E+00 -0.14796779920E+04  0.14796779920E+04  0.00000000000E+00 0. -1.
         24    2    1    2    0    0 -0.28625588152E+02 -0.12047577875E+03 -0.10402228283E+04  0.10506081016E+04  0.79874984761E+02 0.  0.
         23    2    1    2    0    0  0.32311971418E+02  0.10248417202E+03 -0.13606460666E+03  0.19571176827E+03  0.90787939948E+02 0.  0.
        -13    1    3    3    0    0  0.16541934811E+02 -0.18080696316E+02 -0.74611275198E+02  0.78532729312E+02  0.00000000000E+00 0.  1.
         14    1    3    3    0    0 -0.45167522963E+02 -0.10239508244E+03 -0.96561155308E+03  0.97207537232E+03  0.00000000000E+00 0. -1.
        -13    1    4    4    0    0  0.42719110151E+01  0.98797365649E+02 -0.62717322881E+02  0.11710094480E+03  0.00000000000E+00 0.  1.
         13    1    4    4    0    0  0.28040060403E+02  0.36868063736E+01 -0.73347283780E+02  0.78610823470E+02  0.00000000000E+00 0. -1.
         21    1    1    2  503  502  0.60737620480E+01  0.45161721977E+02 -0.24099525496E+03  0.24526553902E+03  0.00000000000E+00 0.  1.
          1    1    1    2  501    0 -0.97601453148E+01 -0.27170115247E+02 -0.16989728731E+02  0.33498156389E+02  0.00000000000E+00 0. -1.
<scales pt_clust_5="13000.00000" pt_clust_6="13000.00000" pt_clust_7="13000.00000" pt_clust_8="13000.00000" pt_clust_9="43.94736" pt_clust_10="28.86998"></scales>
<clustering>
<clus scale="   28.870">  1 10  2 -1</clus>
<clus scale="   43.947">  2  9  1 -1</clus>
<clus scale="   79.875">  5  6 -1 -1</clus>
<clus scale="   90.788">  7  8 -1 -1</clus>
<clus scale="  120.082">  2  5  1 -1</clus>
<clus scale="   28.870">  1  5  2 -1</clus>
</clustering>
</event>
<event>
10    4  0.5389768E-005  0.1130836E+03  0.7546771E-02  0.1258141E+00
         21   -1    0    0  501  502  0.00000000000E+00  0.00000000000E+00  0.57339593254E+02  0.57339593254E+02  0.00000000000E+00 0. -1.
          2   -1    0    0  503    0 -0.00000000000E+00 -0.00000000000E+00 -0.80393168771E+03  0.80393168771E+03  0.00000000000E+00 0. -1.
         24    2    1    2    0    0 -0.61060999382E+01  0.74512063625E+02 -0.37726266593E+03  0.39304284015E+03  0.81032234366E+02 0.  0.
         23    2    1    2    0    0  0.80398525885E+01 -0.60340031489E+02 -0.27874939548E+03  0.29913620394E+03  0.89864811800E+02 0.  0.
        -13    1    3    3    0    0 -0.39970178808E+02  0.17088895262E+02 -0.15785242563E+03  0.16372853695E+03  0.00000000000E+00 0.  1.
         14    1    3    3    0    0  0.33864078870E+02  0.57423168362E+02 -0.21941024030E+03  0.22931430320E+03  0.00000000000E+00 0. -1.
        -13    1    4    4    0    0  0.42132572404E+02 -0.54998871766E+02 -0.14061401354E+03  0.15675563900E+03  0.00000000000E+00 0.  1.
         13    1    4    4    0    0 -0.34092719816E+02 -0.53411597232E+01 -0.13813538193E+03  0.14238056494E+03  0.00000000000E+00 0. -1.
         21    1    1    2  503  502 -0.33767346646E+02 -0.27666454577E+01 -0.11973980027E+03  0.12444078027E+03  0.00000000000E+00 0.  1.
          1    1    1    2  501    0  0.31833593996E+02 -0.11405386678E+02  0.29159767221E+02  0.44651456598E+02  0.00000000000E+00 0. -1.
<scales pt_clust_5="13000.00000" pt_clust_6="13000.00000" pt_clust_7="13000.00000" pt_clust_8="13000.00000" pt_clust_9="30.38060" pt_clust_10="33.81509"></scales>
<clustering>
<clus scale="   33.815">  1 10  2 -1</clus>
<clus scale="   30.381">  2  9  1 -1</clus>
<clus scale="   81.032">  5  6 -1 -1</clus>
<clus scale="   89.865">  7  8 -1 -1</clus>
<clus scale="  106.200">  2  5  1 -1</clus>
<clus scale="   33.815">  1  5  2 -1</clus>
</clustering>
</event>
<event>
10    4  0.5389768E-005  0.8809715E+02  0.7546771E-02  0.1310454E+00
         21   -1    0    0  501  502  0.00000000000E+00  0.00000000000E+00  0.51404035862E+02  0.51404035862E+02  0.00000000000E+00 0. -1.
          2   -1    0    0  503    0 -0.00000000000E+00 -0.00000000000E+00 -0.74358454736E+03  0.74358454736E+03  0.00000000000E+00 0. -1.
         23    2    1    2    0    0 -0.15262482530E+02  0.92346750253E+00 -0.39901619622E+03  0.40845978818E+03  0.85974865805E+02 0.  0.
         24    2    1    2    0    0 -0.45499670904E+01 -0.58413978187E+02 -0.18435533875E+03  0.20982824058E+03  0.81290248936E+02 0.  0.
        -13    1    4    4    0    0 -0.30725551643E+02 -0.11661159016E+02 -0.12764882074E+03  0.13181146988E+03  0.00000000000E+00 0.  1.
         14    1    4    4    0    0  0.26175584552E+02 -0.46752819171E+02 -0.56706518001E+02  0.78016770702E+02  0.00000000000E+00 0. -1.
        -11    1    3    3    0    0 -0.50171550699E+02  0.27465932916E+01 -0.27763674212E+03  0.28214692777E+03  0.00000000000E+00 0.  1.
         11    1    3    3    0    0  0.34909068169E+02 -0.18231257890E+01 -0.12137945409E+03  0.12631286040E+03  0.00000000000E+00 0. -1.
         21    1    1    2  503  502 -0.20364937453E+02 -0.29846745032E+02 -0.57016181086E+02  0.67501139044E+02  0.00000000000E+00 0.  1.
          1    1    1    2  501    0  0.40177387073E+02  0.87337255717E+02 -0.51792795450E+02  0.10919941542E+03  0.00000000000E+00 0. -1.
<scales pt_clust_5="13000.00000" pt_clust_6="13000.00000" pt_clust_7="13000.00000" pt_clust_8="13000.00000" pt_clust_9="36.13252" pt_clust_10="74.07786"></scales>
<clustering>
<clus scale="   36.133">  1  9  2 -1</clus>
<clus scale="   74.078">  1 10  2 -1</clus>
<clus scale="   81.290">  5  6 -1 -1</clus>
<clus scale="   83.532">  1  5  2 -1</clus>
<clus scale="   85.975">  7  8 -1 -1</clus>
<clus scale="   36.133">  1  5  2 -1</clus>
</clustering>
</event>
<event>
10    4  0.5389768E-005  0.2626553E+03  0.7546771E-02  0.1106987E+00
          2   -1    0    0  503    0 -0.00000000000E+00  0.00000000000E+00  0.12454006766E+04  0.12454006766E+04  0.00000000000E+00 0. -1.
         21   -1    0    0  501  502  0.00000000000E+00 -0.00000000000E+00 -0.95784117670E+02  0.95784117670E+02  0.00000000000E+00 0.  1.
         24    2    1    2    0    0  0.25451415511E+03 -0.13419774766E+03  0.71175364940E+03  0.76998170343E+03  0.59093786101E+02 0.  0.
         23    2    1    2    0    0 -0.16470997960E+03  0.74468734099E+02  0.13776436150E+03  0.24499293491E+03  0.91474308503E+02 0.  0.
        -13    1    3    3    0    0  0.24118911845E+03 -0.13901094943E+03  0.65961978908E+03  0.71595705253E+03  0.00000000000E+00 0.  1.
         14    1    3    3    0    0  0.13325036658E+02  0.48132017670E+01  0.52133860320E+02  0.54024650902E+02  0.00000000000E+00 0. -1.
        -11    1    4    4    0    0 -0.46739793161E+02 -0.16958398407E+02  0.55717367255E+02  0.74676773866E+02  0.00000000000E+00 0. -1.
         11    1    4    4    0    0 -0.11797018644E+03  0.91427132506E+02  0.82046994250E+02  0.17031616104E+03  0.00000000000E+00 0.  1.
         21    1    1    2  503  502 -0.22931944418E+02 -0.14290603102E+02  0.83073775410E+02  0.87357584517E+02  0.00000000000E+00 0.  1.
          1    1    1    2  501    0 -0.66872231090E+02  0.74019616667E+02  0.21702477263E+03  0.23885257143E+03  0.00000000000E+00 0. -1.
<scales pt_clust_5="13000.00000" pt_clust_6="13000.00000" pt_clust_7="13000.00000" pt_clust_8="13000.00000" pt_clust_9="27.02028" pt_clust_10="100.82618"></scales>
<clustering>
<clus scale="   27.020">  1  9  2 -1</clus>
<clus scale="   59.094">  5  6 -1 -1</clus>
<clus scale="   91.474">  7  8 -1 -1</clus>
<clus scale="  100.826">  2 10  1 -1</clus>
<clus scale="  253.204">  1  5  2 -1</clus>
<clus scale="  100.826">  2  5  1 -1</clus>
</clustering>
</event>
<event>
10    4  0.5389768E-005  0.1918049E+03  0.7546771E-02  0.1182310E+00
          2   -1    0    0  503    0 -0.00000000000E+00  0.00000000000E+00  0.16728562302E+03  0.16728562302E+03  0.00000000000E+00 0. -1.
         21   -1    0    0  501  502  0.00000000000E+00 -0.00000000000E+00 -0.44439711681E+03  0.44439711681E+03  0.00000000000E+00 0. -1.
         24    2    1    2    0    0  0.41995541151E+02  0.66585887067E+02 -0.35131780710E+02  0.11692189276E+03  0.78988487507E+02 0.  0.
         23    2    1    2    0    0 -0.24157179298E+02 -0.19224474235E+03 -0.22729582157E+03  0.31227884650E+03  0.91176077988E+02 0.  0.
        -11    1    3    3    0    0 -0.74789653118E+01  0.60799001573E+02 -0.14142999467E+02  0.62868735858E+02  0.00000000000E+00 0.  1.
         12    1    3    3    0    0  0.49474506463E+02  0.57868854937E+01 -0.20988781243E+02  0.54053156906E+02  0.00000000000E+00 0. -1.
        -11    1    4    4    0    0 -0.43487806420E+02 -0.44020073844E+02 -0.90636916086E+02  0.10974519017E+03  0.00000000000E+00 0.  1.
         11    1    4    4    0    0  0.19330627122E+02 -0.14822466850E+03 -0.13665890549E+03  0.20253365633E+03  0.00000000000E+00 0. -1.
         21    1    1    2  503  502 -0.18543189910E+02 -0.13553641402E+02  0.28611975046E+02  0.36690546512E+02  0.00000000000E+00 0.  1.
          1    1    1    2  501    0  0.70482805634E+00  0.13921249668E+03 -0.43295866556E+02  0.14579145406E+03  0.00000000000E+00 0. -1.
<scales pt_clust_5="13000.00000" pt_clust_6="13000.00000" pt_clust_7="13000.00000" pt_clust_8="13000.00000" pt_clust_9="22.96848" pt_clust_10="168.74859"></scales>
<clustering>
<clus scale="   22.968">  1  9  2 -1</clus>
<clus scale="   78.988">  5  6 -1 -1</clus>
<clus scale="   91.176">  7  8 -1 -1</clus>
<clus scale="  107.069">  1  5  2 -1</clus>
<clus scale="  168.749">  2 10  1 -1</clus>
<clus scale="  168.749">  2  5  1 -1</clus>
</clustering>
</event>
<event>
10    4  0.5389768E-005  0.1923492E+03  0.7546771E-02  0.1157422E+00
         21   -1    0    0  501  502  0.00000000000E+00  0.00000000000E+00  0.28969731365E+03  0.28969731365E+03  0.00000000000E+00 0.  1.
          2   -1    0    0  503    0 -0.00000000000E+00 -0.00000000000E+00 -0.55093115901E+03  0.55093115901E+03  0.00000000000E+00 0. -1.
         24    2    1    2    0    0  0.17684599884E+03 -0.60946247655E+02 -0.38567067571E+03  0.43599860436E+03  0.79774435105E+02 0.  0.
         23    2    1    2    0    0 -0.12340155925E+03  0.75602085913E+02  0.18974465573E+03  0.25515916699E+03  0.90330204815E+02 0.  0.
        -13    1    3    3    0    0  0.54789538897E+02 -0.10197528996E+02 -0.48635044885E+02  0.73967903588E+02  0.00000000000E+00 0.  1.
         14    1    3    3    0    0  0.12205645994E+03 -0.50748718660E+02 -0.33703563082E+03  0.36203070077E+03  0.00000000000E+00 0. -1.
        -13    1    4    4    0    0 -0.10649833988E+03  0.29786649508E+02  0.16930289160E+03  0.20221921271E+03  0.00000000000E+00 0.  1.
         13    1    4    4    0    0 -0.16903219371E+02  0.45815436404E+02  0.20441764123E+02  0.52939954273E+02  0.00000000000E+00 0. -1.
         21    1    1    2  503  502 -0.22574161706E+02 -0.13263177941E+02 -0.99790286837E+02  0.10316785358E+03  0.00000000000E+00 0. -1.
          1    1    1    2  501    0 -0.30870277886E+02 -0.13926603167E+01  0.34482461458E+02  0.46302847728E+02  0.00000000000E+00 0. -1.
<scales pt_clust_5="13000.00000" pt_clust_6="13000.00000" pt_clust_7="13000.00000" pt_clust_8="13000.00000" pt_clust_9="26.18214" pt_clust_10="31.20649"></scales>
<clustering>
<clus scale="   26.182">  2  9  1 -1</clus>
<clus scale="   31.206">  1 10  2 -1</clus>
<clus scale="   79.774">  5  6 -1 -1</clus>
<clus scale="   90.330">  7  8 -1 -1</clus>
<clus scale="  187.624">  2  5  1 -1</clus>
<clus scale="   31.206">  1  5  2 -1</clus>
</clustering>
</event>
<event>
10    4  0.5389768E-005  0.1418918E+03  0.7546771E-02  0.1229777E+00
         21   -1    0    0  501  502  0.00000000000E+00  0.00000000000E+00  0.14659133027E+03  0.14659133027E+03  0.00000000000E+00 0. -1.
          2   -1    0    0  503    0 -0.00000000000E+00 -0.00000000000E+00 -0.76636844827E+03  0.76636844827E+03  0.00000000000E+00 0. -1.
         24    2    1    2    0    0 -0.96029951449E+01 -0.49513004816E+02  0.33791020673E+02  0.97980708069E+02  0.76906637646E+02 0.  0.
         23    2    1    2    0    0  0.79412221268E+02 -0.44209895527E+02 -0.42092386341E+02  0.13724598682E+03  0.93828972925E+02 0.  0.
        -13    1    3    3    0    0  0.12060617755E+02  0.17296414739E+02  0.12842525594E+02  0.24689166188E+02  0.00000000000E+00 0.  1.
         14    1    3    3    0    0 -0.21663612900E+02 -0.66809419555E+02  0.20948495079E+02  0.73291541881E+02  0.00000000000E+00 0. -1.
        -13    1    4    4    0    0  0.14902450449E+02 -0.43643324925E+02  0.17592450496E+02  0.49359063548E+02  0.00000000000E+00 0.  1.
         13    1    4    4    0    0  0.64509770820E+02 -0.56657060243E+00 -0.59684836837E+02  0.87886923269E+02  0.00000000000E+00 0. -1.
         21    1    1    2  503  502 -0.59060455040E+01 -0.66946167894E+02 -0.39500374321E+03  0.40068020655E+03  0.00000000000E+00 0. -1.
          1    1    1    2  501    0 -0.63903180619E+02  0.16066906824E+03 -0.21647200912E+03  0.27705287711E+03  0.00000000000E+00 0. -1.
<scales pt_clust_5="13000.00000" pt_clust_6="13000.00000" pt_clust_7="13000.00000" pt_clust_8="13000.00000" pt_clust_9="67.20618" pt_clust_10="106.43969"></scales>
<clustering>
<clus scale="   67.206">  2  9  1 -1</clus>
<clus scale="   76.907">  5  6 -1 -1</clus>
<clus scale="   93.829">  7  8 -1 -1</clus>
<clus scale="   95.288">  2  5  1 -1</clus>
<clus scale="  106.440">  1 10  2 -1</clus>
<clus scale="  106.440">  1  5  2 -1</clus>
</clustering>
</event>
<event>
10    4  0.5389768E-005  0.3943322E+03  0.7546771E-02  0.1070285E+00
         21   -1    0    0  503  502  0.00000000000E+00  0.00000000000E+00  0.29318860470E+03  0.29318860470E+03  0.00000000000E+00 0. -1.
          2   -1    0    0  502    0 -0.00000000000E+00 -0.00000000000E+00 -0.13243260574E+04  0.13243260574E+04  0.00000000000E+00 0. -1.
         24    2    1    2    0    0 -0.16060759950E+03  0.12037665861E+02  0.78314118068E+02  0.19659912436E+03  0.81107386791E+02 0.  0.
         23    2    1    2    0    0 -0.52627186145E+01 -0.38746873112E+03 -0.34251007718E+03  0.52540339976E+03  0.92605970156E+02 0.  0.
        -13    1    3    3    0    0 -0.12385033226E+02 -0.20195911319E+02  0.28238591911E+02  0.36860303242E+02  0.00000000000E+00 0.  1.
         14    1    3    3    0    0 -0.14822256628E+03  0.32233577180E+02  0.50075526157E+02  0.15973882111E+03  0.00000000000E+00 0. -1.
        -11    1    4    4    0    0  0.33046942735E+02 -0.10218120025E+03 -0.64793164333E+02  0.12542428893E+03  0.00000000000E+00 0.  1.
         11    1    4    4    0    0 -0.38309661349E+02 -0.28528753087E+03 -0.27771691284E+03  0.39997911083E+03  0.00000000000E+00 0. -1.
         21    1    1    2  503  501 -0.38734845740E+02  0.17480932029E+02 -0.33442577970E+02  0.54077511781E+02  0.00000000000E+00 0. -1.
          1    1    1    2  501    0  0.20460516386E+03  0.35795013323E+03 -0.73349891558E+03  0.84143462617E+03  0.00000000000E+00 0. -1.
<scales pt_clust_5="13000.00000" pt_clust_6="13000.00000" pt_clust_7="13000.00000" pt_clust_8="13000.00000" pt_clust_9="42.49672" pt_clust_10="383.30427"></scales>
<clustering>
<clus scale="   42.497">  1  9  2 -1</clus>
<clus scale="   81.107">  5  6 -1 -1</clus>
<clus scale="   92.606">  7  8 -1 -1</clus>
<clus scale="  197.978">  2  5  1 -1</clus>
<clus scale="  383.304">  1 10  2 -1</clus>
<clus scale="   42.497">  1  5  2 -1</clus>
</clustering>
</event>
<event>
10    4  0.5389768E-005  0.1187927E+03  0.7546771E-02  0.1248112E+00
          2   -1    0    0  503    0 -0.00000000000E+00  0.00000000000E+00  0.81050619938E+03  0.81050619938E+03  0.00000000000E+00 0. -1.
         21   -1    0    0  501  502  0.00000000000E+00 -0.00000000000E+00 -0.10590871860E+03  0.10590871860E+03  0.00000000000E+00 0. -1.
         24    2    1    2    0    0  0.12999189087E+03 -0.57725207088E+02  0.53201950090E+03  0.55657781084E+03  0.80647498138E+02 0.  0.
         23    2    1    2    0    0 -0.55013770511E+02 -0.87333675850E+01  0.40996852555E+02  0.11355614702E+03  0.90063699415E+02 0.  0.
        -11    1    3    3    0    0  0.18338454249E+02 -0.23621365506E+02  0.35020683541E+02  0.46051233298E+02  0.00000000000E+00 0.  1.
         12    1    3    3    0    0  0.11165343662E+03 -0.34103841582E+02  0.49699881736E+03  0.51052657755E+03  0.00000000000E+00 0. -1.
        -11    1    4    4    0    0 -0.51789813658E+02 -0.39278754209E+02  0.49481175741E+02  0.81690832312E+02  0.00000000000E+00 0. -1.
         11    1    4    4    0    0 -0.32239568525E+01  0.30545386624E+02 -0.84843231860E+01  0.31865314713E+02  0.00000000000E+00 0.  1.
         21    1    1    2  503  502 -0.57992778255E+02  0.37207150354E+02  0.17683393144E+03  0.18978349158E+03  0.00000000000E+00 0.  1.
          1    1    1    2  501    0 -0.16985342107E+02  0.29251424319E+02 -0.45252804111E+02  0.56497468537E+02  0.00000000000E+00 0. -1.
<scales pt_clust_5="13000.00000" pt_clust_6="13000.00000" pt_clust_7="13000.00000" pt_clust_8="13000.00000" pt_clust_9="72.46548" pt_clust_10="33.82525"></scales>
<clustering>
<clus scale="   33.825">  2 10  1 -1</clus>
<clus scale="   72.465">  1  9  2 -1</clus>
<clus scale="   80.647">  5  6 -1 -1</clus>
<clus scale="   90.064">  7  8 -1 -1</clus>
<clus scale="  111.822">  1  5  2 -1</clus>
<clus scale="   33.825">  2  5  1 -1</clus>
</clustering>
</event>
<event>
10    4  0.5389768E-005  0.1026961E+03  0.7546771E-02  0.1279840E+00
          2   -1    0    0  503    0 -0.00000000000E+00  0.00000000000E+00  0.28262484878E+03  0.28262484878E+03  0.00000000000E+00 0. -1.
         21   -1    0    0  501  502  0.00000000000E+00 -0.00000000000E+00 -0.21052005702E+03  0.21052005702E+03  0.00000000000E+00 0. -1.
         24    2    1    2    0    0  0.49551444777E+02  0.97948322416E+01  0.21667991395E+03  0.23636681650E+03  0.79798511366E+02 0.  0.
         23    2    1    2    0    0  0.19891269160E+02 -0.11191404038E+02 -0.10303257310E+03  0.13920083251E+03  0.90775825739E+02 0.  0.
        -13    1    3    3    0    0  0.62633914262E+01  0.39309581142E+02  0.11961892670E+03  0.12606808028E+03  0.00000000000E+00 0.  1.
         14    1    3    3    0    0  0.43288053351E+02 -0.29514748900E+02  0.97060987251E+02  0.11029873622E+03  0.00000000000E+00 0. -1.
        -11    1    4    4    0    0  0.27112588659E+02 -0.44714762043E+02 -0.34735108031E+02  0.62777624503E+02  0.00000000000E+00 0. -1.
         11    1    4    4    0    0 -0.72213194985E+01  0.33523358005E+02 -0.68297465064E+02  0.76423208003E+02  0.00000000000E+00 0.  1.
         21    1    1    2  503  502 -0.25823070600E+01  0.22994356235E+02  0.14840758150E+02  0.27489212992E+02  0.00000000000E+00 0. -1.
          1    1    1    2  501    0 -0.66860406877E+02 -0.21597784439E+02 -0.56383307244E+02  0.90088043803E+02  0.00000000000E+00 0. -1.
<scales pt_clust_5="13000.00000" pt_clust_6="13000.00000" pt_clust_7="13000.00000" pt_clust_8="13000.00000" pt_clust_9="23.13890" pt_clust_10="69.98028"></scales>
<clustering>
<clus scale="   23.139">  1  9  2 -1</clus>
<clus scale="   69.980">  2 10  1 -1</clus>
<clus scale="   79.799">  5  6 -1 -1</clus>
<clus scale="   90.776">  7  8 -1 -1</clus>
<clus scale="   93.134">  1  5  2 -1</clus>
<clus scale="   69.980">  2  5  1 -1</clus>
</clustering>
</event>
<event>
10    4  0.5389768E-005  0.1661049E+03  0.7546771E-02  0.1183675E+00
         21   -1    0    0  501  502  0.00000000000E+00  0.00000000000E+00  0.15879873343E+03  0.15879873343E+03  0.00000000000E+00 0.  1.
          2   -1    0    0  503    0 -0.00000000000E+00 -0.00000000000E+00 -0.52961807808E+03  0.52961807808E+03  0.00000000000E+00 0. -1.
         24    2    1    2    0    0 -0.32638387712E+01  0.79930439778E+02 -0.24875944267E+03  0.27308226636E+03  0.79329288654E+02 0.  0.
         23    2    1    2    0    0 -0.36748976887E+02 -0.18012936878E+03 -0.34849326244E+02  0.20815617219E+03  0.91199998261E+02 0.  0.
        -13    1    3    3    0    0 -0.34169526661E+02  0.26099101097E+02 -0.56173887912E+02  0.70740549287E+02  0.00000000000E+00 0.  1.
         14    1    3    3    0    0  0.30905687890E+02  0.53831338682E+02 -0.19258555476E+03  0.20234171708E+03  0.00000000000E+00 0. -1.
        -11    1    4    4    0    0 -0.40410002512E+02 -0.51409132786E+02 -0.44385514739E+02  0.79031266949E+02  0.00000000000E+00 0. -1.
         11    1    4    4    0    0  0.36610256257E+01 -0.12872023599E+03  0.95361884957E+01  0.12912490524E+03  0.00000000000E+00 0.  1.
         21    1    1    2  503  502  0.26910957185E+02  0.72416142697E+02 -0.13195403421E+03  0.15290573725E+03  0.00000000000E+00 0. -1.
          1    1    1    2  501    0  0.13101858473E+02  0.27782786305E+02  0.44743458470E+02  0.54272635703E+02  0.00000000000E+00 0. -1.
<scales pt_clust_5="13000.00000" pt_clust_6="13000.00000" pt_clust_7="13000.00000" pt_clust_8="13000.00000" pt_clust_9="80.18888" pt_clust_10="30.71713"></scales>
<clustering>
<clus scale="   30.717">  1 10  2 -1</clus>
<clus scale="   79.329">  5  6 -1 -1</clus>
<clus scale="   80.189">  2  9  1 -1</clus>
<clus scale="   91.200">  7  8 -1 -1</clus>
<clus scale="  159.895">  2  5  1 -1</clus>
<clus scale="   30.717">  1  5  2 -1</clus>
</clustering>
</event>
<event>
10    4  0.5389768E-005  0.1020043E+03  0.7546771E-02  0.1281736E+00
         21   -1    0    0  501  502  0.00000000000E+00  0.00000000000E+00  0.20125002536E+03  0.20125002536E+03  0.00000000000E+00 0. -1.
          2   -1    0    0  503    0 -0.00000000000E+00 -0.00000000000E+00 -0.36604799373E+03  0.36604799373E+03  0.00000000000E+00 0. -1.
         24    2    1    2    0    0 -0.47682789288E+02 -0.39561144402E+02 -0.12374329827E+03  0.15919017760E+03  0.78678944035E+02 0.  0.
         23    2    1    2    0    0  0.12125452280E+02 -0.43060286340E+02  0.15210311045E+03  0.18255745373E+03  0.90502225672E+02 0.  0.
        -13    1    3    3    0    0  0.18299630445E+02 -0.25794499205E+02 -0.28948085399E+02  0.42874518212E+02  0.00000000000E+00 0.  1.
         14    1    3    3    0    0 -0.65982419732E+02 -0.13766645196E+02 -0.94795212876E+02  0.11631565938E+03  0.00000000000E+00 0. -1.
        -13    1    4    4    0    0  0.39439985870E+02 -0.57734408721E+02  0.10735296898E+03  0.12811492647E+03  0.00000000000E+00 0. -1.
         13    1    4    4    0    0 -0.27314533590E+02  0.14674122381E+02  0.44750141471E+02  0.54442527261E+02  0.00000000000E+00 0.  1.
         21    1    1    2  503  502  0.26606518371E+02 -0.42542058158E+01 -0.66007443575E+02  0.71295074824E+02  0.00000000000E+00 0.  1.
          1    1    1    2  501    0  0.89508186370E+01  0.86875636557E+02 -0.12715033697E+03  0.15425531295E+03  0.00000000000E+00 0. -1.
<scales pt_clust_5="13000.00000" pt_clust_6="13000.00000" pt_clust_7="13000.00000" pt_clust_8="13000.00000" pt_clust_9="26.94448" pt_clust_10="87.55364"></scales>
<clustering>
<clus scale="   26.944">  2  9  1 -1</clus>
<clus scale="   78.679">  5  6 -1 -1</clus>
<clus scale="   87.554">  1 10  2 -1</clus>
<clus scale="   90.502">  7  8 -1 -1</clus>
<clus scale="   91.677">  2  5  1 -1</clus>
<clus scale="   87.554">  1  5  2 -1</clus>
</clustering>
</event>
<event>
10    4  0.5389768E-005  0.9381773E+02  0.7546771E-02  0.1301277E+00
         21   -1    0    0  501  502  0.00000000000E+00  0.00000000000E+00  0.47059056165E+02  0.47059056165E+02  0.00000000000E+00 0. -1.
          2   -1    0    0  503    0 -0.00000000000E+00 -0.00000000000E+00 -0.76654479797E+03  0.76654479797E+03  0.00000000000E+00 0. -1.
         24    2    1    2    0    0 -0.48759958113E+02  0.29748249179E+02 -0.44028893742E+03  0.45089801322E+03  0.78690393741E+02 0.  0.
         23    2    1    2    0    0  0.38450959735E+01  0.31698763789E+02 -0.98940052785E+02  0.13825232268E+03  0.91131631684E+02 0.  0.
        -13    1    3    3    0    0 -0.19895948626E+02 -0.16065268836E+02 -0.43721213250E+02  0.50650628057E+02  0.00000000000E+00 0.  1.
         14    1    3    3    0    0 -0.28864009486E+02  0.45813518016E+02 -0.39656772417E+03  0.40024738517E+03  0.00000000000E+00 0. -1.
        -13    1    4    4    0    0  0.99376327367E+01  0.62851810240E+02 -0.75809516162E+02  0.98975700733E+02  0.00000000000E+00 0. -1.
         13    1    4    4    0    0 -0.60925367632E+01 -0.31153046451E+02 -0.23130536623E+02  0.39276621951E+02  0.00000000000E+00 0.  1.
         21    1    1    2  503  502  0.29495601436E+02 -0.28229428800E+02 -0.18321828376E+03  0.18771209513E+03  0.00000000000E+00 0. -1.
          1    1    1    2  501    0  0.15419260703E+02 -0.33217584168E+02  0.29615321624E+01  0.36741423099E+02  0.00000000000E+00 0. -1.
<scales pt_clust_5="13000.00000" pt_clust_6="13000.00000" pt_clust_7="13000.00000" pt_clust_8="13000.00000" pt_clust_9="43.65817" pt_clust_10="36.62187"></scales>
<clustering>
<clus scale="   36.622">  1 10  2 -1</clus>
<clus scale="   43.658">  2  9  1 -1</clus>
<clus scale="   78.690">  5  6 -1 -1</clus>
<clus scale="   81.786">  2  5  1 -1</clus>
<clus scale="   91.132">  7  8 -1 -1</clus>
<clus scale="   36.622">  1  5  2 -1</clus>
</clustering>
</event>
<event>
10    4  0.5389768E-005  0.6466135E+03  0.7546771E-02  0.9813988E-01
         21   -1    0    0  501  502  0.00000000000E+00  0.00000000000E+00  0.16763916476E+04  0.16763916476E+04  0.00000000000E+00 0. -1.
          2   -1    0    0  503    0 -0.00000000000E+00 -0.00000000000E+00 -0.12960131074E+04  0.12960131074E+04  0.00000000000E+00 0. -1.
         24    2    1    2    0    0 -0.35088271690E+02  0.58003952988E+03  0.27173978637E+03  0.64649882506E+03  0.80256939164E+02 0.  0.
         23    2    1    2    0    0 -0.69851456568E+02 -0.67498342143E+03  0.10488242849E+04  0.12526896547E+04  0.93365654038E+02 0.  0.
        -11    1    3    3    0    0 -0.24445522216E+02  0.13481449566E+03  0.31925773023E+02  0.14068328536E+03  0.00000000000E+00 0.  1.
         12    1    3    3    0    0 -0.10642749474E+02  0.44522503421E+03  0.23981401334E+03  0.50581553970E+03  0.00000000000E+00 0. -1.
        -11    1    4    4    0    0 -0.67888990968E+02 -0.63633198559E+03  0.10211809780E+04  0.12051298274E+04  0.00000000000E+00 0. -1.
         11    1    4    4    0    0 -0.19624655998E+01 -0.38651435845E+02  0.27643306845E+02  0.47559827348E+02  0.00000000000E+00 0.  1.
         21    1    1    2  503  502  0.21183293407E+03  0.96658043822E+02 -0.93780953508E+03  0.96628292620E+03  0.00000000000E+00 0. -1.
          1    1    1    2  501    0 -0.10689320581E+03 -0.17141522678E+01 -0.23759958916E+01  0.10693334898E+03  0.00000000000E+00 0. -1.
<scales pt_clust_5="13000.00000" pt_clust_6="13000.00000" pt_clust_7="13000.00000" pt_clust_8="13000.00000" pt_clust_9="231.98484" pt_clust_10="106.90700"></scales>
<clustering>
<clus scale="   80.257">  5  6 -1 -1</clus>
<clus scale="   93.366">  7  8 -1 -1</clus>
<clus scale="  106.907">  1 10  2 -1</clus>
<clus scale="  231.985">  2  9  1 -1</clus>
<clus scale="  644.851">  2  5  1 -1</clus>
<clus scale="  106.907">  1  5  2 -1</clus>
</clustering>
</event>
<event>
10    4  0.5389768E-005  0.8895648E+02  0.7546771E-02  0.1308051E+00
         21   -1    0    0  501  502  0.00000000000E+00  0.00000000000E+00  0.19828600829E+03  0.19828600829E+03  0.00000000000E+00 0. -1.
          2   -1    0    0  503    0 -0.00000000000E+00 -0.00000000000E+00 -0.15928560089E+03  0.15928560089E+03  0.00000000000E+00 0. -1.
         24    2    1    2    0    0 -0.22689968693E+01 -0.22622736350E+01 -0.83333321041E+02  0.11667371819E+03  0.81596862016E+02 0.  0.
         23    2    1    2    0    0  0.29067183244E+01 -0.45664681132E+02  0.21342718981E+02  0.99685422395E+02  0.85953241184E+02 0.  0.
        -11    1    3    3    0    0  0.29064207379E+02  0.56766690991E+01 -0.26204342258E+01  0.29729100191E+02  0.00000000000E+00 0.  1.
         12    1    3    3    0    0 -0.31333204249E+02 -0.79389427341E+01 -0.80712886815E+02  0.86944617994E+02  0.00000000000E+00 0. -1.
        -13    1    4    4    0    0 -0.37410818821E+02 -0.37547898781E+02 -0.73228436021E+00  0.53008964413E+02  0.00000000000E+00 0. -1.
         13    1    4    4    0    0  0.40317537145E+02 -0.81167823515E+01  0.22075003341E+02  0.46676457982E+02  0.00000000000E+00 0.  1.
         21    1    1    2  503  502  0.15131020239E+02  0.24945924508E+02 -0.67317296667E+01  0.29942663664E+02  0.00000000000E+00 0.  1.
          1    1    1    2  501    0 -0.15768741694E+02  0.22981030260E+02  0.10772273912E+03  0.11126980493E+03  0.00000000000E+00 0. -1.
<scales pt_clust_5="13000.00000" pt_clust_6="13000.00000" pt_clust_7="13000.00000" pt_clust_8="13000.00000" pt_clust_9="30.85465" pt_clust_10="27.87079"></scales>
<clustering>
<clus scale="   27.871">  1 10  2 -1</clus>
<clus scale="   30.855">  2  9  1 -1</clus>
<clus scale="   81.597">  5  6 -1 -1</clus>
<clus scale="   84.755">  2  5  1 -1</clus>
<clus scale="   85.953">  7  8 -1 -1</clus>
<clus scale="   27.871">  1  5  2 -1</clus>
</clustering>
</event>
<event>
10    4  0.5389768E-005  0.1378474E+03  0.7546771E-02  0.1218514E+00
         -1   -1    0    0    0  501 -0.00000000000E+00  0.00000000000E+00  0.31031519946E+03  0.31031519946E+03  0.00000000000E+00 0.  1.
         21   -1    0    0  503  502  0.00000000000E+00 -0.00000000000E+00 -0.26089087616E+03  0.26089087616E+03  0.00000000000E+00 0.  1.
         24    2    1    2    0    0  0.46095266772E+00 -0.14187476882E+03  0.46347280703E+02  0.16987012867E+03  0.81111822072E+02 0.  0.
         23    2    1    2    0    0 -0.26672713660E+02  0.63852021025E+02 -0.15814052789E+02  0.11551867753E+03  0.91137074510E+02 0.  0.
        -13    1    3    3    0    0  0.25134447325E+02 -0.12589724642E+03  0.54339315955E+02  0.13940810004E+03  0.00000000000E+00 0.  1.
         14    1    3    3    0    0 -0.24673494657E+02 -0.15977522404E+02 -0.79920352524E+01  0.30462028630E+02  0.00000000000E+00 0. -1.
        -11    1    4    4    0    0 -0.57306860102E+02  0.57008198126E+02 -0.10730378459E+01  0.80840350559E+02  0.00000000000E+00 0.  1.
         11    1    4    4    0    0  0.30634146442E+02  0.68438228989E+01 -0.14741014943E+02  0.34678326973E+02  0.00000000000E+00 0. -1.
         21    1    1    2  503  501 -0.14316195987E+02  0.22156350651E+02  0.14213572248E+03  0.14456286157E+03  0.00000000000E+00 0. -1.
         -2    1    1    2    0  502  0.40527956980E+02  0.55866397146E+02 -0.12324462709E+03  0.14125440784E+03  0.00000000000E+00 0.  1.
<scales pt_clust_5="13000.00000" pt_clust_6="13000.00000" pt_clust_7="13000.00000" pt_clust_8="13000.00000" pt_clust_9="26.37911" pt_clust_10="69.54513"></scales>
<clustering>
<clus scale="   26.379">  1  9  2 -1</clus>
<clus scale="   69.545">  2 10  1 -1</clus>
<clus scale="   81.112">  5  6 -1 -1</clus>
<clus scale="   91.137">  7  8 -1 -1</clus>
<clus scale="  131.435">  1  5  2 -1</clus>
<clus scale="   69.545">  2  5  1 -1</clus>
</clustering>
</event>
<event>
10    4  0.5389768E-005  0.3117471E+03  0.7546771E-02  0.1129875E+00
          2   -1    0    0  503    0 -0.00000000000E+00  0.00000000000E+00  0.14308278305E+03  0.14308278305E+03  0.00000000000E+00 0. -1.
         21   -1    0    0  501  502  0.00000000000E+00 -0.00000000000E+00 -0.11544536271E+04  0.11544536271E+04  0.00000000000E+00 0. -1.
         24    2    1    2    0    0  0.12810638893E+02  0.24358101972E+02 -0.48532640143E+02  0.97387622718E+02  0.79821690654E+02 0.  0.
         23    2    1    2    0    0  0.17749001051E+03 -0.22556025956E+03 -0.32281736554E+03  0.44163130877E+03  0.91907708448E+02 0.  0.
        -13    1    3    3    0    0  0.41234676955E+02  0.25485438697E+02 -0.10005326596E+02  0.49496593109E+02  0.00000000000E+00 0.  1.
         14    1    3    3    0    0 -0.28424038062E+02 -0.11273367244E+01 -0.38527313547E+02  0.47891029609E+02  0.00000000000E+00 0. -1.
        -13    1    4    4    0    0  0.42068251390E+02 -0.23952014285E+02 -0.10405520032E+03  0.11476463513E+03  0.00000000000E+00 0.  1.
         13    1    4    4    0    0  0.13542175912E+03 -0.20160824527E+03 -0.21876216521E+03  0.32686667364E+03  0.00000000000E+00 0. -1.
         21    1    1    2  503  502  0.32534724947E+02 -0.75017000111E+01  0.14415955790E+02  0.36367617626E+02  0.00000000000E+00 0.  1.
          1    1    1    2  501    0 -0.22283537435E+03  0.20870385760E+03 -0.65443679412E+03  0.72214986099E+03  0.00000000000E+00 0. -1.
<scales pt_clust_5="13000.00000" pt_clust_6="13000.00000" pt_clust_7="13000.00000" pt_clust_8="13000.00000" pt_clust_9="33.38838" pt_clust_10="297.89129"></scales>
<clustering>
<clus scale="   33.388">  1  9  2 -1</clus>
<clus scale="   79.822">  5  6 -1 -1</clus>
<clus scale="   85.288">  1  5  2 -1</clus>
<clus scale="   91.908">  7  8 -1 -1</clus>
<clus scale="  297.891">  2 10  1 -1</clus>
<clus scale="  297.891">  2  5  1 -1</clus>
</clustering>
</event>
<event>
10    4  0.5389768E-005  0.9027322E+02  0.7546771E-02  0.1302278E+00
         -1   -1    0    0    0  501 -0.00000000000E+00  0.00000000000E+00  0.19197061716E+02  0.19197061716E+02  0.00000000000E+00 0.  1.
         21   -1    0    0  503  502  0.00000000000E+00 -0.00000000000E+00 -0.10891650269E+04  0.10891650269E+04  0.00000000000E+00 0. -1.
         24    2    1    2    0    0 -0.50400661098E+01 -0.18570711212E+02 -0.34045131069E+03  0.35030088914E+03  0.80208131758E+02 0.  0.
         23    2    1    2    0    0 -0.34107362899E+02  0.60738328623E+02 -0.35298788313E+03  0.36859223999E+03  0.80045842986E+02 0.  0.
        -11    1    3    3    0    0  0.27601771166E+02  0.16926175176E+02 -0.10176130757E+03  0.10678818706E+03  0.00000000000E+00 0.  1.
         12    1    3    3    0    0 -0.32641837275E+02 -0.35496886388E+02 -0.23869000312E+03  0.24351270207E+03  0.00000000000E+00 0. -1.
        -11    1    4    4    0    0 -0.42368640802E+02 -0.23215990732E+01 -0.14837900577E+03  0.15432699343E+03  0.00000000000E+00 0. -1.
         11    1    4    4    0    0  0.82612779031E+01  0.63059927696E+02 -0.20460887735E+03  0.21426524656E+03  0.00000000000E+00 0.  1.
         21    1    1    2  503  501 -0.19138202361E+02  0.83338209841E+01 -0.55197207085E+02  0.59012329489E+02  0.00000000000E+00 0. -1.
         -2    1    1    2    0  502  0.58285631370E+02 -0.50501438395E+02 -0.32133156431E+03  0.33045663003E+03  0.00000000000E+00 0.  1.
<scales pt_clust_5="13000.00000" pt_clust_6="13000.00000" pt_clust_7="13000.00000" pt_clust_8="13000.00000" pt_clust_9="20.87399" pt_clust_10="71.88251"></scales>
<clustering>
<clus scale="   20.874">  1  9  2 -1</clus>
<clus scale="   71.883">  2 10  1 -1</clus>
<clus scale="   80.046">  7  8 -1 -1</clus>
<clus scale="   80.208">  5  6 -1 -1</clus>
<clus scale="   90.129">  2  7  1 -1</clus>
<clus scale="   71.883">  2  5  1 -1</clus>
</clustering>
</event>
<event>
10    4  0.5389768E-005  0.1760442E+03  0.7546771E-02  0.1189065E+00
          2   -1    0    0  502    0 -0.00000000000E+00  0.00000000000E+00  0.39467981807E+03  0.39467981807E+03  0.00000000000E+00 0. -1.
         21   -1    0    0  503  502  0.00000000000E+00 -0.00000000000E+00 -0.25961644217E+03  0.25961644217E+03  0.00000000000E+00 0. -1.
         23    2    1    2    0    0  0.68724810312E+02 -0.60665339132E+02  0.23516672934E+03  0.26362689203E+03  0.76107586274E+02 0.  0.
         24    2    1    2    0    0 -0.11348795592E+03 -0.10721375165E+03 -0.10522979247E+03  0.20485414738E+03  0.80731702549E+02 0.  0.
        -13    1    4    4    0    0 -0.42292168037E+02 -0.25319840582E+02 -0.79158852092E+02  0.93251518320E+02  0.00000000000E+00 0.  1.
         14    1    4    4    0    0 -0.71195787880E+02 -0.81893911069E+02 -0.26070940376E+02  0.11160262906E+03  0.00000000000E+00 0. -1.
        -11    1    3    3    0    0  0.49140082605E+02 -0.46776666605E+02  0.22899947790E+03  0.23883794743E+03  0.00000000000E+00 0. -1.
         11    1    3    3    0    0  0.19584727707E+02 -0.13888672527E+02  0.61672514451E+01  0.24788944598E+02  0.00000000000E+00 0.  1.
         21    1    1    2  503  501  0.32672156892E+02  0.22105449385E+02  0.22742412498E+01  0.39513199082E+02  0.00000000000E+00 0. -1.
          1    1    1    2  501    0  0.12090988713E+02  0.14577364140E+03  0.28521977784E+01  0.14630202175E+03  0.00000000000E+00 0. -1.
<scales pt_clust_5="13000.00000" pt_clust_6="13000.00000" pt_clust_7="13000.00000" pt_clust_8="13000.00000" pt_clust_9="34.10840" pt_clust_10="169.66990"></scales>
<clustering>
<clus scale="   34.108">  9 10 -1 -1</clus>
<clus scale="   76.108">  7  8 -1 -1</clus>
<clus scale="   80.732">  5  6 -1 -1</clus>
<clus scale="  119.146">  1  7  2 -1</clus>
<clus scale="  169.670">  2  9  1 -1</clus>
<clus scale="  169.670">  2  5  1 -1</clus>
</clustering>
</event>
<event>
10    4  0.5389768E-005  0.1978154E+03  0.7546771E-02  0.1170649E+00
          2   -1    0    0  503    0 -0.00000000000E+00  0.00000000000E+00  0.13320076095E+03  0.13320076095E+03  0.00000000000E+00 0. -1.
         21   -1    0    0  501  502  0.00000000000E+00 -0.00000000000E+00 -0.54913675013E+03  0.54913675013E+03  0.00000000000E+00 0.  1.
         24    2    1    2    0    0 -0.31730410890E+02  0.89002201692E+02 -0.13705992867E+03  0.18568302304E+03  0.82246885152E+02 0.  0.
         23    2    1    2    0    0 -0.87460993823E+02  0.80134666212E+02 -0.47871684522E+02  0.15778701914E+03  0.92379949459E+02 0.  0.
        -13    1    3    3    0    0 -0.42921325505E+02  0.98700881151E+02 -0.10497656073E+03  0.15034687368E+03  0.00000000000E+00 0.  1.
         14    1    3    3    0    0  0.11190914614E+02 -0.96986794595E+01 -0.32083367938E+02  0.35336149357E+02  0.00000000000E+00 0. -1.
        -13    1    4    4    0    0 -0.14128945943E+01  0.29111714391E+02 -0.49832059404E+02  0.57729735236E+02  0.00000000000E+00 0.  1.
         13    1    4    4    0    0 -0.86048099229E+02  0.51022951821E+02  0.19603748825E+01  0.10005728391E+03  0.00000000000E+00 0. -1.
         21    1    1    2  503  502 -0.22212975678E+02  0.47080410471E+01 -0.12688478426E+02  0.26011140378E+02  0.00000000000E+00 0.  1.
          1    1    1    2  501    0  0.14140438039E+03 -0.17384490895E+03 -0.21831589757E+03  0.31285632852E+03  0.00000000000E+00 0. -1.
<scales pt_clust_5="13000.00000" pt_clust_6="13000.00000" pt_clust_7="13000.00000" pt_clust_8="13000.00000" pt_clust_9="22.70643" pt_clust_10="174.91958"></scales>
<clustering>
<clus scale="   22.706">  1  9  2 -1</clus>
<clus scale="   82.247">  5  6 -1 -1</clus>
<clus scale="   92.380">  7  8 -1 -1</clus>
<clus scale="  127.058">  1  5  2 -1</clus>
<clus scale="  174.920">  2 10  1 -1</clus>
<clus scale="  174.920">  2  5  1 -1</clus>
</clustering>
</event>
<event>
10    4  0.5389768E-005  0.1563434E+03  0.7546771E-02  0.1194406E+00
         21   -1    0    0  501  502  0.00000000000E+00  0.00000000000E+00  0.12832221927E+03  0.12832221927E+03  0.00000000000E+00 0. -1.
          2   -1    0    0  503    0 -0.00000000000E+00 -0.00000000000E+00 -0.69527731502E+03  0.69527731502E+03  0.00000000000E+00 0. -1.
         24    2    1    2    0    0 -0.12471025484E+02  0.11762846224E+03 -0.53145993230E+03  0.55028317924E+03  0.79811879482E+02 0.  0.
         23    2    1    2    0    0 -0.23408975710E+02 -0.91306790686E+02 -0.41173076390E+02  0.13611107090E+03  0.89140850522E+02 0.  0.
        -11    1    3    3    0    0 -0.27750409354E+02  0.41003904516E+01 -0.11260060946E+03  0.11604221504E+03  0.00000000000E+00 0.  1.
         12    1    3    3    0    0  0.15279383870E+02  0.11352807179E+03 -0.41885932284E+03  0.43424096420E+03  0.00000000000E+00 0. -1.
        -11    1    4    4    0    0 -0.53643919961E+02 -0.38213953381E+02 -0.35312053710E+02  0.74732305725E+02  0.00000000000E+00 0. -1.
         11    1    4    4    0    0  0.30234944251E+02 -0.53092837305E+02 -0.58610226795E+01  0.61378765170E+02  0.00000000000E+00 0.  1.
         21    1    1    2  503  502  0.21247635189E+01  0.29868060279E+02 -0.45206359681E+02  0.54223893262E+02  0.00000000000E+00 0. -1.
          1    1    1    2  501    0  0.33755237675E+02 -0.56189731836E+02  0.50884272624E+02  0.82981390894E+02  0.00000000000E+00 0. -1.
<scales pt_clust_5="13000.00000" pt_clust_6="13000.00000" pt_clust_7="13000.00000" pt_clust_8="13000.00000" pt_clust_9="29.94354" pt_clust_10="64.94135"></scales>
<clustering>
<clus scale="   29.944">  2  9  1 -1</clus>
<clus scale="   64.941">  1 10  2 -1</clus>
<clus scale="   79.812">  5  6 -1 -1</clus>
<clus scale="   89.141">  7  8 -1 -1</clus>
<clus scale="  151.219">  2  5  1 -1</clus>
<clus scale="   64.941">  1  5  2 -1</clus>
</clustering>
</event>
<event>
10    4  0.5389768E-005  0.3414099E+03  0.7546771E-02  0.1066197E+00
         21   -1    0    0  501  502  0.00000000000E+00  0.00000000000E+00  0.33735269803E+03  0.33735269803E+03  0.00000000000E+00 0. -1.
          2   -1    0    0  503    0 -0.00000000000E+00 -0.00000000000E+00 -0.39024108186E+03  0.39024108186E+03  0.00000000000E+00 0. -1.
         24    2    1    2    0    0  0.19522791631E+03 -0.45002621832E+02  0.70326139886E+02  0.22903305112E+03  0.85855677022E+02 0.  0.
         23    2    1    2    0    0  0.10117823944E+03 -0.18815684085E+02 -0.25280766126E+02  0.14000478620E+03  0.91494026685E+02 0.  0.
        -13    1    3    3    0    0  0.56513507083E+02 -0.25766703867E+02  0.63499383404E+02  0.88824946967E+02  0.00000000000E+00 0.  1.
         14    1    3    3    0    0  0.13871440922E+03 -0.19235917965E+02  0.68267564824E+01  0.14020810415E+03  0.00000000000E+00 0. -1.
        -13    1    4    4    0    0  0.63073064055E+01 -0.28372541668E+02  0.19153512744E+02  0.34808623720E+02  0.00000000000E+00 0. -1.
         13    1    4    4    0    0  0.94870933034E+02  0.95568575836E+01 -0.44434278870E+02  0.10519616248E+03  0.00000000000E+00 0.  1.
         21    1    1    2  503  502 -0.23343661507E+03  0.11778311337E+03 -0.82729365611E+02  0.27424380209E+03  0.00000000000E+00 0. -1.
          1    1    1    2  501    0 -0.62969540681E+02 -0.53964807456E+02 -0.15204391976E+02  0.84312140482E+02  0.00000000000E+00 0. -1.
<scales pt_clust_5="13000.00000" pt_clust_6="13000.00000" pt_clust_7="13000.00000" pt_clust_8="13000.00000" pt_clust_9="272.63575" pt_clust_10="82.92991"></scales>
<clustering>
<clus scale="   82.930">  1 10  2 -1</clus>
<clus scale="   85.856">  5  6 -1 -1</clus>
<clus scale="   91.494">  7  8 -1 -1</clus>
<clus scale="  109.469">  5  7 -1 -1</clus>
<clus scale="  272.636">  2  9  1 -1</clus>
<clus scale="   82.930">  1  5  2 -1</clus>
</clustering>
</event>
<event>
10    4  0.5389768E-005  0.1168947E+03  0.7546771E-02  0.1251501E+00
         21   -1    0    0  501  502  0.00000000000E+00  0.00000000000E+00  0.26785677631E+03  0.26785677631E+03  0.00000000000E+00 0. -1.
          2   -1    0    0  503    0 -0.00000000000E+00 -0.00000000000E+00 -0.44609042131E+03  0.44609042131E+03  0.00000000000E+00 0. -1.
         23    2    1    2    0    0 -0.32298693535E+02  0.29674401254E+02 -0.20392184262E+03  0.22665770466E+03  0.88689466614E+02 0.  0.
         24    2    1    2    0    0  0.72476616278E+02  0.48509454695E+02  0.10861480585E+03  0.16010265365E+03  0.78928173394E+02 0.  0.
        -13    1    4    4    0    0  0.49612929306E+02 -0.13566621770E+02  0.49533848534E+02  0.71407969661E+02  0.00000000000E+00 0.  1.
         14    1    4    4    0    0  0.22863686973E+02  0.62076076465E+02  0.59080957315E+02  0.88694683992E+02  0.00000000000E+00 0. -1.
        -13    1    3    3    0    0  0.29430894895E+02  0.53746804231E+01 -0.41066558852E+02  0.50808729761E+02  0.00000000000E+00 0.  1.
         13    1    3    3    0    0 -0.61729588430E+02  0.24299720831E+02 -0.16285528377E+03  0.17584897490E+03  0.00000000000E+00 0. -1.
         21    1    1    2  503  502 -0.50494376885E+02 -0.40020428983E+02 -0.19657183895E+03  0.20686180097E+03  0.00000000000E+00 0. -1.
          1    1    1    2  501    0  0.10316454141E+02 -0.38163426966E+02  0.11364523073E+03  0.12032503834E+03  0.00000000000E+00 0. -1.
<scales pt_clust_5="13000.00000" pt_clust_6="13000.00000" pt_clust_7="13000.00000" pt_clust_8="13000.00000" pt_clust_9="64.97518" pt_clust_10="39.53323"></scales>
<clustering>
<clus scale="   39.533">  1 10  2 -1</clus>
<clus scale="   64.975">  2  9  1 -1</clus>
<clus scale="   78.928">  5  6 -1 -1</clus>
<clus scale="   88.689">  7  8 -1 -1</clus>
<clus scale="  109.673">  1  5  2 -1</clus>
<clus scale="   39.533">  1  5  2 -1</clus>
</clustering>
</event>
<event>
10    4  0.5389768E-005  0.4391070E+03  0.7546771E-02  0.1031021E+00
          2   -1    0    0  503    0 -0.00000000000E+00  0.00000000000E+00  0.15970721267E+03  0.15970721267E+03  0.00000000000E+00 0. -1.
         21   -1    0    0  501  502  0.00000000000E+00 -0.00000000000E+00 -0.11653601364E+04  0.11653601364E+04  0.00000000000E+00 0. -1.
         24    2    1    2    0    0  0.36712105224E+02 -0.24134896509E+03 -0.37904875481E+03  0.45796943689E+03  0.80380003645E+02 0.  0.
         23    2    1    2    0    0 -0.10726221140E+03 -0.10174498117E+03 -0.34600339700E+03  0.38721443908E+03  0.91430016469E+02 0.  0.
        -13    1    3    3    0    0 -0.76752225520E+01 -0.18558842319E+03 -0.27413288583E+03  0.33113563831E+03  0.00000000000E+00 0.  1.
         14    1    3    3    0    0  0.44387327776E+02 -0.55760541896E+02 -0.10491586898E+03  0.12683379859E+03  0.00000000000E+00 0. -1.
        -13    1    4    4    0    0 -0.48960961140E+02 -0.73058858533E+02 -0.28435985746E+03  0.29764962802E+03  0.00000000000E+00 0.  1.
         13    1    4    4    0    0 -0.58301250259E+02 -0.28686122635E+02 -0.61643539538E+02  0.89564811061E+02  0.00000000000E+00 0. -1.
         21    1    1    2  503  502 -0.16381933771E+02 -0.11640718483E+02 -0.13752918957E+01  0.20143622035E+02  0.00000000000E+00 0.  1.
          1    1    1    2  501    0  0.86932039946E+02  0.35473466474E+03 -0.27922547999E+03  0.45973985102E+03  0.00000000000E+00 0. -1.
<scales pt_clust_5="13000.00000" pt_clust_6="13000.00000" pt_clust_7="13000.00000" pt_clust_8="13000.00000" pt_clust_9="20.09662" pt_clust_10="356.18918"></scales>
<clustering>
<clus scale="   20.097">  1  9  2 -1</clus>
<clus scale="   80.380">  5  6 -1 -1</clus>
<clus scale="   91.430">  7  8 -1 -1</clus>
<clus scale="  171.955">  5  7 -1 -1</clus>
<clus scale="  356.189">  2 10  1 -1</clus>
<clus scale="  356.189">  2  5  1 -1</clus>
</clustering>
</event>
<event>
10    4  0.5389768E-005  0.1187514E+03  0.7546771E-02  0.1248410E+00
          2   -1    0    0  503    0 -0.00000000000E+00  0.00000000000E+00  0.47923127266E+03  0.47923127266E+03  0.00000000000E+00 0. -1.
         21   -1    0    0  501  502  0.00000000000E+00 -0.00000000000E+00 -0.52702879259E+02  0.52702879259E+02  0.00000000000E+00 0. -1.
         23    2    1    2    0    0  0.26261456081E+02 -0.77297234887E+02  0.21161711004E+03  0.24448386892E+03  0.91247105724E+02 0.  0.
         24    2    1    2    0    0  0.14512011646E+01  0.71941031999E+02  0.13646793678E+03  0.17437520734E+03  0.81274824489E+02 0.  0.
        -11    1    4    4    0    0 -0.22550251977E+02  0.79925559083E+02  0.10905529862E+03  0.13707540631E+03  0.00000000000E+00 0.  1.
         12    1    4    4    0    0  0.24001453141E+02 -0.79845270846E+01  0.27412638164E+02  0.37299801028E+02  0.00000000000E+00 0. -1.
        -11    1    3    3    0    0 -0.25745327749E+02 -0.61022526040E+02  0.95539201753E+02  0.11625106304E+03  0.00000000000E+00 0. -1.
         11    1    3    3    0    0  0.52006783830E+02 -0.16274708847E+02  0.11607790829E+03  0.12823280588E+03  0.00000000000E+00 0.  1.
         21    1    1    2  503  502 -0.30697523914E+02 -0.30122982398E+02  0.57371546552E+02  0.71702345825E+02  0.00000000000E+00 0. -1.
          1    1    1    2  501    0  0.29848666685E+01  0.35479185286E+02  0.21071800028E+02  0.41372729835E+02  0.00000000000E+00 0. -1.
<scales pt_clust_5="13000.00000" pt_clust_6="13000.00000" pt_clust_7="13000.00000" pt_clust_8="13000.00000" pt_clust_9="38.66380" pt_clust_10="35.60452"></scales>
<clustering>
<clus scale="   35.605">  2 10  1 -1</clus>
<clus scale="   38.664">  2  9  1 -1</clus>
<clus scale="   81.275">  5  6 -1 -1</clus>
<clus scale="   91.247">  7  8 -1 -1</clus>
<clus scale="  111.272">  2  5  1 -1</clus>
<clus scale="   35.605">  2  5  1 -1</clus>
</clustering>
</event>
<event>
10    4  0.5389768E-005  0.2237105E+03  0.7546771E-02  0.1145909E+00
         21   -1    0    0  501  502  0.00000000000E+00  0.00000000000E+00  0.32909092898E+03  0.32909092898E+03  0.00000000000E+00 0. -1.
          2   -1    0    0  503    0 -0.00000000000E+00 -0.00000000000E+00 -0.81796263426E+03  0.81796263426E+03  0.00000000000E+00 0. -1.
         23    2    1    2    0    0  0.26713238643E+02  0.13374526479E+03  0.95475159664E+02  0.18656141426E+03  0.84191817916E+02 0.  0.
         24    2    1    2    0    0 -0.14681069350E+03 -0.19556885044E+03 -0.38743962066E+03  0.46516132887E+03  0.80405517369E+02 0.  0.
        -13    1    4    4    0    0 -0.48252301372E+02 -0.34111326916E+02 -0.46238194368E+02  0.75032245269E+02  0.00000000000E+00 0.  1.
         14    1    4    4    0    0 -0.98558392124E+02 -0.16145752352E+03 -0.34120142630E+03  0.39012908360E+03  0.00000000000E+00 0. -1.
        -13    1    3    3    0    0  0.25157355298E+02  0.42061191318E+02  0.79631954245E+02  0.93505531802E+02  0.00000000000E+00 0. -1.
         13    1    3    3    0    0  0.15558833447E+01  0.91684073474E+02  0.15843205419E+02  0.93055882456E+02  0.00000000000E+00 0.  1.
         21    1    1    2  503  502 -0.56188241460E+02 -0.43312924220E+02 -0.26867904455E+03  0.27788766951E+03  0.00000000000E+00 0. -1.
          1    1    1    2  501    0  0.17628569631E+03  0.10513650987E+03  0.71771800269E+02  0.21744315061E+03  0.00000000000E+00 0. -1.
<scales pt_clust_5="13000.00000" pt_clust_6="13000.00000" pt_clust_7="13000.00000" pt_clust_8="13000.00000" pt_clust_9="70.94454" pt_clust_10="208.76143"></scales>
<clustering>
<clus scale="   70.945">  2  9  1 -1</clus>
<clus scale="   80.406">  5  6 -1 -1</clus>
<clus scale="   84.192">  7  8 -1 -1</clus>
<clus scale="  156.541">  2  7  1 -1</clus>
<clus scale="  208.761">  1 10  2 -1</clus>
<clus scale="  208.761">  1  5  2 -1</clus>
</clustering>
</event>
<event>
10    4  0.5389768E-005  0.1213976E+03  0.7546771E-02  0.1243522E+00
         -3   -1    0    0    0  501 -0.00000000000E+00  0.00000000000E+00  0.23133279079E+03  0.23133279079E+03  0.00000000000E+00 0.  1.
         21   -1    0    0  503  502  0.00000000000E+00 -0.00000000000E+00 -0.14841379002E+03  0.14841379002E+03  0.00000000000E+00 0. -1.
         23    2    1    2    0    0  0.57965759273E+02  0.31938330117E+02 -0.24719747444E+02  0.11531975909E+03  0.91145459260E+02 0.  0.
         24    2    1    2    0    0 -0.81881290193E+02 -0.47381296697E+02 -0.10446073554E+02  0.12583249110E+03  0.82311374694E+02 0.  0.
        -13    1    4    4    0    0 -0.64734951526E+02 -0.27557519785E+01 -0.33293880932E+02  0.72847035805E+02  0.00000000000E+00 0.  1.
         14    1    4    4    0    0 -0.17146338667E+02 -0.44625544719E+02  0.22847807378E+02  0.52985455298E+02  0.00000000000E+00 0. -1.
        -13    1    3    3    0    0  0.64400247897E+02 -0.13599482435E+02 -0.21391389306E+02  0.69209315761E+02  0.00000000000E+00 0.  1.
         13    1    3    3    0    0 -0.64344886240E+01  0.45537812552E+02 -0.33283581381E+01  0.46110443327E+02  0.00000000000E+00 0. -1.
         21    1    1    2  503  501 -0.15075902058E+02 -0.15203068137E+02  0.23463089070E+02  0.31763700231E+02  0.00000000000E+00 0. -1.
         -4    1    1    2    0  502  0.38991432977E+02  0.30646034717E+02  0.94621732702E+02  0.10683063039E+03  0.00000000000E+00 0.  1.
<scales pt_clust_5="13000.00000" pt_clust_6="13000.00000" pt_clust_7="13000.00000" pt_clust_8="13000.00000" pt_clust_9="21.41065" pt_clust_10="39.10961"></scales>
<clustering>
<clus scale="   21.411">  1  9  2 -1</clus>
<clus scale="   39.110">  2 10  1 -1</clus>
<clus scale="   82.311">  5  6 -1 -1</clus>
<clus scale="   91.145">  7  8 -1 -1</clus>
<clus scale="  114.913">  2  5  1 -1</clus>
<clus scale="   39.110">  2  5  1 -1</clus>
</clustering>
</event>
<event>
10    4  0.5389768E-005  0.1122543E+03  0.7546771E-02  0.1259912E+00
         21   -1    0    0  503  502  0.00000000000E+00  0.00000000000E+00  0.26282205013E+03  0.26282205013E+03  0.00000000000E+00 0.  1.
         -3   -1    0    0    0  501 -0.00000000000E+00 -0.00000000000E+00 -0.20349235696E+03  0.20349235696E+03  0.00000000000E+00 0.  1.
         24    2    1    2    0    0 -0.49610491213E+02 -0.43012267760E+02 -0.87365456062E+02  0.13626815619E+03  0.81394296246E+02 0.  0.
         23    2    1    2    0    0  0.75049118335E+02  0.34939904644E+02  0.49459696869E+02  0.13240710069E+03  0.90731535867E+02 0.  0.
        -11    1    3    3    0    0 -0.63213020897E+02 -0.23006266620E+02 -0.89522675282E+02  0.11197983615E+03  0.00000000000E+00 0.  1.
         12    1    3    3    0    0  0.13602529684E+02 -0.20006001140E+02  0.21572192204E+01  0.24288320036E+02  0.00000000000E+00 0. -1.
        -11    1    4    4    0    0  0.41364909499E+02  0.28861800077E+02  0.74520428162E+02  0.89985295771E+02  0.00000000000E+00 0. -1.
         11    1    4    4    0    0  0.33684208836E+02  0.60781045671E+01 -0.25060731293E+02  0.42421804924E+02  0.00000000000E+00 0.  1.
         21    1    1    2  503  501 -0.95361859592E+01  0.27647588242E+02 -0.44734582024E+02  0.53446335769E+02  0.00000000000E+00 0.  1.
         -4    1    1    2    0  502 -0.15902441162E+02 -0.19575225126E+02  0.14197003438E+03  0.14419281444E+03  0.00000000000E+00 0.  1.
<scales pt_clust_5="13000.00000" pt_clust_6="13000.00000" pt_clust_7="13000.00000" pt_clust_8="13000.00000" pt_clust_9="28.77199" pt_clust_10="25.22057"></scales>
<clustering>
<clus scale="   25.221">  1 10  2 -1</clus>
<clus scale="   28.772">  2  9  1 -1</clus>
<clus scale="   81.394">  5  6 -1 -1</clus>
<clus scale="   90.732">  7  8 -1 -1</clus>
<clus scale="  104.852">  2  5  1 -1</clus>
<clus scale="   25.221">  1  5  2 -1</clus>
</clustering>
</event>
<event>
10    4  0.5389768E-005  0.9532846E+02  0.7546771E-02  0.1298759E+00
         21   -1    0    0  501  502  0.00000000000E+00  0.00000000000E+00  0.71658311458E+02  0.71658311458E+02  0.00000000000E+00 0. -1.
          2   -1    0    0  503    0 -0.00000000000E+00 -0.00000000000E+00 -0.50718403286E+03  0.50718403286E+03  0.00000000000E+00 0. -1.
         24    2    1    2    0    0 -0.86672871907E+01  0.45613063456E+02 -0.25699476944E+03  0.27302365305E+03  0.79623678487E+02 0.  0.
         23    2    1    2    0    0  0.52652902067E+01  0.13909458871E+02  0.19151262133E+01  0.94780519123E+02  0.93586765997E+02 0.  0.
        -11    1    3    3    0    0  0.17517257535E+02 -0.13794017295E+02 -0.33121648540E+02  0.39927093893E+02  0.00000000000E+00 0.  1.
         12    1    3    3    0    0 -0.26184544725E+02  0.59407080751E+02 -0.22387312090E+03  0.23309655915E+03  0.00000000000E+00 0. -1.
        -13    1    4    4    0    0 -0.31245245785E+02 -0.26010707206E+02  0.14248874339E+01  0.40679879274E+02  0.00000000000E+00 0.  1.
         13    1    4    4    0    0  0.36510535992E+02  0.39920166077E+02  0.49023877939E+00  0.54100639849E+02  0.00000000000E+00 0. -1.
         21    1    1    2  503  502 -0.14464567200E+02 -0.80466652156E+02 -0.13006202717E+03  0.15362368543E+03  0.00000000000E+00 0. -1.
          1    1    1    2  501    0  0.17866564184E+02  0.20944129829E+02 -0.50384051006E+02  0.57414486725E+02  0.00000000000E+00 0. -1.
<scales pt_clust_5="13000.00000" pt_clust_6="13000.00000" pt_clust_7="13000.00000" pt_clust_8="13000.00000" pt_clust_9="77.68318" pt_clust_10="27.52947"></scales>
<clustering>
<clus scale="   27.529">  1 10  2 -1</clus>
<clus scale="   77.683">  2  9  1 -1</clus>
<clus scale="   79.624">  5  6 -1 -1</clus>
<clus scale="   81.664">  2  5  1 -1</clus>
<clus scale="   93.587">  7  8 -1 -1</clus>
<clus scale="   27.529">  1  5  2 -1</clus>
</clustering>
</event>
<event>
10    4  0.5389768E-005  0.1308628E+03  0.7546771E-02  0.1241421E+00
         21   -1    0    0  503  502  0.00000000000E+00  0.00000000000E+00  0.51086006188E+03  0.51086006188E+03  0.00000000000E+00 0.  1.
         -3   -1    0    0    0  501 -0.00000000000E+00 -0.00000000000E+00 -0.70728196171E+02  0.70728196171E+02  0.00000000000E+00 0.  1.
         23    2    1    2    0    0 -0.10247220474E+02 -0.15242889667E+02  0.94407683623E+02  0.13489415026E+03  0.94584723056E+02 0.  0.
         24    2    1    2    0    0 -0.88873309420E+02 -0.61316628922E+02  0.15766515923E+03  0.20714341599E+03  0.79949347977E+02 0.  0.
        -13    1    4    4    0    0  0.20455663889E+01 -0.41146268347E+02  0.50176795597E+02  0.64922342511E+02  0.00000000000E+00 0.  1.
         14    1    4    4    0    0 -0.90918875809E+02 -0.20170360575E+02  0.10748836364E+03  0.14222107348E+03  0.00000000000E+00 0. -1.
        -11    1    3    3    0    0 -0.18754191915E+02  0.19602991240E+02  0.95226471933E+02  0.99015543915E+02  0.00000000000E+00 0. -1.
         11    1    3    3    0    0  0.85069714411E+01 -0.34845880907E+02 -0.81878830997E+00  0.35878606349E+02  0.00000000000E+00 0.  1.
         21    1    1    2  503  501  0.29779837777E+02  0.15509830734E+01  0.54518296757E+01  0.30314464095E+02  0.00000000000E+00 0.  1.
         -4    1    1    2    0  502  0.69340692116E+02  0.75008535516E+02  0.18260719318E+03  0.20923622771E+03  0.00000000000E+00 0.  1.
<scales pt_clust_5="13000.00000" pt_clust_6="13000.00000" pt_clust_7="13000.00000" pt_clust_8="13000.00000" pt_clust_9="29.82020" pt_clust_10="103.60102"></scales>
<clustering>
<clus scale="   29.820">  2  9  1 -1</clus>
<clus scale="   79.949">  5  6 -1 -1</clus>
<clus scale="   94.585">  7  8 -1 -1</clus>
<clus scale="   95.721">  2  7  1 -1</clus>
<clus scale="  103.601">  1 10  2 -1</clus>
<clus scale="  103.601">  1  5  2 -1</clus>
</clustering>
</event>
<event>
10    4  0.5389768E-005  0.9608741E+02  0.7546771E-02  0.1295435E+00
          2   -1    0    0  503    0 -0.00000000000E+00  0.00000000000E+00  0.14994072209E+03  0.14994072209E+03  0.00000000000E+00 0. -1.
         21   -1    0    0  501  502  0.00000000000E+00 -0.00000000000E+00 -0.22251886978E+03  0.22251886978E+03  0.00000000000E+00 0.  1.
         24    2    1    2    0    0  0.42192158206E+02  0.37614357139E+02  0.62888222553E+02  0.11522352289E+03  0.78272048736E+02 0.  0.
         23    2    1    2    0    0  0.50365414914E+01 -0.12353159855E+02 -0.66375254410E+02  0.11291854741E+03  0.90371215790E+02 0.  0.
        -13    1    3    3    0    0  0.60504844818E+02  0.30952124499E+02  0.66858934082E+02  0.95336180561E+02  0.00000000000E+00 0.  1.
         14    1    3    3    0    0 -0.18312686612E+02  0.66622326403E+01 -0.39707115292E+01  0.19887342325E+02  0.00000000000E+00 0. -1.
        -11    1    4    4    0    0  0.40240002814E+02 -0.31651749949E+02 -0.37931386565E+02  0.63717196957E+02  0.00000000000E+00 0.  1.
         11    1    4    4    0    0 -0.35203461322E+02  0.19298590095E+02 -0.28443867845E+02  0.49201350456E+02  0.00000000000E+00 0. -1.
         21    1    1    2  503  502 -0.32448512493E+02 -0.31918925368E+01  0.28420564894E+02  0.43253007408E+02  0.00000000000E+00 0. -1.
          1    1    1    2  501    0 -0.14780187204E+02 -0.22069304747E+02 -0.97511680725E+02  0.10106451417E+03  0.00000000000E+00 0. -1.
<scales pt_clust_5="13000.00000" pt_clust_6="13000.00000" pt_clust_7="13000.00000" pt_clust_8="13000.00000" pt_clust_9="33.64303" pt_clust_10="26.56140"></scales>
<clustering>
<clus scale="   26.561">  2 10  1 -1</clus>
<clus scale="   33.643">  1  9  2 -1</clus>
<clus scale="   78.272">  5  6 -1 -1</clus>
<clus scale="   84.808">  1  5  2 -1</clus>
<clus scale="   90.371">  7  8 -1 -1</clus>
<clus scale="   26.561">  2  5  1 -1</clus>
</clustering>
</event>
<event>
10    4  0.5389768E-005  0.2146869E+03  0.7546771E-02  0.1138793E+00
         21   -1    0    0  501  502  0.00000000000E+00  0.00000000000E+00  0.51532578684E+03  0.51532578684E+03  0.00000000000E+00 0. -1.
          2   -1    0    0  503    0 -0.00000000000E+00 -0.00000000000E+00 -0.27025401487E+03  0.27025401487E+03  0.00000000000E+00 0. -1.
         24    2    1    2    0    0  0.21792672782E+02 -0.19653416450E+03 -0.12809448201E+03  0.24910193971E+03  0.80888699111E+02 0.  0.
         23    2    1    2    0    0 -0.92165946414E+02  0.16049147945E+03  0.30806305572E+03  0.37098785395E+03  0.92070977111E+02 0.  0.
        -11    1    3    3    0    0 -0.45567015564E+01 -0.10167204375E+03 -0.21544452091E+02  0.10402947383E+03  0.00000000000E+00 0.  1.
         12    1    3    3    0    0  0.26349374339E+02 -0.94862120749E+02 -0.10655002992E+03  0.14507246588E+03  0.00000000000E+00 0. -1.
        -11    1    4    4    0    0  0.14594908784E+01  0.86286664588E+02  0.14692168371E+03  0.17039219390E+03  0.00000000000E+00 0.  1.
         11    1    4    4    0    0 -0.93625437292E+02  0.74204814861E+02  0.16114137201E+03  0.20059566005E+03  0.00000000000E+00 0. -1.
         21    1    1    2  503  502 -0.34765063708E+02 -0.57115936609E+01  0.53677971255E+00  0.35235210930E+02  0.00000000000E+00 0. -1.
          1    1    1    2  501    0  0.10513833734E+03  0.41754278713E+02  0.64566418545E+02  0.13025479712E+03  0.00000000000E+00 0. -1.
<scales pt_clust_5="13000.00000" pt_clust_6="13000.00000" pt_clust_7="13000.00000" pt_clust_8="13000.00000" pt_clust_9="35.23112" pt_clust_10="108.66053"></scales>
<clustering>
<clus scale="   35.231">  2  9  1 -1</clus>
<clus scale="   80.889">  5  6 -1 -1</clus>
<clus scale="   92.071">  7  8 -1 -1</clus>
<clus scale="  108.661">  1 10  2 -1</clus>
<clus scale="  210.134">  2  5  1 -1</clus>
<clus scale="  108.661">  1  5  2 -1</clus>
</clustering>
</event>
<event>
10    4  0.5389768E-005  0.9977166E+02  0.7546771E-02  0.1286597E+00
         -3   -1    0    0    0  501 -0.00000000000E+00  0.00000000000E+00  0.29773798733E+03  0.29773798733E+03  0.00000000000E+00 0.  1.
         21   -1    0    0  503  502  0.00000000000E+00 -0.00000000000E+00 -0.26574777551E+03  0.26574777551E+03  0.00000000000E+00 0. -1.
         24    2    1    2    0    0 -0.21104890622E+01  0.40313536463E+02  0.70689310224E+02  0.11903419439E+03  0.86847714235E+02 0.  0.
         23    2    1    2    0    0  0.23643694816E+02 -0.56054067644E+02 -0.11408619777E+03  0.16194721510E+03  0.97520034619E+02 0.  0.
        -11    1    3    3    0    0  0.20238308542E+02  0.18800046889E+02  0.81601385037E+02  0.86149967705E+02  0.00000000000E+00 0.  1.
         12    1    3    3    0    0 -0.22348797604E+02  0.21513489573E+02 -0.10912074812E+02  0.32884226685E+02  0.00000000000E+00 0. -1.
        -11    1    4    4    0    0  0.55280270990E+02 -0.24744475078E+02 -0.31829662780E+02  0.68420207836E+02  0.00000000000E+00 0.  1.
         11    1    4    4    0    0 -0.31636576174E+02 -0.31309592566E+02 -0.82256534991E+02  0.93527007262E+02  0.00000000000E+00 0. -1.
         21    1    1    2  503  501  0.33414650533E+02 -0.47229269078E+02  0.15600363594E+03  0.16638592835E+03  0.00000000000E+00 0.  1.
         -4    1    1    2    0  502 -0.54947856287E+02  0.62969800260E+02 -0.80616536570E+02  0.11611842500E+03  0.00000000000E+00 0.  1.
<scales pt_clust_5="13000.00000" pt_clust_6="13000.00000" pt_clust_7="13000.00000" pt_clust_8="13000.00000" pt_clust_9="57.85450" pt_clust_10="76.09459"></scales>
<clustering>
<clus scale="   57.854">  1  9  2 -1</clus>
<clus scale="   76.095">  2 10  1 -1</clus>
<clus scale="   86.848">  5  6 -1 -1</clus>
<clus scale="   89.369">  1  5  2 -1</clus>
<clus scale="   97.520">  7  8 -1 -1</clus>
<clus scale="   76.095">  2  5  1 -1</clus>
</clustering>
</event>
<event>
10    4  0.5389768E-005  0.2082884E+03  0.7546771E-02  0.1153442E+00
          2   -1    0    0  503    0 -0.00000000000E+00  0.00000000000E+00  0.19443510710E+04  0.19443510710E+04  0.00000000000E+00 0. -1.
         21   -1    0    0  501  502  0.00000000000E+00 -0.00000000000E+00 -0.18869984941E+03  0.18869984941E+03  0.00000000000E+00 0.  1.
         23    2    1    2    0    0  0.13642773713E+03 -0.68080421364E+02  0.62111885613E+02  0.19100039044E+03  0.96828671280E+02 0.  0.
         24    2    1    2    0    0 -0.75450000166E+02 -0.13125061287E+03  0.28437313612E+03  0.33191625348E+03  0.79880491183E+02 0.  0.
        -13    1    4    4    0    0 -0.50057987856E+02 -0.18834624667E+02  0.65566426202E+02  0.84613837399E+02  0.00000000000E+00 0.  1.
         14    1    4    4    0    0 -0.25392012310E+02 -0.11241598820E+03  0.21880670992E+03  0.24730241608E+03  0.00000000000E+00 0. -1.
        -13    1    3    3    0    0  0.72011046519E+02 -0.87272079954E+02  0.43880358853E+02  0.12135688136E+03  0.00000000000E+00 0.  1.
         13    1    3    3    0    0  0.64416690615E+02  0.19191658591E+02  0.18231526759E+02  0.69643509082E+02  0.00000000000E+00 0. -1.
         21    1    1    2  503  502 -0.88053073152E+02  0.16824766295E+03  0.14991650866E+04  0.15111441284E+04  0.00000000000E+00 0. -1.
          1    1    1    2  501    0  0.27075336184E+02  0.31083371280E+02 -0.89998886781E+02  0.98990148103E+02  0.00000000000E+00 0. -1.
<scales pt_clust_5="13000.00000" pt_clust_6="13000.00000" pt_clust_7="13000.00000" pt_clust_8="13000.00000" pt_clust_9="184.41333" pt_clust_10="41.22196"></scales>
<clustering>
<clus scale="   41.222">  2 10  1 -1</clus>
<clus scale="   79.880">  5  6 -1 -1</clus>
<clus scale="   96.829">  7  8 -1 -1</clus>
<clus scale="  162.230">  2  5  1 -1</clus>
<clus scale="  184.413">  1  9  2 -1</clus>
<clus scale="   41.222">  2  5  1 -1</clus>
</clustering>
</event>
<event>
10    4  0.8133534E-005  0.3349816E+03  0.7546771E-02  0.1118596E+00
         21   -1    0    0  501  502  0.00000000000E+00  0.00000000000E+00  0.20567884839E+03  0.20567884839E+03  0.00000000000E+00 0.  1.
          4   -1    0    0  503    0 -0.00000000000E+00 -0.00000000000E+00 -0.81371623186E+03  0.81371623186E+03  0.00000000000E+00 0. -1.
         23    2    1    2    0    0  0.15538819258E+02 -0.20484726713E+01 -0.16831247366E+03  0.19161769891E+03  0.90236370740E+02 0.  0.
         24    2    1    2    0    0  0.17159297647E+03  0.26679157008E+03 -0.20252175140E+03  0.38461526365E+03  0.79321811655E+02 0.  0.
        -11    1    4    4    0    0  0.13596939663E+03  0.25531195792E+03 -0.18433218847E+03  0.34300179064E+03  0.00000000000E+00 0.  1.
         12    1    4    4    0    0  0.35623579848E+02  0.11479612155E+02 -0.18189562929E+02  0.41613473010E+02  0.00000000000E+00 0. -1.
        -11    1    3    3    0    0  0.36339325962E+02  0.21703946422E+02 -0.14833395588E+03  0.15425488766E+03  0.00000000000E+00 0. -1.
         11    1    3    3    0    0 -0.20800506704E+02 -0.23752419093E+02 -0.19978517780E+02  0.37362811251E+02  0.00000000000E+00 0.  1.
         21    1    1    2  503  502 -0.20033296198E+02  0.23910839650E+02 -0.54686667844E+02  0.62957865666E+02  0.00000000000E+00 0.  1.
          3    1    1    2  501    0 -0.16709849953E+03 -0.28865393706E+03 -0.18251649056E+03  0.38020425202E+03  0.00000000000E+00 0. -1.
<scales pt_clust_5="13000.00000" pt_clust_6="13000.00000" pt_clust_7="13000.00000" pt_clust_8="13000.00000" pt_clust_9="31.19393" pt_clust_10="325.45465"></scales>
<clustering>
<clus scale="   31.194">  2  9  1 -1</clus>
<clus scale="   79.322">  5  6 -1 -1</clus>
<clus scale="   90.236">  7  8 -1 -1</clus>
<clus scale="   90.949">  2  7  1 -1</clus>
<clus scale="  325.455">  1 10  2 -1</clus>
<clus scale="  325.455">  1  5  2 -1</clus>
</clustering>
</event>
<event>
10    4  0.5389768E-005  0.9798184E+02  0.7546771E-02  0.1291357E+00
          2   -1    0    0  503    0 -0.00000000000E+00  0.00000000000E+00  0.42945821986E+03  0.42945821986E+03  0.00000000000E+00 0. -1.
         21   -1    0    0  501  502  0.00000000000E+00 -0.00000000000E+00 -0.10496430574E+03  0.10496430574E+03  0.00000000000E+00 0.  1.
         23    2    1    2    0    0  0.16574579116E+02  0.71525650018E+01  0.27293628794E+02  0.99034217589E+02  0.93471697437E+02 0.  0.
         24    2    1    2    0    0  0.80687132880E+02  0.49878936788E+01  0.22444058641E+02  0.11671587702E+03  0.81139187110E+02 0.  0.
        -13    1    4    4    0    0  0.53823101967E+02  0.42325862276E+02  0.11453472825E+02  0.69423245116E+02  0.00000000000E+00 0.  1.
         14    1    4    4    0    0  0.26864030913E+02 -0.37337968597E+02  0.10990585816E+02  0.47292631905E+02  0.00000000000E+00 0. -1.
        -11    1    3    3    0    0  0.33925396545E+02  0.18180849292E+02 -0.22904322089E+02  0.44789326653E+02  0.00000000000E+00 0.  1.
         11    1    3    3    0    0 -0.17350817429E+02 -0.11028284290E+02  0.50197950883E+02  0.54244890936E+02  0.00000000000E+00 0. -1.
         21    1    1    2  503  502 -0.57635465918E+02 -0.52037905366E+02  0.64253466716E+02  0.10078838480E+03  0.00000000000E+00 0.  1.
          1    1    1    2  501    0 -0.39626246078E+02  0.39897446685E+02  0.21050275996E+03  0.21788404618E+03  0.00000000000E+00 0. -1.
<scales pt_clust_5="13000.00000" pt_clust_6="13000.00000" pt_clust_7="13000.00000" pt_clust_8="13000.00000" pt_clust_9="78.78831" pt_clust_10="56.23210"></scales>
<clustering>
<clus scale="   56.232">  2 10  1 -1</clus>
<clus scale="   78.788">  1  9  2 -1</clus>
<clus scale="   81.139">  5  6 -1 -1</clus>
<clus scale="   86.296">  2  5  1 -1</clus>
<clus scale="   93.472">  7  8 -1 -1</clus>
<clus scale="   56.232">  2  5  1 -1</clus>
</clustering>
</event>
<event>
10    4  0.5389768E-005  0.1819402E+03  0.7546771E-02  0.1167270E+00
         21   -1    0    0  503  502  0.00000000000E+00  0.00000000000E+00  0.44901661736E+02  0.44901661736E+02  0.00000000000E+00 0.  1.
         -3   -1    0    0    0  501 -0.00000000000E+00 -0.00000000000E+00 -0.14858630102E+04  0.14858630102E+04  0.00000000000E+00 0.  1.
         23    2    1    2    0    0  0.14233255865E+03 -0.16806536622E+02 -0.83320089534E+03  0.85030395888E+03  0.90840924514E+02 0.  0.
         24    2    1    2    0    0 -0.15035428024E+03 -0.42442307916E+02 -0.32119624883E+03  0.36586815773E+03  0.79276222740E+02 0.  0.
        -11    1    4    4    0    0 -0.12599619365E+03 -0.19469701274E+01 -0.25615518814E+03  0.28547208606E+03  0.00000000000E+00 0.  1.
         12    1    4    4    0    0 -0.24358086586E+02 -0.40495337788E+02 -0.65041060693E+02  0.80396071675E+02  0.00000000000E+00 0. -1.
        -11    1    3    3    0    0  0.12240288100E+03 -0.47063339166E+02 -0.70445765981E+03  0.71655984930E+03  0.00000000000E+00 0.  1.
         11    1    3    3    0    0  0.19929677657E+02  0.30256802544E+02 -0.12874323553E+03  0.13374410958E+03  0.00000000000E+00 0. -1.
         21    1    1    2  503  501  0.34011630861E+02  0.45453698168E+02 -0.27829811411E+03  0.28402934712E+03  0.00000000000E+00 0.  1.
         -4    1    1    2    0  502 -0.25989909278E+02  0.13795146370E+02 -0.82660901637E+01  0.30563208180E+02  0.00000000000E+00 0.  1.
<scales pt_clust_5="13000.00000" pt_clust_6="13000.00000" pt_clust_7="13000.00000" pt_clust_8="13000.00000" pt_clust_9="56.43975" pt_clust_10="29.42416"></scales>
<clustering>
<clus scale="   29.424">  1 10  2 -1</clus>
<clus scale="   56.440">  2  9  1 -1</clus>
<clus scale="   79.276">  5  6 -1 -1</clus>
<clus scale="   90.841">  7  8 -1 -1</clus>
<clus scale="  176.451">  1  5  2 -1</clus>
<clus scale="   29.424">  1  5  2 -1</clus>
</clustering>
</event>
<event>
10    4  0.5389768E-005  0.2997616E+03  0.7546771E-02  0.1085681E+00
         21   -1    0    0  501  502  0.00000000000E+00  0.00000000000E+00  0.31901678802E+03  0.31901678802E+03  0.00000000000E+00 0. -1.
          4   -1    0    0  503    0 -0.00000000000E+00 -0.00000000000E+00 -0.92872025331E+03  0.92872025331E+03  0.00000000000E+00 0. -1.
         23    2    1    2    0    0  0.28117062569E+03 -0.42891924566E+02 -0.47086752357E+03  0.55801797996E+03  0.93654702279E+02 0.  0.
         24    2    1    2    0    0 -0.28580633873E+03  0.79059265743E+01  0.30578338025E+02  0.29988404169E+03  0.85133053316E+02 0.  0.
        -13    1    4    4    0    0 -0.38411245337E+02  0.28965079742E+02 -0.75065736164E+01  0.48690330254E+02  0.00000000000E+00 0.  1.
         14    1    4    4    0    0 -0.24739509340E+03 -0.21059153167E+02  0.38084911641E+02  0.25119371143E+03  0.00000000000E+00 0. -1.
        -13    1    3    3    0    0  0.67403742403E+02 -0.34856233461E+02 -0.19273659073E+03  0.20713670584E+03  0.00000000000E+00 0.  1.
         13    1    3    3    0    0  0.21376688329E+03 -0.80356911058E+01 -0.27813093284E+03  0.35088127411E+03  0.00000000000E+00 0. -1.
         21    1    1    2  503  502 -0.55072475029E+01 -0.37681455671E+02 -0.26590417032E+03  0.26861729221E+03  0.00000000000E+00 0. -1.
          3    1    1    2  501    0  0.10142960544E+02  0.72667453663E+02  0.96489890577E+02  0.12121772747E+03  0.00000000000E+00 0. -1.
<scales pt_clust_5="13000.00000" pt_clust_6="13000.00000" pt_clust_7="13000.00000" pt_clust_8="13000.00000" pt_clust_9="38.08178" pt_clust_10="72.66011"></scales>
<clustering>
<clus scale="   38.082">  2  9  1 -1</clus>
<clus scale="   72.660">  1 10  2 -1</clus>
<clus scale="   85.133">  5  6 -1 -1</clus>
<clus scale="   93.655">  7  8 -1 -1</clus>
<clus scale="  297.209">  1  5  2 -1</clus>
<clus scale="   72.660">  1  5  2 -1</clus>
</clustering>
</event>
<event>
10    4  0.5389768E-005  0.1266513E+03  0.7546771E-02  0.1236204E+00
          2   -1    0    0  503    0 -0.00000000000E+00  0.00000000000E+00  0.11539230790E+03  0.11539230790E+03  0.00000000000E+00 0. -1.
         21   -1    0    0  501  502  0.00000000000E+00 -0.00000000000E+00 -0.38297615184E+03  0.38297615184E+03  0.00000000000E+00 0.  1.
         24    2    1    2    0    0 -0.29759167554E+02  0.73143168254E+02  0.61477896353E+01  0.11270740732E+03  0.80184993809E+02 0.  0.
         23    2    1    2    0    0 -0.19371884152E+02 -0.11656353717E+03 -0.12515739062E+03  0.19572956149E+03  0.93184551944E+02 0.  0.
        -13    1    3    3    0    0 -0.15081927236E+02  0.16641491807E+02 -0.34788146016E+02  0.41407956747E+02  0.00000000000E+00 0.  1.
         14    1    3    3    0    0 -0.14677240318E+02  0.56501676448E+02  0.40935935652E+02  0.71299450576E+02  0.00000000000E+00 0. -1.
        -11    1    4    4    0    0  0.11866699334E+02 -0.95523273057E+02 -0.12537605060E+03  0.15806539252E+03  0.00000000000E+00 0.  1.
         11    1    4    4    0    0 -0.31238583486E+02 -0.21040264112E+02  0.21865997620E+00  0.37664168971E+02  0.00000000000E+00 0. -1.
         21    1    1    2  503  502  0.62064520183E+02  0.59146186515E+02 -0.76049568508E+02  0.11460284863E+03  0.00000000000E+00 0.  1.
          1    1    1    2  501    0 -0.12933468476E+02 -0.15725817600E+02 -0.72524674449E+02  0.75328642294E+02  0.00000000000E+00 0. -1.
<scales pt_clust_5="13000.00000" pt_clust_6="13000.00000" pt_clust_7="13000.00000" pt_clust_8="13000.00000" pt_clust_9="79.50306" pt_clust_10="20.36114"></scales>
<clustering>
<clus scale="   20.361">  2 10  1 -1</clus>
<clus scale="   79.503">  2  9  1 -1</clus>
<clus scale="   80.185">  5  6 -1 -1</clus>
<clus scale="   93.185">  7  8 -1 -1</clus>
<clus scale="  117.417">  1  5  2 -1</clus>
<clus scale="   20.361">  2  5  1 -1</clus>
</clustering>
</event>
<event>
10    4  0.5389768E-005  0.1969932E+03  0.7546771E-02  0.1154117E+00
          2   -1    0    0  503    0 -0.00000000000E+00  0.00000000000E+00  0.14423926857E+04  0.14423926857E+04  0.00000000000E+00 0. -1.
         21   -1    0    0  501  502  0.00000000000E+00 -0.00000000000E+00 -0.92078251724E+02  0.92078251724E+02  0.00000000000E+00 0. -1.
         23    2    1    2    0    0 -0.68639032528E+02  0.10861150114E+03  0.28574588835E+03  0.32636344642E+03  0.91403563853E+02 0.  0.
         24    2    1    2    0    0 -0.31956526190E+02 -0.24131391997E+03  0.73227538504E+03  0.77501820220E+03  0.71919028580E+02 0.  0.
        -11    1    4    4    0    0  0.16073239336E+02 -0.75531737458E+02  0.16722175820E+03  0.18419150035E+03  0.00000000000E+00 0.  1.
         12    1    4    4    0    0 -0.48029765527E+02 -0.16578218251E+03  0.56505362684E+03  0.59082670185E+03  0.00000000000E+00 0. -1.
        -11    1    3    3    0    0  0.18431015942E+02  0.29325096041E+02  0.10566456512E+03  0.11119651042E+03  0.00000000000E+00 0.  1.
         11    1    3    3    0    0 -0.87070048470E+02  0.79286405097E+02  0.18008132323E+03  0.21516693600E+03  0.00000000000E+00 0. -1.
         21    1    1    2  503  502  0.38557205725E+02  0.43735451775E+01  0.27778868330E+03  0.28048589729E+03  0.00000000000E+00 0. -1.
          1    1    1    2  501    0  0.62038352993E+02  0.12832887365E+03  0.54504477284E+02  0.15260339151E+03  0.00000000000E+00 0. -1.
<scales pt_clust_5="13000.00000" pt_clust_6="13000.00000" pt_clust_7="13000.00000" pt_clust_8="13000.00000" pt_clust_9="38.80446" pt_clust_10="144.41190"></scales>
<clustering>
<clus scale="   38.804">  1  9  2 -1</clus>
<clus scale="   71.919">  5  6 -1 -1</clus>
<clus scale="   91.404">  7  8 -1 -1</clus>
<clus scale="  144.412">  2 10  1 -1</clus>
<clus scale="  188.743">  2  5  1 -1</clus>
<clus scale="  144.412">  2  5  1 -1</clus>
</clustering>
</event>
<event>
10    4  0.5389768E-005  0.1566586E+03  0.7546771E-02  0.1200145E+00
         -3   -1    0    0    0  501 -0.00000000000E+00  0.00000000000E+00  0.14048757979E+03  0.14048757979E+03  0.00000000000E+00 0.  1.
         21   -1    0    0  503  502  0.00000000000E+00 -0.00000000000E+00 -0.49042461255E+03  0.49042461255E+03  0.00000000000E+00 0.  1.
         23    2    1    2    0    0 -0.11678462177E+02 -0.82220836145E+02  0.23903196129E+02  0.12522249549E+03  0.90623717738E+02 0.  0.
         24    2    1    2    0    0 -0.10072669562E+03 -0.34305458746E+02 -0.12399761519E+03  0.18154805325E+03  0.79129990235E+02 0.  0.
        -13    1    4    4    0    0 -0.10456478910E+03 -0.50222151074E+02 -0.11204377105E+03  0.16127574588E+03  0.00000000000E+00 0.  1.
         14    1    4    4    0    0  0.38380934823E+01  0.15916692327E+02 -0.11953844147E+02  0.20272307370E+02  0.00000000000E+00 0. -1.
        -13    1    3    3    0    0  0.26147526407E+02 -0.27067203549E+02 -0.22477047323E+02  0.43835422909E+02  0.00000000000E+00 0.  1.
         13    1    3    3    0    0 -0.37825988584E+02 -0.55153632595E+02  0.46380243452E+02  0.81387072582E+02  0.00000000000E+00 0. -1.
         21    1    1    2  503  501  0.64573405019E+01 -0.25459770823E+02 -0.15950170113E+02  0.30729547725E+02  0.00000000000E+00 0.  1.
         -4    1    1    2    0  502  0.10594781729E+03  0.14198606571E+03 -0.23389244358E+03  0.29341209588E+03  0.00000000000E+00 0.  1.
<scales pt_clust_5="13000.00000" pt_clust_6="13000.00000" pt_clust_7="13000.00000" pt_clust_8="13000.00000" pt_clust_9="26.26589" pt_clust_10="135.20493"></scales>
<clustering>
<clus scale="   26.266">  1  9  2 -1</clus>
<clus scale="   79.130">  5  6 -1 -1</clus>
<clus scale="   90.624">  7  8 -1 -1</clus>
<clus scale="  132.615">  1  7  2 -1</clus>
<clus scale="  135.205">  2 10  1 -1</clus>
<clus scale="  135.205">  2  5  1 -1</clus>
</clustering>
</event>
<event>
10    4  0.5389768E-005  0.1029640E+03  0.7546771E-02  0.1279781E+00
         21   -1    0    0  503  502  0.00000000000E+00  0.00000000000E+00  0.41128799166E+03  0.41128799166E+03  0.00000000000E+00 0. -1.
         -1   -1    0    0    0  501 -0.00000000000E+00 -0.00000000000E+00 -0.39413897390E+03  0.39413897390E+03  0.00000000000E+00 0.  1.
         23    2    1    2    0    0 -0.54363331462E+02  0.21491916914E+02 -0.13737741106E+03  0.17508016849E+03  0.91450741006E+02 0.  0.
         24    2    1    2    0    0  0.77381202336E+02  0.37742270283E+02  0.85781308530E+02  0.14522770445E+03  0.79500464175E+02 0.  0.
        -11    1    4    4    0    0  0.31670601535E+02 -0.55501241342E+01 -0.71879841018E+01  0.32946896590E+02  0.00000000000E+00 0.  1.
         12    1    4    4    0    0  0.45710600801E+02  0.43292394417E+02  0.92969292632E+02  0.11228080785E+03  0.00000000000E+00 0. -1.
        -13    1    3    3    0    0 -0.41149774593E+01  0.41522608186E+02 -0.10262953671E+03  0.11078755271E+03  0.00000000000E+00 0.  1.
         13    1    3    3    0    0 -0.50248354003E+02 -0.20030691272E+02 -0.34747874350E+02  0.64292615787E+02  0.00000000000E+00 0. -1.
         21    1    1    2  503  501  0.15531585350E+02 -0.29574477847E+02 -0.20468685334E+03  0.20739476323E+03  0.00000000000E+00 0.  1.
         -2    1    1    2    0  502 -0.38549456224E+02 -0.29659709350E+02  0.27343197363E+03  0.27772432939E+03  0.00000000000E+00 0.  1.
<scales pt_clust_5="13000.00000" pt_clust_6="13000.00000" pt_clust_7="13000.00000" pt_clust_8="13000.00000" pt_clust_9="33.40479" pt_clust_10="48.70583"></scales>
<clustering>
<clus scale="   33.405">  2  9  1 -1</clus>
<clus scale="   48.706">  1 10  2 -1</clus>
<clus scale="   79.500">  5  6 -1 -1</clus>
<clus scale="   91.451">  7  8 -1 -1</clus>
<clus scale="   92.513">  1  5  2 -1</clus>
<clus scale="   48.706">  1  5  2 -1</clus>
</clustering>
</event>
<event>
10    4  0.5389768E-005  0.9274975E+02  0.7546771E-02  0.1301222E+00
         -3   -1    0    0    0  501 -0.00000000000E+00  0.00000000000E+00  0.46847600733E+03  0.46847600733E+03  0.00000000000E+00 0.  1.
         21   -1    0    0  503  502  0.00000000000E+00 -0.00000000000E+00 -0.85700803088E+02  0.85700803088E+02  0.00000000000E+00 0.  1.
         23    2    1    2    0    0 -0.16804821325E+02  0.18105397130E+02  0.13279830909E+03  0.16147568888E+03  0.88480505058E+02 0.  0.
         24    2    1    2    0    0  0.35698092656E+02  0.27657240783E+02  0.69195646254E+02  0.11503365052E+03  0.80033908472E+02 0.  0.
        -11    1    4    4    0    0 -0.10564716669E+02  0.41745966346E+02  0.38428758624E+02  0.57715755508E+02  0.00000000000E+00 0.  1.
         12    1    4    4    0    0  0.46262809325E+02 -0.14088725563E+02  0.30766887630E+02  0.57317895016E+02  0.00000000000E+00 0. -1.
        -11    1    3    3    0    0  0.22626113241E+02  0.28820398225E+02  0.10712682953E+03  0.11321975958E+03  0.00000000000E+00 0.  1.
         11    1    3    3    0    0 -0.39430934566E+02 -0.10715001095E+02  0.25671479561E+02  0.48255929294E+02  0.00000000000E+00 0. -1.
         21    1    1    2  503  501 -0.12404196929E+02 -0.26297280486E+02  0.22607805835E+03  0.22794012268E+03  0.00000000000E+00 0.  1.
         -4    1    1    2    0  502 -0.64890744018E+01 -0.19465357427E+02 -0.45296809450E+02  0.49727348338E+02  0.00000000000E+00 0.  1.
<scales pt_clust_5="13000.00000" pt_clust_6="13000.00000" pt_clust_7="13000.00000" pt_clust_8="13000.00000" pt_clust_9="29.57271" pt_clust_10="20.51848"></scales>
<clustering>
<clus scale="   20.518">  2 10  1 -1</clus>
<clus scale="   29.573">  1  9  2 -1</clus>
<clus scale="   80.034">  5  6 -1 -1</clus>
<clus scale="   84.730">  2  5  1 -1</clus>
<clus scale="   88.481">  7  8 -1 -1</clus>
<clus scale="   20.518">  2  5  1 -1</clus>
</clustering>
</event>
<event>
10    4  0.5389768E-005  0.1263622E+03  0.7546771E-02  0.1235721E+00
         21   -1    0    0  501  502  0.00000000000E+00  0.00000000000E+00  0.11289485771E+03  0.11289485771E+03  0.00000000000E+00 0. -1.
          2   -1    0    0  503    0 -0.00000000000E+00 -0.00000000000E+00 -0.63993342831E+03  0.63993342831E+03  0.00000000000E+00 0. -1.
         24    2    1    2    0    0 -0.10580175467E+03 -0.14409903977E+02 -0.19036951399E+03  0.23369409445E+03  0.83490845607E+02 0.  0.
         23    2    1    2    0    0  0.55777358051E+02  0.11409267837E+02  0.51517070461E+02  0.12073843909E+03  0.93179810374E+02 0.  0.
        -13    1    3    3    0    0 -0.43797699496E+02  0.20102323864E+02 -0.26218177406E+02  0.54861049319E+02  0.00000000000E+00 0.  1.
         14    1    3    3    0    0 -0.62004055174E+02 -0.34512227841E+02 -0.16415133659E+03  0.17883304514E+03  0.00000000000E+00 0. -1.
        -11    1    4    4    0    0  0.54545805955E+02 -0.29736140424E+02  0.11212677566E+02  0.63128496995E+02  0.00000000000E+00 0.  1.
         11    1    4    4    0    0  0.12315520960E+01  0.41145408262E+02  0.40304392895E+02  0.57609942095E+02  0.00000000000E+00 0. -1.
         21    1    1    2  503  502  0.30553297259E+02 -0.25427010826E+02 -0.31506839267E+03  0.31756594419E+03  0.00000000000E+00 0. -1.
          1    1    1    2  501    0  0.19471099360E+02  0.28427646966E+02 -0.73117734406E+02  0.80829808282E+02  0.00000000000E+00 0. -1.
<scales pt_clust_5="13000.00000" pt_clust_6="13000.00000" pt_clust_7="13000.00000" pt_clust_8="13000.00000" pt_clust_9="39.71476" pt_clust_10="34.45658"></scales>
<clustering>
<clus scale="   34.457">  1 10  2 -1</clus>
<clus scale="   39.715">  2  9  1 -1</clus>
<clus scale="   83.491">  5  6 -1 -1</clus>
<clus scale="   93.180">  7  8 -1 -1</clus>
<clus scale="  119.397">  2  5  1 -1</clus>
<clus scale="   34.457">  1  5  2 -1</clus>
</clustering>
</event>
<event>
10    4  0.5389768E-005  0.1150343E+03  0.7546771E-02  0.1266844E+00
         21   -1    0    0  501  502  0.00000000000E+00  0.00000000000E+00  0.50469855117E+03  0.50469855117E+03  0.00000000000E+00 0.  1.
          2   -1    0    0  503    0 -0.00000000000E+00 -0.00000000000E+00 -0.12349380853E+03  0.12349380853E+03  0.00000000000E+00 0. -1.
         23    2    1    2    0    0 -0.17651594627E+02  0.17948312810E+02  0.95078574901E+02  0.12861295890E+03  0.82871207702E+02 0.  0.
         24    2    1    2    0    0 -0.42953814460E+02  0.70769608620E+02  0.30148369557E+03  0.32296553162E+03  0.80999680485E+02 0.  0.
        -13    1    4    4    0    0 -0.19159868950E+01  0.64811414426E+02  0.24143329979E+03  0.24998845712E+03  0.00000000000E+00 0.  1.
         14    1    4    4    0    0 -0.41037827565E+02  0.59581941938E+01  0.60050395789E+02  0.72977074508E+02  0.00000000000E+00 0. -1.
        -13    1    3    3    0    0 -0.44777025434E+02 -0.10685486961E+02  0.40768890830E+02  0.61491984013E+02  0.00000000000E+00 0.  1.
         13    1    3    3    0    0  0.27125430808E+02  0.28633799770E+02  0.54309684072E+02  0.67120974887E+02  0.00000000000E+00 0. -1.
         21    1    1    2  503  502  0.76369966150E+02  0.56197588271E+01 -0.24826824284E+02  0.80500463496E+02  0.00000000000E+00 0. -1.
          1    1    1    2  501    0 -0.15764557063E+02 -0.94337680257E+02  0.94692964547E+01  0.96113405678E+02  0.00000000000E+00 0. -1.
<scales pt_clust_5="13000.00000" pt_clust_6="13000.00000" pt_clust_7="13000.00000" pt_clust_8="13000.00000" pt_clust_9="76.57645" pt_clust_10="81.68198"></scales>
<clustering>
<clus scale="   76.576">  2  9  1 -1</clus>
<clus scale="   81.000">  5  6 -1 -1</clus>
<clus scale="   82.871">  7  8 -1 -1</clus>
<clus scale="   85.085">  2  7  1 -1</clus>
<clus scale="   81.682">  1 10  2 -1</clus>
<clus scale="   81.682">  1  5  2 -1</clus>
</clustering>
</event>
<event>
10    4  0.5389768E-005  0.2877087E+03  0.7546771E-02  0.1091980E+00
          2   -1    0    0  503    0 -0.00000000000E+00  0.00000000000E+00  0.15655963446E+04  0.15655963446E+04  0.00000000000E+00 0. -1.
         21   -1    0    0  501  502  0.00000000000E+00 -0.00000000000E+00 -0.87381604804E+02  0.87381604804E+02  0.00000000000E+00 0. -1.
         23    2    1    2    0    0 -0.15987133155E+03 -0.20965188618E+03  0.56653619250E+03  0.63140283180E+03  0.90518078637E+02 0.  0.
         24    2    1    2    0    0  0.25251645649E+03  0.16530274699E+03  0.48752022601E+03  0.57888917720E+03  0.79669001127E+02 0.  0.
        -11    1    4    4    0    0  0.16013356512E+03  0.12347726861E+03  0.25673398354E+03  0.32680534397E+03  0.00000000000E+00 0.  1.
         12    1    4    4    0    0  0.92382891365E+02  0.41825478384E+02  0.23078624247E+03  0.25208383323E+03  0.00000000000E+00 0. -1.
        -11    1    3    3    0    0 -0.21294238894E+02 -0.42188821370E+02  0.40542321481E+02  0.62265729657E+02  0.00000000000E+00 0.  1.
         11    1    3    3    0    0 -0.13857709266E+03 -0.16746306481E+03  0.52599387102E+03  0.56913710214E+03  0.00000000000E+00 0. -1.
         21    1    1    2  503  502 -0.90574963081E+01  0.32996203476E+02  0.20533453186E+03  0.20816593779E+03  0.00000000000E+00 0. -1.
          1    1    1    2  501    0 -0.83587628627E+02  0.11352935714E+02  0.21882378942E+03  0.23452000261E+03  0.00000000000E+00 0. -1.
<scales pt_clust_5="13000.00000" pt_clust_6="13000.00000" pt_clust_7="13000.00000" pt_clust_8="13000.00000" pt_clust_9="34.21677" pt_clust_10="86.75211"></scales>
<clustering>
<clus scale="   34.217">  1  9  2 -1</clus>
<clus scale="   79.669">  5  6 -1 -1</clus>
<clus scale="   86.752">  2 10  1 -1</clus>
<clus scale="   90.518">  7  8 -1 -1</clus>
<clus scale="  284.482">  2  5  1 -1</clus>
<clus scale="   86.752">  2  5  1 -1</clus>
</clustering>
</event>
<event>
10    4  0.5389768E-005  0.9454124E+02  0.7546771E-02  0.1298810E+00
         21   -1    0    0  503  502  0.00000000000E+00  0.00000000000E+00  0.12352546653E+03  0.12352546653E+03  0.00000000000E+00 0.  1.
         -1   -1    0    0    0  501 -0.00000000000E+00 -0.00000000000E+00 -0.38625162438E+03  0.38625162438E+03  0.00000000000E+00 0.  1.
         24    2    1    2    0    0 -0.28330027000E+02  0.60538955349E+02 -0.15517532582E+03  0.18675519975E+03  0.79564862506E+02 0.  0.
         23    2    1    2    0    0 -0.49000901761E+02  0.50580786540E+00 -0.57089490072E+02  0.11803945900E+03  0.90954712851E+02 0.  0.
        -11    1    3    3    0    0  0.23930832583E+02  0.30533957117E+02 -0.34700625329E+02  0.52049406179E+02  0.00000000000E+00 0.  1.
         12    1    3    3    0    0 -0.52260859582E+02  0.30004998233E+02 -0.12047470049E+03  0.13470579357E+03  0.00000000000E+00 0. -1.
        -13    1    4    4    0    0 -0.68540997467E+02  0.19706116630E+02 -0.24371147060E+02  0.75366784299E+02  0.00000000000E+00 0.  1.
         13    1    4    4    0    0  0.19540095706E+02 -0.19200308765E+02 -0.32718343012E+02  0.42672674703E+02  0.00000000000E+00 0. -1.
         21    1    1    2  503  501  0.10336126836E+02 -0.47032002542E+02 -0.10626858699E+03  0.11666986484E+03  0.00000000000E+00 0.  1.
         -2    1    1    2    0  502  0.66994801925E+02 -0.14012760673E+02  0.55807245032E+02  0.88312567309E+02  0.00000000000E+00 0.  1.
<scales pt_clust_5="13000.00000" pt_clust_6="13000.00000" pt_clust_7="13000.00000" pt_clust_8="13000.00000" pt_clust_9="48.15438" pt_clust_10="69.66097"></scales>
<clustering>
<clus scale="   48.154">  2  9  1 -1</clus>
<clus scale="   69.661">  1 10  2 -1</clus>
<clus scale="   79.565">  5  6 -1 -1</clus>
<clus scale="   83.641">  2  5  1 -1</clus>
<clus scale="   90.955">  7  8 -1 -1</clus>
<clus scale="   69.661">  1  5  2 -1</clus>
</clustering>
</event>
<event>
10    4  0.5389768E-005  0.3583622E+03  0.7546771E-02  0.1109549E+00
          2   -1    0    0  503    0 -0.00000000000E+00  0.00000000000E+00  0.16132280162E+04  0.16132280162E+04  0.00000000000E+00 0. -1.
         21   -1    0    0  501  502  0.00000000000E+00 -0.00000000000E+00 -0.27677331046E+03  0.27677331046E+03  0.00000000000E+00 0.  1.
         24    2    1    2    0    0 -0.60301724027E+01 -0.79237222520E+02  0.41409711236E+03  0.42928862946E+03  0.80606504165E+02 0.  0.
         23    2    1    2    0    0  0.35796203744E+03  0.45919334500E+02  0.97682962559E+01  0.37276793539E+03  0.92817608858E+02 0.  0.
        -11    1    3    3    0    0 -0.38695694026E+02 -0.17143199851E+02  0.17965066409E+03  0.18456870576E+03  0.00000000000E+00 0.  1.
         12    1    3    3    0    0  0.32665521623E+02 -0.62094022669E+02  0.23444644826E+03  0.24471992370E+03  0.00000000000E+00 0. -1.
        -11    1    4    4    0    0  0.18227887631E+03  0.58741936453E+02 -0.25258253075E+02  0.19316879457E+03  0.00000000000E+00 0.  1.
         11    1    4    4    0    0  0.17568316113E+03 -0.12822601953E+02  0.35026549331E+02  0.17959914082E+03  0.00000000000E+00 0. -1.
         21    1    1    2  503  502 -0.32915368873E+02  0.80877586544E+02  0.69129221807E+03  0.69678514355E+03  0.00000000000E+00 0. -1.
          1    1    1    2  501    0 -0.31901649617E+03 -0.47559698524E+02  0.22129707905E+03  0.39115961825E+03  0.00000000000E+00 0. -1.
<scales pt_clust_5="13000.00000" pt_clust_6="13000.00000" pt_clust_7="13000.00000" pt_clust_8="13000.00000" pt_clust_9="87.31899" pt_clust_10="346.13360"></scales>
<clustering>
<clus scale="   80.607">  5  6 -1 -1</clus>
<clus scale="   87.319">  1  9  2 -1</clus>
<clus scale="   92.818">  7  8 -1 -1</clus>
<clus scale="   93.376">  1  5  2 -1</clus>
<clus scale="  346.134">  2 10  1 -1</clus>
<clus scale="  346.134">  2  5  1 -1</clus>
</clustering>
</event>
<event>
10    4  0.5389768E-005  0.9438279E+02  0.7546771E-02  0.1300121E+00
         21   -1    0    0  503  502  0.00000000000E+00  0.00000000000E+00  0.74852076954E+02  0.74852076954E+02  0.00000000000E+00 0. -1.
         -1   -1    0    0    0  501 -0.00000000000E+00 -0.00000000000E+00 -0.34078430797E+03  0.34078430797E+03  0.00000000000E+00 0.  1.
         23    2    1    2    0    0 -0.74518590305E+01  0.82385350217E+01 -0.22441076167E+03  0.24326014948E+03  0.93230395845E+02 0.  0.
         24    2    1    2    0    0 -0.10334947928E+02  0.34566850458E+02 -0.24490031974E+02  0.91751194987E+02  0.80726958423E+02 0.  0.
        -13    1    4    4    0    0  0.25497916990E+01 -0.24984298152E+02  0.22457962331E+01  0.25214285486E+02  0.00000000000E+00 0.  1.
         14    1    4    4    0    0 -0.12884739627E+02  0.59551148610E+02 -0.26735828207E+02  0.66536909500E+02  0.00000000000E+00 0. -1.
        -11    1    3    3    0    0  0.22061674855E+02  0.30331756265E+02 -0.38575805795E+02  0.53803584716E+02  0.00000000000E+00 0. -1.
         11    1    3    3    0    0 -0.29513533885E+02 -0.22093221243E+02 -0.18583495587E+03  0.18945656476E+03  0.00000000000E+00 0.  1.
         21    1    1    2  503  501  0.16058659954E+02 -0.19256447078E+02 -0.40307044242E+02  0.47469454696E+02  0.00000000000E+00 0.  1.
         -2    1    1    2    0  502  0.17281470040E+01 -0.23548938401E+02  0.23275606871E+02  0.33155585760E+02  0.00000000000E+00 0.  1.
<scales pt_clust_5="13000.00000" pt_clust_6="13000.00000" pt_clust_7="13000.00000" pt_clust_8="13000.00000" pt_clust_9="26.56849" pt_clust_10="23.61226"></scales>
<clustering>
<clus scale="   23.612">  1 10  2 -1</clus>
<clus scale="   26.568">  2  9  1 -1</clus>
<clus scale="   80.727">  5  6 -1 -1</clus>
<clus scale="   82.055">  1  5  2 -1</clus>
<clus scale="   93.230">  7  8 -1 -1</clus>
<clus scale="   23.612">  1  5  2 -1</clus>
</clustering>
</event>
<event>
10    4  0.5389768E-005  0.6027956E+03  0.7546771E-02  0.9899623E-01
          2   -1    0    0  503    0 -0.00000000000E+00  0.00000000000E+00  0.16219457584E+04  0.16219457584E+04  0.00000000000E+00 0. -1.
         21   -1    0    0  501  502  0.00000000000E+00 -0.00000000000E+00 -0.28824486703E+03  0.28824486703E+03  0.00000000000E+00 0.  1.
         24    2    1    2    0    0  0.11641533645E+03  0.39532253300E+02  0.25189484544E+03  0.29127721392E+03  0.79221667349E+02 0.  0.
         23    2    1    2    0    0  0.32102295889E+03  0.23233395529E+03  0.31042895119E+03  0.51166204439E+03  0.91635730029E+02 0.  0.
        -11    1    3    3    0    0  0.10840768536E+02  0.32151552022E+02  0.29403794093E+02  0.44897969519E+02  0.00000000000E+00 0.  1.
         12    1    3    3    0    0  0.10557456791E+03  0.73807012778E+01  0.22249105135E+03  0.24637924440E+03  0.00000000000E+00 0. -1.
        -11    1    4    4    0    0  0.25251589341E+03  0.19261988139E+03  0.28953915300E+03  0.42976693248E+03  0.00000000000E+00 0. -1.
         11    1    4    4    0    0  0.68507065486E+02  0.39714073903E+02  0.20889798187E+02  0.81895111916E+02  0.00000000000E+00 0.  1.
         21    1    1    2  503  502  0.31340852010E+02  0.55680816993E+02  0.44344421008E+03  0.44802384963E+03  0.00000000000E+00 0.  1.
          1    1    1    2  501    0 -0.46877914735E+03 -0.32754702558E+03  0.32793288463E+03  0.65922751746E+03  0.00000000000E+00 0. -1.
<scales pt_clust_5="13000.00000" pt_clust_6="13000.00000" pt_clust_7="13000.00000" pt_clust_8="13000.00000" pt_clust_9="63.89525" pt_clust_10="547.83451"></scales>
<clustering>
<clus scale="   63.895">  1  9  2 -1</clus>
<clus scale="   79.222">  5  6 -1 -1</clus>
<clus scale="   91.636">  7  8 -1 -1</clus>
<clus scale="  133.921">  5  7 -1 -1</clus>
<clus scale="  547.835">  2 10  1 -1</clus>
<clus scale="  547.835">  2  5  1 -1</clus>
</clustering>
</event>
<event>
10    4  0.5389768E-005  0.1691558E+03  0.7546771E-02  0.1194270E+00
          2   -1    0    0  503    0 -0.00000000000E+00  0.00000000000E+00  0.42617891779E+03  0.42617891779E+03  0.00000000000E+00 0. -1.
         21   -1    0    0  501  502  0.00000000000E+00 -0.00000000000E+00 -0.16826305839E+03  0.16826305839E+03  0.00000000000E+00 0. -1.
         24    2    1    2    0    0 -0.20468564470E+02 -0.89709655627E+02 -0.10261079474E+02  0.12277666274E+03  0.80635195282E+02 0.  0.
         23    2    1    2    0    0  0.13580344696E+03  0.89155523529E+01  0.48493178966E+02  0.17083882754E+03  0.91171559762E+02 0.  0.
        -13    1    3    3    0    0 -0.33373072355E+02 -0.12277473653E+02  0.17344252165E+02  0.39564142868E+02  0.00000000000E+00 0.  1.
         14    1    3    3    0    0  0.12904507885E+02 -0.77432181974E+02 -0.27605331639E+02  0.83212519875E+02  0.00000000000E+00 0. -1.
        -11    1    4    4    0    0  0.10696373372E+03  0.40637204965E+02  0.55874063384E+02  0.12733630165E+03  0.00000000000E+00 0. -1.
         11    1    4    4    0    0  0.28839713242E+02 -0.31721652612E+02 -0.73808844176E+01  0.43502525894E+02  0.00000000000E+00 0.  1.
         21    1    1    2  503  502  0.36483216216E+02  0.15891583961E+02  0.52238939010E+02  0.65669431665E+02  0.00000000000E+00 0. -1.
          1    1    1    2  501    0 -0.15181809871E+03  0.64902519313E+02  0.16744482090E+03  0.23515705423E+03  0.00000000000E+00 0. -1.
<scales pt_clust_5="13000.00000" pt_clust_6="13000.00000" pt_clust_7="13000.00000" pt_clust_8="13000.00000" pt_clust_9="39.79406" pt_clust_10="142.48319"></scales>
<clustering>
<clus scale="   39.794">  1  9  2 -1</clus>
<clus scale="   80.635">  5  6 -1 -1</clus>
<clus scale="   91.172">  7  8 -1 -1</clus>
<clus scale="  119.751">  1  5  2 -1</clus>
<clus scale="  142.483">  2 10  1 -1</clus>
<clus scale="  142.483">  2  5  1 -1</clus>
</clustering>
</event>
<event>
10    4  0.5389768E-005  0.1665495E+03  0.7546771E-02  0.1184402E+00
          2   -1    0    0  503    0 -0.00000000000E+00  0.00000000000E+00  0.77592670596E+03  0.77592670596E+03  0.00000000000E+00 0. -1.
         21   -1    0    0  501  502  0.00000000000E+00 -0.00000000000E+00 -0.85312251271E+02  0.85312251271E+02  0.00000000000E+00 0.  1.
         24    2    1    2    0    0  0.64396319097E+02 -0.14804090054E+03  0.49930994995E+03  0.53091467701E+03  0.80603808795E+02 0.  0.
         23    2    1    2    0    0 -0.44714304063E+02  0.10734271137E+03  0.69673749237E+02  0.16809389127E+03  0.99394659210E+02 0.  0.
        -13    1    3    3    0    0  0.20823563820E+02  0.46358174356E+01  0.70374892290E+02  0.73537317590E+02  0.00000000000E+00 0.  1.
         14    1    3    3    0    0  0.43572755277E+02 -0.15267671797E+03  0.42893505766E+03  0.45737735942E+03  0.00000000000E+00 0. -1.
        -13    1    4    4    0    0 -0.20846444289E+01  0.10067090953E+03  0.20653993435E+02  0.10278893527E+03  0.00000000000E+00 0.  1.
         13    1    4    4    0    0 -0.42629659634E+02  0.66718018345E+01  0.49019755802E+02  0.65304956007E+02  0.00000000000E+00 0. -1.
         21    1    1    2  503  502  0.10551510204E+02  0.39487571384E+02  0.12525613247E+03  0.13175621952E+03  0.00000000000E+00 0. -1.
          1    1    1    2  501    0 -0.30233525239E+02  0.12106177872E+01 -0.36253769783E+01  0.30474169423E+02  0.00000000000E+00 0. -1.
<scales pt_clust_5="13000.00000" pt_clust_6="13000.00000" pt_clust_7="13000.00000" pt_clust_8="13000.00000" pt_clust_9="40.58144" pt_clust_10="30.25775"></scales>
<clustering>
<clus scale="   30.258">  2 10  1 -1</clus>
<clus scale="   40.581">  1  9  2 -1</clus>
<clus scale="   80.604">  5  6 -1 -1</clus>
<clus scale="   99.395">  7  8 -1 -1</clus>
<clus scale="  156.065">  1  5  2 -1</clus>
<clus scale="   30.258">  2  5  1 -1</clus>
</clustering>
</event>
<event>
10    4  0.5389768E-005  0.1235946E+03  0.7546771E-02  0.1255470E+00
          2   -1    0    0  503    0 -0.00000000000E+00  0.00000000000E+00  0.27798098743E+03  0.27798098743E+03  0.00000000000E+00 0. -1.
         21   -1    0    0  501  502  0.00000000000E+00 -0.00000000000E+00 -0.20923961885E+03  0.20923961885E+03  0.00000000000E+00 0.  1.
         24    2    1    2    0    0  0.12296624885E+02 -0.37890880004E+02 -0.82396941832E+02  0.11921464573E+03  0.76393389521E+02 0.  0.
         23    2    1    2    0    0  0.35363558176E+02 -0.71107074598E+02 -0.45838259162E+02  0.12918316715E+03  0.90996414030E+02 0.  0.
        -11    1    3    3    0    0  0.32296964378E+02 -0.40429681581E+02 -0.84352100004E+02  0.98959233201E+02  0.00000000000E+00 0.  1.
         12    1    3    3    0    0 -0.20000339493E+02  0.25388015778E+01  0.19551581715E+01  0.20255412530E+02  0.00000000000E+00 0. -1.
        -11    1    4    4    0    0  0.36826722253E+02  0.10409690419E+02 -0.71186690808E+01  0.38926142578E+02  0.00000000000E+00 0. -1.
         11    1    4    4    0    0 -0.14631640768E+01 -0.81516765017E+02 -0.38719590081E+02  0.90257024569E+02  0.00000000000E+00 0.  1.
         21    1    1    2  503  502 -0.20412056533E+02  0.68494273612E+01  0.93748018081E+01  0.23483049547E+02  0.00000000000E+00 0. -1.
          1    1    1    2  501    0 -0.27248126528E+02  0.10214852724E+03  0.18760176777E+03  0.21533974386E+03  0.00000000000E+00 0. -1.
<scales pt_clust_5="13000.00000" pt_clust_6="13000.00000" pt_clust_7="13000.00000" pt_clust_8="13000.00000" pt_clust_9="21.53060" pt_clust_10="83.63778"></scales>
<clustering>
<clus scale="   21.531">  1  9  2 -1</clus>
<clus scale="   76.393">  5  6 -1 -1</clus>
<clus scale="   85.751">  1  5  2 -1</clus>
<clus scale="   83.638">  2 10  1 -1</clus>
<clus scale="   90.996">  7  8 -1 -1</clus>
<clus scale="   83.638">  2  5  1 -1</clus>
</clustering>
</event>
<event>
10    4  0.5389768E-005  0.1336305E+03  0.7546771E-02  0.1222227E+00
         21   -1    0    0  503  502  0.00000000000E+00  0.00000000000E+00  0.33677369603E+03  0.33677369603E+03  0.00000000000E+00 0. -1.
         -3   -1    0    0    0  501 -0.00000000000E+00 -0.00000000000E+00 -0.20452156565E+03  0.20452156565E+03  0.00000000000E+00 0.  1.
         24    2    1    2    0    0 -0.59695551311E+02 -0.44652647979E+02 -0.60133114534E+02  0.12536279525E+03  0.80885234447E+02 0.  0.
         23    2    1    2    0    0  0.12053178222E+03  0.75697196406E+02  0.20172456300E+03  0.25988250123E+03  0.81167352153E+02 0.  0.
        -13    1    3    3    0    0 -0.71669965071E+02 -0.27940835259E+02 -0.68656819793E+02  0.10310690119E+03  0.00000000000E+00 0.  1.
         14    1    3    3    0    0  0.11974413759E+02 -0.16711812720E+02  0.85237052584E+01  0.22255894064E+02  0.00000000000E+00 0. -1.
        -13    1    4    4    0    0  0.10735177106E+03  0.29021759107E+02  0.16530817846E+03  0.19923217390E+03  0.00000000000E+00 0. -1.
         13    1    4    4    0    0  0.13180011155E+02  0.46675437299E+02  0.36416384542E+02  0.60650327322E+02  0.00000000000E+00 0.  1.
         21    1    1    2  503  501 -0.34914553144E+02 -0.89440496669E+01 -0.74366872367E+02  0.82640509143E+02  0.00000000000E+00 0.  1.
         -4    1    1    2    0  502 -0.25921677763E+02 -0.22100498760E+02  0.65027554283E+02  0.73409456063E+02  0.00000000000E+00 0.  1.
<scales pt_clust_5="13000.00000" pt_clust_6="13000.00000" pt_clust_7="13000.00000" pt_clust_8="13000.00000" pt_clust_9="36.51573" pt_clust_10="34.06414"></scales>
<clustering>
<clus scale="   34.064">  1 10  2 -1</clus>
<clus scale="   36.516">  2  9  1 -1</clus>
<clus scale="   80.885">  5  6 -1 -1</clus>
<clus scale="   81.167">  7  8 -1 -1</clus>
<clus scale="  133.459">  2  5  1 -1</clus>
<clus scale="   34.064">  1  5  2 -1</clus>
</clustering>
</event>
<event>
10    4  0.5389768E-005  0.1510593E+03  0.7546771E-02  0.1221240E+00
          2   -1    0    0  503    0 -0.00000000000E+00  0.00000000000E+00  0.58319397920E+03  0.58319397920E+03  0.00000000000E+00 0. -1.
         21   -1    0    0  501  502  0.00000000000E+00 -0.00000000000E+00 -0.99700799732E+02  0.99700799732E+02  0.00000000000E+00 0. -1.
         24    2    1    2    0    0  0.16851888177E+02  0.30055494347E+02  0.21952332131E+03  0.23613677237E+03  0.79892226104E+02 0.  0.
         23    2    1    2    0    0  0.46913141810E+02  0.37769945718E+02  0.19536178966E+02  0.14239701062E+03  0.12754542199E+03 0.  0.
        -11    1    3    3    0    0  0.35283765736E+02 -0.77257481527E+01  0.51296964496E+02  0.62737627270E+02  0.00000000000E+00 0.  1.
         12    1    3    3    0    0 -0.18431877559E+02  0.37781242500E+02  0.16822635681E+03  0.17339914510E+03  0.00000000000E+00 0. -1.
        -11    1    4    4    0    0  0.47206109287E+01  0.26435432383E+02  0.70399121625E+02  0.75346881677E+02  0.00000000000E+00 0.  1.
         11    1    4    4    0    0  0.42192530881E+02  0.11334513335E+02 -0.50862942660E+02  0.67050128939E+02  0.00000000000E+00 0. -1.
         21    1    1    2  503  502  0.47304599076E+02  0.63786398630E+01  0.61540730767E+02  0.77882435013E+02  0.00000000000E+00 0. -1.
          1    1    1    2  501    0 -0.11106962906E+03 -0.74204079928E+02  0.18289294843E+03  0.22647856093E+03  0.00000000000E+00 0. -1.
<scales pt_clust_5="13000.00000" pt_clust_6="13000.00000" pt_clust_7="13000.00000" pt_clust_8="13000.00000" pt_clust_9="47.73272" pt_clust_10="80.93869"></scales>
<clustering>
<clus scale="   47.733">  1  9  2 -1</clus>
<clus scale="   79.892">  5  6 -1 -1</clus>
<clus scale="   94.319">  1  5  2 -1</clus>
<clus scale="   80.939">  2 10  1 -1</clus>
<clus scale="  127.545">  7  8 -1 -1</clus>
<clus scale="   80.939">  2  5  1 -1</clus>
</clustering>
</event>
<event>
10    4  0.5389768E-005  0.1221150E+03  0.7546771E-02  0.1242947E+00
          2   -1    0    0  503    0 -0.00000000000E+00  0.00000000000E+00  0.69282423448E+03  0.69282423448E+03  0.00000000000E+00 0. -1.
         21   -1    0    0  501  502  0.00000000000E+00 -0.00000000000E+00 -0.10749583488E+03  0.10749583488E+03  0.00000000000E+00 0.  1.
         24    2    1    2    0    0 -0.13352383892E+02  0.65576742433E+02  0.42091192454E+03  0.43360614134E+03  0.79805026674E+02 0.  0.
         23    2    1    2    0    0  0.98066446703E+02 -0.78704563076E+02  0.27445976413E+02  0.15748016227E+03  0.90748463729E+02 0.  0.
        -11    1    3    3    0    0 -0.26439813559E+02  0.95865590659E+01  0.43235896403E+02  0.51578179432E+02  0.00000000000E+00 0.  1.
         12    1    3    3    0    0  0.13087429667E+02  0.55990183367E+02  0.37767602814E+03  0.38202796190E+03  0.00000000000E+00 0. -1.
        -11    1    4    4    0    0  0.19311472365E+02  0.10835103975E+02 -0.19324228523E+02  0.29389764392E+02  0.00000000000E+00 0. -1.
         11    1    4    4    0    0  0.78754974338E+02 -0.89539667050E+02  0.46770204936E+02  0.12809039788E+03  0.00000000000E+00 0.  1.
         21    1    1    2  503  502  0.26566955045E+02  0.23824942282E+02  0.70903402380E+02  0.79377096471E+02  0.00000000000E+00 0. -1.
          1    1    1    2  501    0 -0.11128101786E+03 -0.10697121640E+02  0.66067096268E+02  0.12985666928E+03  0.00000000000E+00 0. -1.
<scales pt_clust_5="13000.00000" pt_clust_6="13000.00000" pt_clust_7="13000.00000" pt_clust_8="13000.00000" pt_clust_9="35.68516" pt_clust_10="107.29092"></scales>
<clustering>
<clus scale="   35.685">  1  9  2 -1</clus>
<clus scale="   79.805">  5  6 -1 -1</clus>
<clus scale="   90.748">  7  8 -1 -1</clus>
<clus scale="  107.291">  2 10  1 -1</clus>
<clus scale="  114.217">  1  5  2 -1</clus>
<clus scale="  107.291">  2  5  1 -1</clus>
</clustering>
</event>
<event>
10    4  0.5389768E-005  0.1858467E+03  0.7546771E-02  0.1164275E+00
         21   -1    0    0  501  502  0.00000000000E+00  0.00000000000E+00  0.10653987053E+03  0.10653987053E+03  0.00000000000E+00 0. -1.
          2   -1    0    0  503    0 -0.00000000000E+00 -0.00000000000E+00 -0.12132257431E+04  0.12132257431E+04  0.00000000000E+00 0. -1.
         23    2    1    2    0    0  0.14986025938E+03  0.92030307426E+02 -0.62088404515E+03  0.65223249166E+03  0.94776320022E+02 0.  0.
         24    2    1    2    0    0 -0.12539818107E+03 -0.95451764016E+02 -0.37762957847E+03  0.41635110931E+03  0.76866147382E+02 0.  0.
        -11    1    4    4    0    0 -0.90918283002E+02 -0.23948973581E+02 -0.23516428388E+03  0.25326256718E+03  0.00000000000E+00 0.  1.
         12    1    4    4    0    0 -0.34479898070E+02 -0.71502790435E+02 -0.14246529459E+03  0.16308854213E+03  0.00000000000E+00 0. -1.
        -13    1    3    3    0    0  0.51922304828E+02  0.31647730456E+02 -0.87332770229E+02  0.10641671550E+03  0.00000000000E+00 0.  1.
         13    1    3    3    0    0  0.97937954551E+02  0.60382576970E+02 -0.53355127492E+03  0.54581577617E+03  0.00000000000E+00 0. -1.
         21    1    1    2  503  502 -0.14845423020E+02 -0.49663162045E+02 -0.16492524731E+03  0.17287901390E+03  0.00000000000E+00 0. -1.
          1    1    1    2  501    0 -0.96166552873E+01  0.53084618636E+02  0.56752998347E+02  0.78302998768E+02  0.00000000000E+00 0. -1.
<scales pt_clust_5="13000.00000" pt_clust_6="13000.00000" pt_clust_7="13000.00000" pt_clust_8="13000.00000" pt_clust_9="51.83451" pt_clust_10="53.47230"></scales>
<clustering>
<clus scale="   51.835">  2  9  1 -1</clus>
<clus scale="   53.472">  1 10  2 -1</clus>
<clus scale="   76.866">  5  6 -1 -1</clus>
<clus scale="   94.776">  7  8 -1 -1</clus>
<clus scale="  177.383">  1  5  2 -1</clus>
<clus scale="   53.472">  1  5  2 -1</clus>
</clustering>
</event>
<event>
10    4  0.5389768E-005  0.9980901E+02  0.7546771E-02  0.1282184E+00
         21   -1    0    0  501  502  0.00000000000E+00  0.00000000000E+00  0.46072972406E+02  0.46072972406E+02  0.00000000000E+00 0.  1.
          2   -1    0    0  503    0 -0.00000000000E+00 -0.00000000000E+00 -0.72530379212E+03  0.72530379212E+03  0.00000000000E+00 0. -1.
         24    2    1    2    0    0  0.41885111839E+01 -0.30837309931E+02 -0.15133971004E+03  0.17432868051E+03  0.80735975275E+02 0.  0.
         23    2    1    2    0    0 -0.27367319888E+02  0.69742547509E+02 -0.81838129539E+02  0.13919574426E+03  0.84053451113E+02 0.  0.
        -13    1    3    3    0    0 -0.32800870279E+02  0.38417493481E+01 -0.39187965790E+02  0.51247954026E+02  0.00000000000E+00 0.  1.
         14    1    3    3    0    0  0.36989381462E+02 -0.34679059280E+02 -0.11215174425E+03  0.12308072648E+03  0.00000000000E+00 0. -1.
        -13    1    4    4    0    0 -0.42305460538E+02  0.54960867177E+02 -0.17526565869E+02  0.71537608455E+02  0.00000000000E+00 0.  1.
         13    1    4    4    0    0  0.14938140651E+02  0.14781680331E+02 -0.64311563670E+02  0.67658135809E+02  0.00000000000E+00 0. -1.
         21    1    1    2  503  502  0.57629940609E+02 -0.24320733433E+02 -0.33135263117E+03  0.33720509236E+03  0.00000000000E+00 0. -1.
          1    1    1    2  501    0 -0.34451131906E+02 -0.14584504144E+02 -0.11470034896E+03  0.12064724739E+03  0.00000000000E+00 0. -1.
<scales pt_clust_5="13000.00000" pt_clust_6="13000.00000" pt_clust_7="13000.00000" pt_clust_8="13000.00000" pt_clust_9="60.80893" pt_clust_10="37.41109"></scales>
<clustering>
<clus scale="   37.411">  1 10  2 -1</clus>
<clus scale="   60.809">  2  9  1 -1</clus>
<clus scale="   80.736">  5  6 -1 -1</clus>
<clus scale="   84.053">  7  8 -1 -1</clus>
<clus scale="   97.032">  2  5  1 -1</clus>
<clus scale="   37.411">  1  5  2 -1</clus>
</clustering>
</event>
<event>
10    4  0.5389768E-005  0.1972056E+03  0.7546771E-02  0.1152988E+00
          2   -1    0    0  503    0 -0.00000000000E+00  0.00000000000E+00  0.10463290709E+04  0.10463290709E+04  0.00000000000E+00 0. -1.
         21   -1    0    0  501  502  0.00000000000E+00 -0.00000000000E+00 -0.17295244768E+03  0.17295244768E+03  0.00000000000E+00 0. -1.
         23    2    1    2    0    0  0.86058558621E+02 -0.12145494587E+03  0.40094647076E+03  0.43722390601E+03  0.90825614134E+02 0.  0.
         24    2    1    2    0    0 -0.13071218820E+03  0.22728306052E+03  0.25540063779E+03  0.37504540032E+03  0.81769803551E+02 0.  0.
        -13    1    4    4    0    0 -0.19511608202E+02  0.29573634064E+02  0.27961033108E+01  0.35540411929E+02  0.00000000000E+00 0.  1.
         14    1    4    4    0    0 -0.11120058000E+03  0.19770942646E+03  0.25260453448E+03  0.33950498839E+03  0.00000000000E+00 0. -1.
        -11    1    3    3    0    0 -0.42566870147E+01 -0.35910513983E+02  0.33510951929E+02  0.49301808264E+02  0.00000000000E+00 0.  1.
         11    1    3    3    0    0  0.90315245635E+02 -0.85544431886E+02  0.36743551883E+03  0.38792209774E+03  0.00000000000E+00 0. -1.
         21    1    1    2  503  502  0.17716062484E+03 -0.66367834890E+02  0.18602176791E+03  0.26531994768E+03  0.00000000000E+00 0. -1.
          1    1    1    2  501    0 -0.13250699525E+03 -0.39460279764E+02  0.31007746721E+02  0.14169226453E+03  0.00000000000E+00 0. -1.
<scales pt_clust_5="13000.00000" pt_clust_6="13000.00000" pt_clust_7="13000.00000" pt_clust_8="13000.00000" pt_clust_9="154.59915" pt_clust_10="138.25779"></scales>
<clustering>
<clus scale="   81.770">  5  6 -1 -1</clus>
<clus scale="   90.826">  7  8 -1 -1</clus>
<clus scale="  138.258">  2 10  1 -1</clus>
<clus scale="  154.599">  2  9  1 -1</clus>
<clus scale="  193.202">  2  5  1 -1</clus>
<clus scale="  138.258">  2  5  1 -1</clus>
</clustering>
</event>
<event>
10    4  0.5389768E-005  0.9116673E+02  0.7546771E-02  0.1305658E+00
          2   -1    0    0  503    0 -0.00000000000E+00  0.00000000000E+00  0.21587964396E+03  0.21587964396E+03  0.00000000000E+00 0. -1.
         21   -1    0    0  501  502  0.00000000000E+00 -0.00000000000E+00 -0.10010451526E+03  0.10010451526E+03  0.00000000000E+00 0. -1.
         23    2    1    2    0    0  0.13777243634E+02 -0.29951231210E+02  0.88764888800E+02  0.13029482391E+03  0.89502217628E+02 0.  0.
         24    2    1    2    0    0 -0.20915263974E+02 -0.11562421792E+01 -0.46969085001E+02  0.95443290628E+02  0.80402373205E+02 0.  0.
        -11    1    4    4    0    0 -0.36746912969E+02 -0.19890311950E+02  0.74800613144E+00  0.41791382310E+02  0.00000000000E+00 0.  1.
         12    1    4    4    0    0  0.15831648995E+02  0.18734069771E+02 -0.47717091132E+02  0.53651908318E+02  0.00000000000E+00 0. -1.
        -11    1    3    3    0    0 -0.35683554455E+02 -0.25160492862E+02  0.28304072584E+02  0.52033517894E+02  0.00000000000E+00 0. -1.
         11    1    3    3    0    0  0.49460798088E+02 -0.47907383480E+01  0.60460816216E+02  0.78261306014E+02  0.00000000000E+00 0.  1.
         21    1    1    2  503  502 -0.12233825706E+02  0.21447053009E+02  0.18988997862E+02  0.31148428756E+02  0.00000000000E+00 0. -1.
          1    1    1    2  501    0  0.19371846046E+02  0.96604203802E+01  0.54990327035E+02  0.59097615930E+02  0.00000000000E+00 0. -1.
<scales pt_clust_5="13000.00000" pt_clust_6="13000.00000" pt_clust_7="13000.00000" pt_clust_8="13000.00000" pt_clust_9="24.65255" pt_clust_10="21.64700"></scales>
<clustering>
<clus scale="   21.647">  2 10  1 -1</clus>
<clus scale="   24.653">  1  9  2 -1</clus>
<clus scale="   80.402">  5  6 -1 -1</clus>
<clus scale="   82.251">  2  5  1 -1</clus>
<clus scale="   89.502">  7  8 -1 -1</clus>
<clus scale="   21.647">  2  5  1 -1</clus>
</clustering>
</event>
<event>
10    4  0.5389768E-005  0.2077257E+03  0.7546771E-02  0.1147542E+00
          2   -1    0    0  503    0 -0.00000000000E+00  0.00000000000E+00  0.43254790488E+03  0.43254790488E+03  0.00000000000E+00 0. -1.
         21   -1    0    0  501  502  0.00000000000E+00 -0.00000000000E+00 -0.28085306986E+03  0.28085306986E+03  0.00000000000E+00 0. -1.
         24    2    1    2    0    0  0.98270797081E+02  0.10763970067E+03  0.46414993147E+02  0.17241887635E+03  0.79564204352E+02 0.  0.
         23    2    1    2    0    0 -0.18351425433E+03 -0.16007900867E+03  0.24546752948E+02  0.27206048147E+03  0.11879222171E+03 0.  0.
        -13    1    3    3    0    0  0.97185640368E+02  0.11781556981E+03  0.34247108958E+02  0.15651971651E+03  0.00000000000E+00 0.  1.
         14    1    3    3    0    0  0.10851567128E+01 -0.10175869147E+02  0.12167884189E+02  0.15899159840E+02  0.00000000000E+00 0. -1.
        -13    1    4    4    0    0 -0.91584210694E+02 -0.15062686523E+03  0.32683021015E+02  0.17928831540E+03  0.00000000000E+00 0.  1.
         13    1    4    4    0    0 -0.91930043635E+02 -0.94521434392E+01 -0.81362680670E+01  0.92772166065E+02  0.00000000000E+00 0. -1.
         21    1    1    2  503  502 -0.76436662523E+02  0.54871705090E+01  0.63795250137E+02  0.99712117408E+02  0.00000000000E+00 0.  1.
          1    1    1    2  501    0  0.16168011977E+03  0.46952137495E+02  0.16937838790E+02  0.16920949952E+03  0.00000000000E+00 0. -1.
<scales pt_clust_5="13000.00000" pt_clust_6="13000.00000" pt_clust_7="13000.00000" pt_clust_8="13000.00000" pt_clust_9="76.63336" pt_clust_10="149.45649"></scales>
<clustering>
<clus scale="   76.633">  1  9  2 -1</clus>
<clus scale="   79.564">  5  6 -1 -1</clus>
<clus scale="  118.792">  7  8 -1 -1</clus>
<clus scale="  149.456">  2 10  1 -1</clus>
<clus scale="  188.066">  1  5  2 -1</clus>
<clus scale="  149.456">  2  5  1 -1</clus>
</clustering>
</event>
<event>
10    4  0.5389768E-005  0.1236631E+03  0.7546771E-02  0.1245020E+00
          2   -1    0    0  502    0 -0.00000000000E+00  0.00000000000E+00  0.11801812222E+03  0.11801812222E+03  0.00000000000E+00 0. -1.
         21   -1    0    0  503  502  0.00000000000E+00 -0.00000000000E+00 -0.22428960786E+03  0.22428960786E+03  0.00000000000E+00 0. -1.
         23    2    1    2    0    0  0.36160098971E+01 -0.71981581379E+02  0.35199452152E+01  0.12587125759E+03  0.10313466870E+03 0.  0.
         24    2    1    2    0    0  0.22938208662E+02  0.60587149341E+02 -0.90357349044E+02  0.13722521326E+03  0.80432235736E+02 0.  0.
        -13    1    4    4    0    0 -0.24697039781E+02  0.35567725109E+02 -0.17618312606E+02  0.46748388020E+02  0.00000000000E+00 0.  1.
         14    1    4    4    0    0  0.47635248444E+02  0.25019424232E+02 -0.72739036438E+02  0.90476825238E+02  0.00000000000E+00 0. -1.
        -11    1    3    3    0    0 -0.21923397431E+02 -0.51188617270E+02  0.45924391616E+02  0.72180050140E+02  0.00000000000E+00 0. -1.
         11    1    3    3    0    0  0.25539407328E+02 -0.20792964109E+02 -0.42404446401E+02  0.53691207452E+02  0.00000000000E+00 0.  1.
         21    1    1    2  503  501 -0.12300929665E+02 -0.24816449880E+02 -0.27978044199E+02  0.39369277520E+02  0.00000000000E+00 0.  1.
          1    1    1    2  501    0 -0.14253288895E+02  0.36210881917E+02  0.85439623827E+01  0.39841981712E+02  0.00000000000E+00 0. -1.
<scales pt_clust_5="13000.00000" pt_clust_6="13000.00000" pt_clust_7="13000.00000" pt_clust_8="13000.00000" pt_clust_9="27.69782" pt_clust_10="37.42720"></scales>
<clustering>
<clus scale="   27.698">  2  9  1 -1</clus>
<clus scale="   37.427">  2 10  1 -1</clus>
<clus scale="   80.432">  5  6 -1 -1</clus>
<clus scale="  103.135">  7  8 -1 -1</clus>
<clus scale="  105.476">  2  5  1 -1</clus>
<clus scale="   27.698">  2  5  1 -1</clus>
</clustering>
</event>
<event>
10    4  0.5389768E-005  0.2300169E+03  0.7546771E-02  0.1127727E+00
         21   -1    0    0  501  502  0.00000000000E+00  0.00000000000E+00  0.84090684057E+02  0.84090684057E+02  0.00000000000E+00 0.  1.
          2   -1    0    0  503    0 -0.00000000000E+00 -0.00000000000E+00 -0.84783925863E+03  0.84783925863E+03  0.00000000000E+00 0. -1.
         24    2    1    2    0    0 -0.19397870666E+03  0.84214606993E+02 -0.39308619322E+03  0.45384339855E+03  0.82080670290E+02 0.  0.
         23    2    1    2    0    0  0.18481359272E+03 -0.80493499859E+02 -0.25603218121E+03  0.34017408434E+03  0.97625110861E+02 0.  0.
        -13    1    3    3    0    0 -0.15715743156E+02  0.24601190492E+02 -0.18002982688E+02  0.34297383898E+02  0.00000000000E+00 0.  1.
         14    1    3    3    0    0 -0.17826296351E+03  0.59613416501E+02 -0.37508321053E+03  0.41954601465E+03  0.00000000000E+00 0. -1.
        -13    1    4    4    0    0  0.46328877936E+02 -0.71430165504E+01 -0.13274892835E+03  0.14078233409E+03  0.00000000000E+00 0. -1.
         13    1    4    4    0    0  0.13848471479E+03 -0.73350483309E+02 -0.12328325286E+03  0.19939175025E+03  0.00000000000E+00 0.  1.
         21    1    1    2  503  502  0.61567078555E+01  0.34734001147E+02 -0.73490340535E+02  0.81518010521E+02  0.00000000000E+00 0.  1.
          1    1    1    2  501    0  0.30084060822E+01 -0.38455108281E+02 -0.41139859607E+02  0.56394449270E+02  0.00000000000E+00 0. -1.
<scales pt_clust_5="13000.00000" pt_clust_6="13000.00000" pt_clust_7="13000.00000" pt_clust_8="13000.00000" pt_clust_9="35.27543" pt_clust_10="36.41512"></scales>
<clustering>
<clus scale="   35.275">  2  9  1 -1</clus>
<clus scale="   36.415">  1 10  2 -1</clus>
<clus scale="   82.081">  5  6 -1 -1</clus>
<clus scale="   97.625">  7  8 -1 -1</clus>
<clus scale="  223.862">  2  5  1 -1</clus>
<clus scale="   36.415">  1  5  2 -1</clus>
</clustering>
</event>
<event>
10    4  0.5389768E-005  0.1293155E+03  0.7546771E-02  0.1231648E+00
         21   -1    0    0  503  502  0.00000000000E+00  0.00000000000E+00  0.31831370293E+03  0.31831370293E+03  0.00000000000E+00 0.  1.
         -3   -1    0    0    0  501 -0.00000000000E+00 -0.00000000000E+00 -0.35399146696E+03  0.35399146696E+03  0.00000000000E+00 0.  1.
         23    2    1    2    0    0  0.10280157324E+03 -0.51938356184E+02 -0.17344880394E+03  0.22766813975E+03  0.92100694702E+02 0.  0.
         24    2    1    2    0    0 -0.88951722821E+02  0.68247458232E+02  0.19276494841E+03  0.23697600898E+03  0.80182161031E+02 0.  0.
        -11    1    4    4    0    0 -0.84586508437E+02  0.85186794081E+02  0.17313060661E+03  0.21067955345E+03  0.00000000000E+00 0.  1.
         12    1    4    4    0    0 -0.43652143846E+01 -0.16939335848E+02  0.19634341801E+02  0.26296455533E+02  0.00000000000E+00 0. -1.
        -13    1    3    3    0    0  0.54462034834E+02 -0.67121663840E+02 -0.65604933391E+02  0.10851469154E+03  0.00000000000E+00 0. -1.
         13    1    3    3    0    0  0.48339538402E+02  0.15183307656E+02 -0.10784387055E+03  0.11915344821E+03  0.00000000000E+00 0.  1.
         21    1    1    2  503  501 -0.15578550883E+02  0.77515527826E+02 -0.77975428740E+02  0.11104735832E+03  0.00000000000E+00 0.  1.
         -4    1    1    2    0  502  0.17287004679E+01 -0.93824629874E+02  0.22981520238E+02  0.96613662848E+02  0.00000000000E+00 0.  1.
<scales pt_clust_5="13000.00000" pt_clust_6="13000.00000" pt_clust_7="13000.00000" pt_clust_8="13000.00000" pt_clust_9="79.06547" pt_clust_10="82.82782"></scales>
<clustering>
<clus scale="   79.065">  2  9  1 -1</clus>
<clus scale="   80.182">  5  6 -1 -1</clus>
<clus scale="   82.828">  1 10  2 -1</clus>
<clus scale="   92.101">  7  8 -1 -1</clus>
<clus scale="  121.116">  1  5  2 -1</clus>
<clus scale="   82.828">  1  5  2 -1</clus>
</clustering>
</event>
<event>
10    4  0.5389768E-005  0.1261197E+03  0.7546771E-02  0.1248494E+00
         21   -1    0    0  501  502  0.00000000000E+00  0.00000000000E+00  0.49720250498E+03  0.49720250498E+03  0.00000000000E+00 0.  1.
          4   -1    0    0  503    0 -0.00000000000E+00 -0.00000000000E+00 -0.15240446389E+03  0.15240446389E+03  0.00000000000E+00 0. -1.
         24    2    1    2    0    0 -0.10516818507E+02  0.40945415494E+02  0.58915051242E+02  0.10743471495E+03  0.79272341908E+02 0.  0.
         23    2    1    2    0    0  0.62025508148E+02  0.55658331880E+02  0.34425746645E+03  0.36579624882E+03  0.91371105271E+02 0.  0.
        -11    1    3    3    0    0 -0.35194233685E+02 -0.69705787698E+01  0.25553016734E+02  0.44047471179E+02  0.00000000000E+00 0.  1.
         12    1    3    3    0    0  0.24677415178E+02  0.47915994263E+02  0.33362034508E+02  0.63387243769E+02  0.00000000000E+00 0. -1.
        -11    1    4    4    0    0  0.55758175819E+02  0.79125805144E+02  0.24084075526E+03  0.25956528389E+03  0.00000000000E+00 0.  1.
         11    1    4    4    0    0  0.62673323291E+01 -0.23467473264E+02  0.10341671119E+03  0.10623096493E+03  0.00000000000E+00 0. -1.
         21    1    1    2  503  502 -0.14066909574E+02  0.22441286366E+02 -0.43186043662E+02  0.50660868981E+02  0.00000000000E+00 0.  1.
          3    1    1    2  501    0 -0.37441780067E+02 -0.11904503374E+03 -0.15188432941E+02  0.12571513611E+03  0.00000000000E+00 0. -1.
<scales pt_clust_5="13000.00000" pt_clust_6="13000.00000" pt_clust_7="13000.00000" pt_clust_8="13000.00000" pt_clust_9="26.48564" pt_clust_10="86.93389"></scales>
<clustering>
<clus scale="   26.486">  2  9  1 -1</clus>
<clus scale="   79.272">  5  6 -1 -1</clus>
<clus scale="   91.371">  7  8 -1 -1</clus>
<clus scale="   92.731">  2  5  1 -1</clus>
<clus scale="   86.934">  1 10  2 -1</clus>
<clus scale="   86.934">  1  5  2 -1</clus>
</clustering>
</event>
<event>
10    4  0.6683391E-005  0.2143003E+03  0.7546771E-02  0.1138438E+00
          2   -1    0    0  503    0 -0.00000000000E+00  0.00000000000E+00  0.94576170155E+03  0.94576170155E+03  0.00000000000E+00 0. -1.
         21   -1    0    0  501  502  0.00000000000E+00 -0.00000000000E+00 -0.30603470923E+03  0.30603470923E+03  0.00000000000E+00 0. -1.
         24    2    1    2    0    0 -0.15983049742E+03  0.11489229865E+03  0.79232511025E+03  0.82070548662E+03  0.83859330005E+02 0.  0.
         23    2    1    2    0    0  0.15426527794E+03 -0.10908495701E+03 -0.28578814675E+01  0.20797241932E+03  0.86873792866E+02 0.  0.
        -13    1    3    3    0    0 -0.35272342637E+02  0.10265051772E+01  0.63992678325E+02  0.73077046651E+02  0.00000000000E+00 0.  1.
         14    1    3    3    0    0 -0.12455815479E+03  0.11386579347E+03  0.72833243193E+03  0.74762843997E+03  0.00000000000E+00 0. -1.
        -11    1    4    4    0    0 -0.70802561492E+00 -0.33620809345E+02  0.10109320785E+02  0.35114932550E+02  0.00000000000E+00 0. -1.
         11    1    4    4    0    0  0.15497330356E+03 -0.75464147663E+02 -0.12967202252E+02  0.17285748677E+03  0.00000000000E+00 0.  1.
         21    1    1    2  503  502  0.14605306752E+01 -0.28527415666E+02  0.30278001304E+02  0.41625760742E+02  0.00000000000E+00 0.  1.
          1    1    1    2  501    0  0.41046888082E+01  0.22720074021E+02 -0.18001823777E+03  0.18149274411E+03  0.00000000000E+00 0. -1.
<scales pt_clust_5="13000.00000" pt_clust_6="13000.00000" pt_clust_7="13000.00000" pt_clust_8="13000.00000" pt_clust_9="27.54767" pt_clust_10="23.08788"></scales>
<clustering>
<clus scale="   23.088">  2 10  1 -1</clus>
<clus scale="   27.548">  2  9  1 -1</clus>
<clus scale="   83.859">  5  6 -1 -1</clus>
<clus scale="   86.874">  7  8 -1 -1</clus>
<clus scale="  213.096">  1  5  2 -1</clus>
<clus scale="   23.088">  2  5  1 -1</clus>
</clustering>
</event>
<event>
10    4  0.5389768E-005  0.1965369E+03  0.7546771E-02  0.1153950E+00
          2   -1    0    0  503    0 -0.00000000000E+00  0.00000000000E+00  0.10523986705E+04  0.10523986705E+04  0.00000000000E+00 0. -1.
         21   -1    0    0  501  502  0.00000000000E+00 -0.00000000000E+00 -0.12023299918E+03  0.12023299918E+03  0.00000000000E+00 0.  1.
         24    2    1    2    0    0  0.16858699182E+03  0.11517483974E+03  0.66308025838E+03  0.69835503170E+03  0.79608440082E+02 0.  0.
         23    2    1    2    0    0 -0.13260280155E+03 -0.12083900085E+03  0.93895189393E+02  0.22261564730E+03  0.92497852542E+02 0.  0.
        -11    1    3    3    0    0  0.78855575221E+02  0.79350683454E+01  0.24789840104E+03  0.26025907149E+03  0.00000000000E+00 0.  1.
         12    1    3    3    0    0  0.89731416604E+02  0.10723977140E+03  0.41518185734E+03  0.43809596021E+03  0.00000000000E+00 0. -1.
        -13    1    4    4    0    0 -0.11709119454E+03 -0.92638048650E+02  0.31770067177E+02  0.15264826585E+03  0.00000000000E+00 0.  1.
         13    1    4    4    0    0 -0.15511607007E+02 -0.28200952205E+02  0.62125122216E+02  0.69967381454E+02  0.00000000000E+00 0. -1.
         21    1    1    2  503  502 -0.38738603683E+02 -0.17307113218E+02  0.20757168813E+03  0.21186368565E+03  0.00000000000E+00 0.  1.
          1    1    1    2  501    0  0.27544134101E+01  0.22971274328E+02 -0.32381464588E+02  0.39797305014E+02  0.00000000000E+00 0. -1.
<scales pt_clust_5="13000.00000" pt_clust_6="13000.00000" pt_clust_7="13000.00000" pt_clust_8="13000.00000" pt_clust_9="42.12887" pt_clust_10="23.13582"></scales>
<clustering>
<clus scale="   23.136">  2 10  1 -1</clus>
<clus scale="   42.129">  1  9  2 -1</clus>
<clus scale="   79.608">  5  6 -1 -1</clus>
<clus scale="   92.498">  7  8 -1 -1</clus>
<clus scale="  190.810">  1  5  2 -1</clus>
<clus scale="   23.136">  2  5  1 -1</clus>
</clustering>
</event>
<event>
10    4  0.5389768E-005  0.2099539E+03  0.7546771E-02  0.1141759E+00
         21   -1    0    0  501  502  0.00000000000E+00  0.00000000000E+00  0.78039404173E+02  0.78039404173E+02  0.00000000000E+00 0.  1.
          2   -1    0    0  503    0 -0.00000000000E+00 -0.00000000000E+00 -0.14648441536E+04  0.14648441536E+04  0.00000000000E+00 0. -1.
         23    2    1    2    0    0  0.15991337910E+02 -0.21537321491E+03 -0.88177545069E+03  0.91288732076E+03  0.95885193791E+02 0.  0.
         24    2    1    2    0    0  0.58674275504E+02  0.11068154335E+03 -0.72039080888E+02  0.17437692740E+03  0.97594103261E+02 0.  0.
        -11    1    4    4    0    0  0.57945272896E+01  0.10050990414E+03 -0.27154762115E+02  0.10427463010E+03  0.00000000000E+00 0.  1.
         12    1    4    4    0    0  0.52879748214E+02  0.10171639208E+02 -0.44884318773E+02  0.70102297303E+02  0.00000000000E+00 0. -1.
        -11    1    3    3    0    0  0.23165159615E+02 -0.26660582018E+01 -0.97190089920E+02  0.99948216917E+02  0.00000000000E+00 0. -1.
         11    1    3    3    0    0 -0.71738217048E+01 -0.21270715671E+03 -0.78458536077E+03  0.81293910385E+03  0.00000000000E+00 0.  1.
         21    1    1    2  503  502 -0.17812471217E+02  0.11949700509E+02 -0.16506490866E+03  0.16645270663E+03  0.00000000000E+00 0.  1.
          1    1    1    2  501    0 -0.56853142197E+02  0.92741971052E+02 -0.26792530922E+03  0.28916660301E+03  0.00000000000E+00 0. -1.
<scales pt_clust_5="13000.00000" pt_clust_6="13000.00000" pt_clust_7="13000.00000" pt_clust_8="13000.00000" pt_clust_9="21.44946" pt_clust_10="112.97808"></scales>
<clustering>
<clus scale="   21.449">  2  9  1 -1</clus>
<clus scale="   95.885">  7  8 -1 -1</clus>
<clus scale="   97.594">  5  6 -1 -1</clus>
<clus scale="  112.978">  1 10  2 -1</clus>
<clus scale="  209.165">  2  7  1 -1</clus>
<clus scale="  112.978">  1  5  2 -1</clus>
</clustering>
</event>
<event>
10    4  0.5389768E-005  0.3225447E+03  0.7546771E-02  0.1090545E+00
         21   -1    0    0  501  502  0.00000000000E+00  0.00000000000E+00  0.35461445513E+03  0.35461445513E+03  0.00000000000E+00 0. -1.
          2   -1    0    0  503    0 -0.00000000000E+00 -0.00000000000E+00 -0.12760826108E+04  0.12760826108E+04  0.00000000000E+00 0. -1.
         23    2    1    2    0    0 -0.77131523953E+02  0.17136689757E+03  0.94609514256E+02  0.23004500847E+03  0.93026126251E+02 0.  0.
         24    2    1    2    0    0  0.83609058016E+02 -0.32930435164E+03 -0.21988093744E+03  0.41290466442E+03  0.81919501128E+02 0.  0.
        -13    1    4    4    0    0  0.75327587107E+02 -0.13463594082E+03 -0.10660780262E+03  0.18752681280E+03  0.00000000000E+00 0.  1.
         14    1    4    4    0    0  0.82814709082E+01 -0.19466841082E+03 -0.11327313481E+03  0.22537785162E+03  0.00000000000E+00 0. -1.
        -13    1    3    3    0    0 -0.23345639694E+02  0.14974825070E+03  0.72478252798E+02  0.16799599582E+03  0.00000000000E+00 0. -1.
         13    1    3    3    0    0 -0.53785884259E+02  0.21618646865E+02  0.22131261458E+02  0.62049012655E+02  0.00000000000E+00 0.  1.
         21    1    1    2  503  502 -0.16565310584E+03 -0.13110191006E+03 -0.50597306050E+03  0.54830411292E+03  0.00000000000E+00 0. -1.
          1    1    1    2  501    0  0.15917557178E+03  0.28903936413E+03 -0.29022367204E+03  0.43944328016E+03  0.00000000000E+00 0. -1.
<scales pt_clust_5="13000.00000" pt_clust_6="13000.00000" pt_clust_7="13000.00000" pt_clust_8="13000.00000" pt_clust_9="207.11259" pt_clust_10="311.96858"></scales>
<clustering>
<clus scale="   81.920">  5  6 -1 -1</clus>
<clus scale="   93.026">  7  8 -1 -1</clus>
<clus scale="  209.690">  2  7  1 -1</clus>
<clus scale="  207.113">  2  9  1 -1</clus>
<clus scale="  311.969">  1 10  2 -1</clus>
<clus scale="  311.969">  1  5  2 -1</clus>
</clustering>
</event>
<event>
10    4  0.5389768E-005  0.4901537E+03  0.7546771E-02  0.1016381E+00
          2   -1    0    0  503    0 -0.00000000000E+00  0.00000000000E+00  0.22875904475E+04  0.22875904475E+04  0.00000000000E+00 0. -1.
         21   -1    0    0  501  502  0.00000000000E+00 -0.00000000000E+00 -0.54213925689E+03  0.54213925689E+03  0.00000000000E+00 0. -1.
         24    2    1    2    0    0 -0.21986369885E+02  0.75462933081E+02  0.23219904188E+03  0.25808999484E+03  0.80721717386E+02 0.  0.
         23    2    1    2    0    0 -0.25303064426E+03  0.38746479618E+03  0.10977541472E+04  0.11946710273E+04  0.89561266734E+02 0.  0.
        -13    1    3    3    0    0 -0.19174598944E+02  0.35722934254E+02  0.26196707875E+02  0.48270703122E+02  0.00000000000E+00 0.  1.
         14    1    3    3    0    0 -0.28117709415E+01  0.39739998827E+02  0.20600233400E+03  0.20981929172E+03  0.00000000000E+00 0. -1.
        -13    1    4    4    0    0 -0.10990403730E+02  0.38338662873E+02  0.49248401527E+02  0.63372289670E+02  0.00000000000E+00 0.  1.
         13    1    4    4    0    0 -0.24204024053E+03  0.34912613331E+03  0.10485057457E+04  0.11312987376E+04  0.00000000000E+00 0. -1.
         21    1    1    2  503  502 -0.65460256445E+01 -0.14130255642E+03  0.79370648700E+03  0.80621290637E+03  0.00000000000E+00 0.  1.
          1    1    1    2  501    0  0.28156303979E+03 -0.32162517284E+03 -0.37820848550E+03  0.57075577587E+03  0.00000000000E+00 0. -1.
<scales pt_clust_5="13000.00000" pt_clust_6="13000.00000" pt_clust_7="13000.00000" pt_clust_8="13000.00000" pt_clust_9="141.45410" pt_clust_10="434.10595"></scales>
<clustering>
<clus scale="   80.722">  5  6 -1 -1</clus>
<clus scale="   89.561">  7  8 -1 -1</clus>
<clus scale="   93.042">  5  7 -1 -1</clus>
<clus scale="  141.454">  1  9  2 -1</clus>
<clus scale="  434.106">  2 10  1 -1</clus>
<clus scale="  434.106">  2  5  1 -1</clus>
</clustering>
</event>
<event>
10    4  0.5389768E-005  0.3432181E+03  0.7546771E-02  0.1065656E+00
          2   -1    0    0  503    0 -0.00000000000E+00  0.00000000000E+00  0.20801040206E+04  0.20801040206E+04  0.00000000000E+00 0. -1.
         21   -1    0    0  501  502  0.00000000000E+00 -0.00000000000E+00 -0.13946667908E+03  0.13946667908E+03  0.00000000000E+00 0.  1.
         24    2    1    2    0    0  0.55438186994E+02  0.34071550005E+03  0.13603061323E+04  0.14057595864E+04  0.81035774546E+02 0.  0.
         23    2    1    2    0    0 -0.16486409953E+03 -0.27688233220E+03  0.17985793839E+03  0.37973573894E+03  0.89478244415E+02 0.  0.
        -11    1    3    3    0    0  0.13455204671E+02  0.19918316993E+02  0.42570127253E+02  0.48887601894E+02  0.00000000000E+00 0.  1.
         12    1    3    3    0    0  0.41982982322E+02  0.32079718306E+03  0.13177360050E+04  0.13568719845E+04  0.00000000000E+00 0. -1.
        -13    1    4    4    0    0 -0.10342418791E+03 -0.20244443956E+03  0.80368565808E+02  0.24112117312E+03  0.00000000000E+00 0.  1.
         13    1    4    4    0    0 -0.61439911616E+02 -0.74437892640E+02  0.99489372585E+02  0.13861456582E+03  0.00000000000E+00 0. -1.
         21    1    1    2  503  502  0.97027712752E+02 -0.42177892305E+02  0.39446814142E+03  0.40840967941E+03  0.00000000000E+00 0. -1.
          1    1    1    2  501    0  0.12398199783E+02 -0.21655275542E+02  0.60051294524E+01  0.25665694933E+02  0.00000000000E+00 0. -1.
<scales pt_clust_5="13000.00000" pt_clust_6="13000.00000" pt_clust_7="13000.00000" pt_clust_8="13000.00000" pt_clust_9="106.87727" pt_clust_10="24.95328"></scales>
<clustering>
<clus scale="   24.953">  2 10  1 -1</clus>
<clus scale="   81.036">  5  6 -1 -1</clus>
<clus scale="   89.478">  7  8 -1 -1</clus>
<clus scale="  106.877">  1  9  2 -1</clus>
<clus scale="  341.115">  1  5  2 -1</clus>
<clus scale="   24.953">  2  5  1 -1</clus>
</clustering>
</event>
<event>
10    4  0.5389768E-005  0.2166590E+03  0.7546771E-02  0.1136867E+00
          2   -1    0    0  503    0 -0.00000000000E+00  0.00000000000E+00  0.46511449164E+03  0.46511449164E+03  0.00000000000E+00 0. -1.
         21   -1    0    0  501  502  0.00000000000E+00 -0.00000000000E+00 -0.25603617899E+03  0.25603617899E+03  0.00000000000E+00 0.  1.
         24    2    1    2    0    0 -0.48555361670E+02  0.19492143772E+03  0.16691408017E+03  0.27299184356E+03  0.79449647310E+02 0.  0.
         23    2    1    2    0    0  0.55046876682E+02 -0.18221459176E+03 -0.12733740714E+03  0.24021766135E+03  0.72507885650E+02 0.  0.
        -13    1    3    3    0    0  0.14945102660E+02  0.60644266826E+02  0.24129364157E+02  0.66957519421E+02  0.00000000000E+00 0.  1.
         14    1    3    3    0    0 -0.63500464330E+02  0.13427717090E+03  0.14278471602E+03  0.20603432414E+03  0.00000000000E+00 0. -1.
        -11    1    4    4    0    0  0.26284667427E+02 -0.16848020132E+03 -0.96808503212E+02  0.19608250374E+03  0.00000000000E+00 0. -1.
         11    1    4    4    0    0  0.28762209255E+02 -0.13734390447E+02 -0.30528903929E+02  0.44135157610E+02  0.00000000000E+00 0.  1.
         21    1    1    2  503  502  0.26102441644E+02  0.12216546109E+02  0.16403516556E+03  0.16654764183E+03  0.00000000000E+00 0.  1.
          1    1    1    2  501    0 -0.32593956657E+02 -0.24923392070E+02  0.54664740594E+01  0.41393523907E+02  0.00000000000E+00 0. -1.
<scales pt_clust_5="13000.00000" pt_clust_6="13000.00000" pt_clust_7="13000.00000" pt_clust_8="13000.00000" pt_clust_9="28.81981" pt_clust_10="38.83371"></scales>
<clustering>
<clus scale="   28.820">  1  9  2 -1</clus>
<clus scale="   38.834">  2 10  1 -1</clus>
<clus scale="   72.508">  7  8 -1 -1</clus>
<clus scale="   79.450">  5  6 -1 -1</clus>
<clus scale="  214.211">  2  7  1 -1</clus>
<clus scale="   38.834">  2  5  1 -1</clus>
</clustering>
</event>
<event>
10    4  0.5389768E-005  0.2459611E+03  0.7546771E-02  0.1150472E+00
         21   -1    0    0  501  502  0.00000000000E+00  0.00000000000E+00  0.13962209478E+03  0.13962209478E+03  0.00000000000E+00 0. -1.
          2   -1    0    0  503    0 -0.00000000000E+00 -0.00000000000E+00 -0.20373212724E+04  0.20373212724E+04  0.00000000000E+00 0. -1.
         24    2    1    2    0    0 -0.16274620408E+02 -0.63375348866E+02 -0.33238592372E+03  0.34878058420E+03  0.82983103788E+02 0.  0.
         23    2    1    2    0    0 -0.18691788565E+03 -0.95031058935E+02 -0.56715685182E+02  0.23473280004E+03  0.88958531524E+02 0.  0.
        -13    1    3    3    0    0  0.25629658419E+02 -0.26922950575E+02 -0.58432139817E+02  0.69253444838E+02  0.00000000000E+00 0.  1.
         14    1    3    3    0    0 -0.41904278827E+02 -0.36452398292E+02 -0.27395378390E+03  0.27952713936E+03  0.00000000000E+00 0. -1.
        -13    1    4    4    0    0 -0.51740557675E+02 -0.53553968538E+02  0.15347562912E+02  0.76030655278E+02  0.00000000000E+00 0.  1.
         13    1    4    4    0    0 -0.13517732798E+03 -0.41477090397E+02 -0.72063248094E+02  0.15870214477E+03  0.00000000000E+00 0. -1.
         21    1    1    2  503  502 -0.52786303985E+02 -0.10461456343E+03 -0.63734674272E+03  0.64802891234E+03  0.00000000000E+00 0. -1.
          1    1    1    2  501    0  0.25597881005E+03  0.26302097123E+03 -0.87125082595E+03  0.94540107056E+03  0.00000000000E+00 0. -1.
<scales pt_clust_5="13000.00000" pt_clust_6="13000.00000" pt_clust_7="13000.00000" pt_clust_8="13000.00000" pt_clust_9="141.48584" pt_clust_10="229.31046"></scales>
<clustering>
<clus scale="   82.983">  5  6 -1 -1</clus>
<clus scale="   88.959">  7  8 -1 -1</clus>
<clus scale="  105.676">  2  5  1 -1</clus>
<clus scale="  141.486">  2  9  1 -1</clus>
<clus scale="  229.310">  1 10  2 -1</clus>
<clus scale="  229.310">  1  5  2 -1</clus>
</clustering>
</event>
<event>
10    4  0.5389768E-005  0.1582665E+03  0.7546771E-02  0.1192837E+00
          2   -1    0    0  503    0 -0.00000000000E+00  0.00000000000E+00  0.92987614543E+02  0.92987614543E+02  0.00000000000E+00 0. -1.
         21   -1    0    0  501  502  0.00000000000E+00 -0.00000000000E+00 -0.83938286387E+03  0.83938286387E+03  0.00000000000E+00 0.  1.
         24    2    1    2    0    0 -0.13079020145E+03 -0.49729297653E+01 -0.20136573419E+03  0.25193405514E+03  0.76103892185E+02 0.  0.
         23    2    1    2    0    0  0.14593160392E+03  0.27942918881E+01 -0.57296736875E+03  0.59805564366E+03  0.89861594504E+02 0.  0.
        -11    1    3    3    0    0 -0.12940119998E+03 -0.34457154242E+01 -0.20799729193E+03  0.24498860578E+03  0.00000000000E+00 0.  1.
         12    1    3    3    0    0 -0.13890014683E+01 -0.15272143411E+01  0.66315577395E+01  0.69454493573E+01  0.00000000000E+00 0. -1.
        -11    1    4    4    0    0  0.13336617303E+02  0.27582192897E+02 -0.17980531946E+03  0.18239680817E+03  0.00000000000E+00 0. -1.
         11    1    4    4    0    0  0.13259498661E+03 -0.24787901008E+02 -0.39316204929E+03  0.41565883549E+03  0.00000000000E+00 0.  1.
         21    1    1    2  503  502  0.14301405942E+02  0.19554653779E+02  0.39460135347E+02  0.46303530944E+02  0.00000000000E+00 0. -1.
          1    1    1    2  501    0 -0.29442808407E+02 -0.17376015902E+02 -0.11522281728E+02  0.36077248672E+02  0.00000000000E+00 0. -1.
<scales pt_clust_5="13000.00000" pt_clust_6="13000.00000" pt_clust_7="13000.00000" pt_clust_8="13000.00000" pt_clust_9="24.22632" pt_clust_10="28.83015"></scales>
<clustering>
<clus scale="   24.226">  1  9  2 -1</clus>
<clus scale="   28.830">  2 10  1 -1</clus>
<clus scale="   76.104">  5  6 -1 -1</clus>
<clus scale="   89.862">  7  8 -1 -1</clus>
<clus scale="  150.881">  1  5  2 -1</clus>
<clus scale="   28.830">  2  5  1 -1</clus>
</clustering>
</event>
<event>
10    4  0.5389768E-005  0.1245514E+03  0.7546771E-02  0.1256793E+00
          2   -1    0    0  503    0 -0.00000000000E+00  0.00000000000E+00  0.76595046982E+03  0.76595046982E+03  0.00000000000E+00 0. -1.
         21   -1    0    0  501  502  0.00000000000E+00 -0.00000000000E+00 -0.43724357710E+02  0.43724357710E+02  0.00000000000E+00 0.  1.
         24    2    1    2    0    0 -0.97062722693E+01  0.56830777964E+01  0.31386178585E+03  0.32423965679E+03  0.80595442346E+02 0.  0.
         23    2    1    2    0    0 -0.45155009507E+02  0.65381238528E+02  0.11507779173E+03  0.16732123621E+03  0.91868475010E+02 0.  0.
        -11    1    3    3    0    0  0.25452601001E+02  0.22928167081E+02  0.78599192428E+02  0.85740123593E+02  0.00000000000E+00 0.  1.
         12    1    3    3    0    0 -0.35158873270E+02 -0.17245089284E+02  0.23526259342E+03  0.23849953320E+03  0.00000000000E+00 0. -1.
        -13    1    4    4    0    0  0.30238170070E+01  0.66304173816E+02  0.38175165564E+02  0.76568467403E+02  0.00000000000E+00 0.  1.
         13    1    4    4    0    0 -0.48178826514E+02 -0.92293528795E+00  0.76902626170E+02  0.90752768804E+02  0.00000000000E+00 0. -1.
         21    1    1    2  503  502  0.76897947688E+02 -0.50934600303E+02  0.23869133487E+03  0.25589290965E+03  0.00000000000E+00 0. -1.
          1    1    1    2  501    0 -0.22036665913E+02 -0.20129716021E+02  0.54595199662E+02  0.62221024885E+02  0.00000000000E+00 0. -1.
<scales pt_clust_5="13000.00000" pt_clust_6="13000.00000" pt_clust_7="13000.00000" pt_clust_8="13000.00000" pt_clust_9="84.10260" pt_clust_10="29.84661"></scales>
<clustering>
<clus scale="   29.847">  2 10  1 -1</clus>
<clus scale="   80.595">  5  6 -1 -1</clus>
<clus scale="   81.628">  1  5  2 -1</clus>
<clus scale="   84.103">  1  9  2 -1</clus>
<clus scale="   91.868">  7  8 -1 -1</clus>
<clus scale="   29.847">  2  5  1 -1</clus>
</clustering>
</event>
<event>
10    4  0.5389768E-005  0.3120754E+03  0.7546771E-02  0.1119570E+00
         21   -1    0    0  501  502  0.00000000000E+00  0.00000000000E+00  0.28429374500E+03  0.28429374500E+03  0.00000000000E+00 0. -1.
          2   -1    0    0  503    0 -0.00000000000E+00 -0.00000000000E+00 -0.89143771596E+03  0.89143771596E+03  0.00000000000E+00 0. -1.
         24    2    1    2    0    0 -0.35699600187E+02 -0.60990514553E+02 -0.91879423672E+02  0.14091190398E+03  0.80125101367E+02 0.  0.
         23    2    1    2    0    0 -0.26321001257E+03  0.68649331636E+02 -0.46597440281E+03  0.54773162348E+03  0.94263173298E+02 0.  0.
        -11    1    3    3    0    0 -0.18126331220E+02 -0.68691310748E+02 -0.31785049299E+02  0.77828975419E+02  0.00000000000E+00 0.  1.
         12    1    3    3    0    0 -0.17573268967E+02  0.77007961952E+01 -0.60094374373E+02  0.63082928558E+02  0.00000000000E+00 0. -1.
        -11    1    4    4    0    0 -0.85741354699E+02 -0.21731736585E+02 -0.15451784851E+03  0.17804385356E+03  0.00000000000E+00 0. -1.
         11    1    4    4    0    0 -0.17746865787E+03  0.90381068221E+02 -0.31145655429E+03  0.36968776992E+03  0.00000000000E+00 0.  1.
         21    1    1    2  503  502 -0.57868778371E+01 -0.28203824670E+02 -0.15975968872E+03  0.16233330471E+03  0.00000000000E+00 0.  1.
          1    1    1    2  501    0  0.30469649060E+03  0.20545007586E+02  0.11046954423E+03  0.32475462879E+03  0.00000000000E+00 0. -1.
<scales pt_clust_5="13000.00000" pt_clust_6="13000.00000" pt_clust_7="13000.00000" pt_clust_8="13000.00000" pt_clust_9="28.79138" pt_clust_10="297.49877"></scales>
<clustering>
<clus scale="   28.791">  2  9  1 -1</clus>
<clus scale="   80.125">  5  6 -1 -1</clus>
<clus scale="   94.263">  7  8 -1 -1</clus>
<clus scale="  109.770">  2  5  1 -1</clus>
<clus scale="  297.499">  1 10  2 -1</clus>
<clus scale="  297.499">  1  5  2 -1</clus>
</clustering>
</event>
<event>
10    4  0.5389768E-005  0.1952290E+03  0.7546771E-02  0.1154911E+00
          2   -1    0    0  503    0 -0.00000000000E+00  0.00000000000E+00  0.28509043184E+03  0.28509043184E+03  0.00000000000E+00 0. -1.
         21   -1    0    0  501  502  0.00000000000E+00 -0.00000000000E+00 -0.18306250808E+03  0.18306250808E+03  0.00000000000E+00 0. -1.
         23    2    1    2    0    0  0.17930814007E+03 -0.53853600009E+01  0.48961176961E+02  0.20723850728E+03  0.91488747145E+02 0.  0.
         24    2    1    2    0    0 -0.16658512725E+03 -0.50295227257E+01  0.69981568485E+01  0.18521078673E+03  0.80487021328E+02 0.  0.
        -13    1    4    4    0    0 -0.34379966460E+02 -0.29488634696E+02  0.21207713436E+02  0.50013286027E+02  0.00000000000E+00 0.  1.
         14    1    4    4    0    0 -0.13220516079E+03  0.24459111971E+02 -0.14209556588E+02  0.13519750071E+03  0.00000000000E+00 0. -1.
        -11    1    3    3    0    0  0.13297347203E+02  0.28939292656E+02  0.80379639079E+01  0.32846780145E+02  0.00000000000E+00 0.  1.
         11    1    3    3    0    0  0.16601079286E+03 -0.34324652657E+02  0.40923213054E+02  0.17439172714E+03  0.00000000000E+00 0. -1.
         21    1    1    2  503  502 -0.10410612935E+02  0.34138158990E+02  0.22543545005E+02  0.42213815064E+02  0.00000000000E+00 0. -1.
          1    1    1    2  501    0 -0.23123998807E+01 -0.23723276263E+02  0.23525044952E+02  0.33489830842E+02  0.00000000000E+00 0. -1.
<scales pt_clust_5="13000.00000" pt_clust_6="13000.00000" pt_clust_7="13000.00000" pt_clust_8="13000.00000" pt_clust_9="34.47798" pt_clust_10="23.83572"></scales>
<clustering>
<clus scale="   23.836">  2 10  1 -1</clus>
<clus scale="   34.478">  1  9  2 -1</clus>
<clus scale="   80.487">  5  6 -1 -1</clus>
<clus scale="   91.489">  7  8 -1 -1</clus>
<clus scale="  190.322">  2  5  1 -1</clus>
<clus scale="   23.836">  2  5  1 -1</clus>
</clustering>
</event>
<event>
10    4  0.5389768E-005  0.1363043E+03  0.7546771E-02  0.1219367E+00
         21   -1    0    0  501  502  0.00000000000E+00  0.00000000000E+00  0.18020901843E+03  0.18020901843E+03  0.00000000000E+00 0.  1.
          2   -1    0    0  503    0 -0.00000000000E+00 -0.00000000000E+00 -0.32179509957E+03  0.32179509957E+03  0.00000000000E+00 0. -1.
         24    2    1    2    0    0 -0.11765578919E+03 -0.27145843601E+02 -0.16516753875E+03  0.22250073879E+03  0.87444161340E+02 0.  0.
         23    2    1    2    0    0  0.59827725070E+02  0.96701797863E+01  0.25277173252E+02  0.11272125333E+03  0.91620283785E+02 0.  0.
        -11    1    3    3    0    0 -0.31905153691E+02 -0.16143149699E+02 -0.11948341904E+03  0.12471899431E+03  0.00000000000E+00 0.  1.
         12    1    3    3    0    0 -0.85750635502E+02 -0.11002693902E+02 -0.45684119705E+02  0.97781744489E+02  0.00000000000E+00 0. -1.
        -13    1    4    4    0    0  0.82695921910E+02  0.10943857128E+02  0.31205669518E+02  0.89062771793E+02  0.00000000000E+00 0.  1.
         13    1    4    4    0    0 -0.22868196841E+02 -0.12736773419E+01 -0.59284962657E+01  0.23658481538E+02  0.00000000000E+00 0. -1.
         21    1    1    2  503  502  0.12527128411E+02 -0.32152029791E+02 -0.65555773905E+02  0.74082666382E+02  0.00000000000E+00 0. -1.
          1    1    1    2  501    0  0.45300935712E+02  0.49627693606E+02  0.63860058264E+02  0.92699459494E+02  0.00000000000E+00 0. -1.
<scales pt_clust_5="13000.00000" pt_clust_6="13000.00000" pt_clust_7="13000.00000" pt_clust_8="13000.00000" pt_clust_9="34.50626" pt_clust_10="66.34236"></scales>
<clustering>
<clus scale="   34.506">  2  9  1 -1</clus>
<clus scale="   66.342">  1 10  2 -1</clus>
<clus scale="   87.444">  5  6 -1 -1</clus>
<clus scale="   91.620">  7  8 -1 -1</clus>
<clus scale="  133.533">  2  5  1 -1</clus>
<clus scale="   66.342">  1  5  2 -1</clus>
</clustering>
</event>
<event>
10    4  0.5389768E-005  0.9435198E+02  0.7546771E-02  0.1296840E+00
         21   -1    0    0  503  502  0.00000000000E+00  0.00000000000E+00  0.10492208395E+03  0.10492208395E+03  0.00000000000E+00 0. -1.
         -3   -1    0    0    0  501 -0.00000000000E+00 -0.00000000000E+00 -0.16447799681E+03  0.16447799681E+03  0.00000000000E+00 0.  1.
         24    2    1    2    0    0  0.24588172974E+02 -0.17092113130E+02 -0.57953322406E+02  0.10615002766E+03  0.83740803750E+02 0.  0.
         23    2    1    2    0    0 -0.73954904867E+01  0.10019584936E+02  0.92436317377E+01  0.92408923240E+02  0.91098183323E+02 0.  0.
        -13    1    3    3    0    0  0.55419737397E+02 -0.15602368368E+02 -0.42949190602E+02  0.71829062121E+02  0.00000000000E+00 0.  1.
         14    1    3    3    0    0 -0.30831564424E+02 -0.14897447621E+01 -0.15004131805E+02  0.34320965538E+02  0.00000000000E+00 0. -1.
        -11    1    4    4    0    0 -0.16584658792E+02 -0.30556048667E+02 -0.21322275294E+02  0.40784340636E+02  0.00000000000E+00 0.  1.
         11    1    4    4    0    0  0.91891683057E+01  0.40575633602E+02  0.30565907032E+02  0.51624582604E+02  0.00000000000E+00 0. -1.
         21    1    1    2  503  501 -0.17544612154E+02 -0.20219204960E+02 -0.27893315262E+02  0.38660919559E+02  0.00000000000E+00 0. -1.
         -4    1    1    2    0  502  0.35192966712E+00  0.27291733154E+02  0.17047093075E+02  0.32180210306E+02  0.00000000000E+00 0.  1.
<scales pt_clust_5="13000.00000" pt_clust_6="13000.00000" pt_clust_7="13000.00000" pt_clust_8="13000.00000" pt_clust_9="26.76994" pt_clust_10="26.13399"></scales>
<clustering>
<clus scale="   26.770">  2  9  1 -1</clus>
<clus scale="   26.134">  1 10  2 -1</clus>
<clus scale="   83.741">  5  6 -1 -1</clus>
<clus scale="   87.269">  2  5  1 -1</clus>
<clus scale="   91.098">  7  8 -1 -1</clus>
<clus scale="   26.134">  1  5  2 -1</clus>
</clustering>
</event>
<event>
10    4  0.5389768E-005  0.1671154E+03  0.7546771E-02  0.1200229E+00
         21   -1    0    0  501  502  0.00000000000E+00  0.00000000000E+00  0.33520128236E+03  0.33520128236E+03  0.00000000000E+00 0.  1.
          2   -1    0    0  503    0 -0.00000000000E+00 -0.00000000000E+00 -0.44181101948E+03  0.44181101948E+03  0.00000000000E+00 0. -1.
         24    2    1    2    0    0  0.18817103789E+02 -0.46848996111E+02 -0.20228324725E+03  0.22346433528E+03  0.80429380179E+02 0.  0.
         23    2    1    2    0    0 -0.50689230407E+02  0.21717040367E+03 -0.63116668515E+02  0.24848131585E+03  0.89592790870E+02 0.  0.
        -11    1    3    3    0    0  0.17098896788E+02  0.14325735597E+02 -0.11325184887E+03  0.11542781400E+03  0.00000000000E+00 0.  1.
         12    1    3    3    0    0  0.17182070001E+01 -0.61174731708E+02 -0.89031398374E+02  0.10803652128E+03  0.00000000000E+00 0. -1.
        -11    1    4    4    0    0  0.17078764548E+02  0.23849685167E+02 -0.28165020104E+02  0.40666448560E+02  0.00000000000E+00 0. -1.
         11    1    4    4    0    0 -0.67767994955E+02  0.19332071850E+03 -0.34951648412E+02  0.20781486729E+03  0.00000000000E+00 0.  1.
         21    1    1    2  503  502  0.10861361975E+02 -0.40989660358E+02 -0.45609149669E+02  0.62276126836E+02  0.00000000000E+00 0. -1.
          1    1    1    2  501    0  0.21010764643E+02 -0.12933174720E+03  0.20439932832E+03  0.24279052387E+03  0.00000000000E+00 0. -1.
<scales pt_clust_5="13000.00000" pt_clust_6="13000.00000" pt_clust_7="13000.00000" pt_clust_8="13000.00000" pt_clust_9="42.40426" pt_clust_10="141.06976"></scales>
<clustering>
<clus scale="   42.404">  2  9  1 -1</clus>
<clus scale="   80.429">  5  6 -1 -1</clus>
<clus scale="   89.593">  7  8 -1 -1</clus>
<clus scale="  109.049">  2  5  1 -1</clus>
<clus scale="  141.070">  1 10  2 -1</clus>
<clus scale="  141.070">  1  5  2 -1</clus>
</clustering>
</event>
<event>
10    4  0.5389768E-005  0.1023643E+03  0.7546771E-02  0.1283375E+00
         -3   -1    0    0    0  501 -0.00000000000E+00  0.00000000000E+00  0.88107551990E+02  0.88107551990E+02  0.00000000000E+00 0.  1.
         21   -1    0    0  503  502  0.00000000000E+00 -0.00000000000E+00 -0.28887175599E+03  0.28887175599E+03  0.00000000000E+00 0.  1.
         23    2    1    2    0    0  0.29973677511E+02 -0.11600430376E+02  0.11923029339E+02  0.99051631021E+02  0.92930488274E+02 0.  0.
         24    2    1    2    0    0 -0.36536405083E+02  0.47038245169E+02 -0.16046086732E+03  0.18757960511E+03  0.76752282737E+02 0.  0.
        -11    1    4    4    0    0 -0.58142796852E+02  0.31222535902E+02 -0.85685959346E+02  0.10815505168E+03  0.00000000000E+00 0.  1.
         12    1    4    4    0    0  0.21606391769E+02  0.15815709267E+02 -0.74774907976E+02  0.79424553431E+02  0.00000000000E+00 0. -1.
        -11    1    3    3    0    0  0.41528517307E+02  0.10452795224E+02 -0.28596731345E+02  0.51494191141E+02  0.00000000000E+00 0.  1.
         11    1    3    3    0    0 -0.11554839796E+02 -0.22053225601E+02  0.40519760683E+02  0.47557439880E+02  0.00000000000E+00 0. -1.
         21    1    1    2  503  501 -0.20263962788E+02 -0.31279977851E+02 -0.74839806703E+01  0.38014144327E+02  0.00000000000E+00 0.  1.
         -4    1    1    2    0  502  0.26826690360E+02 -0.41578369419E+01 -0.44742385347E+02  0.52333927525E+02  0.00000000000E+00 0.  1.
<scales pt_clust_5="13000.00000" pt_clust_6="13000.00000" pt_clust_7="13000.00000" pt_clust_8="13000.00000" pt_clust_9="36.29568" pt_clust_10="27.14699"></scales>
<clustering>
<clus scale="   27.147">  2 10  1 -1</clus>
<clus scale="   36.296">  1  9  2 -1</clus>
<clus scale="   76.752">  5  6 -1 -1</clus>
<clus scale="   87.939">  2  5  1 -1</clus>
<clus scale="   92.930">  7  8 -1 -1</clus>
<clus scale="   27.147">  2  5  1 -1</clus>
</clustering>
</event>
<event>
10    4  0.5389768E-005  0.1178218E+03  0.7546771E-02  0.1250046E+00
         21   -1    0    0  501  502  0.00000000000E+00  0.00000000000E+00  0.25496061458E+03  0.25496061458E+03  0.00000000000E+00 0. -1.
          2   -1    0    0  503    0 -0.00000000000E+00 -0.00000000000E+00 -0.34832203626E+03  0.34832203626E+03  0.00000000000E+00 0. -1.
         23    2    1    2    0    0 -0.53387622580E+02  0.41680690158E+02 -0.25570214326E+03  0.28021421505E+03  0.92460272933E+02 0.  0.
         24    2    1    2    0    0  0.63473698075E+02 -0.59898800492E+02  0.91597415212E+02  0.15109866893E+03  0.82607170572E+02 0.  0.
        -13    1    4    4    0    0  0.56491470031E+02 -0.18561755692E+01  0.67044496031E+02  0.87690911855E+02  0.00000000000E+00 0.  1.
         14    1    4    4    0    0  0.69822280446E+01 -0.58042624923E+02  0.24552919181E+02  0.63407757071E+02  0.00000000000E+00 0. -1.
        -13    1    3    3    0    0  0.24063281670E+02  0.17637747663E+02 -0.10401488472E+03  0.10820918589E+03  0.00000000000E+00 0.  1.
         13    1    3    3    0    0 -0.77450904250E+02  0.24042942495E+02 -0.15168725854E+03  0.17200502916E+03  0.00000000000E+00 0. -1.
         21    1    1    2  503  502 -0.22175477837E+02 -0.38188407454E+02 -0.31728078845E+02  0.54376256476E+02  0.00000000000E+00 0.  1.
          1    1    1    2  501    0  0.12089402341E+02  0.56406517789E+02  0.10247138521E+03  0.11759351039E+03  0.00000000000E+00 0. -1.
<scales pt_clust_5="13000.00000" pt_clust_6="13000.00000" pt_clust_7="13000.00000" pt_clust_8="13000.00000" pt_clust_9="44.16001" pt_clust_10="56.64855"></scales>
<clustering>
<clus scale="   44.160">  2  9  1 -1</clus>
<clus scale="   56.649">  1 10  2 -1</clus>
<clus scale="   82.607">  5  6 -1 -1</clus>
<clus scale="   92.460">  7  8 -1 -1</clus>
<clus scale="  110.259">  1  5  2 -1</clus>
<clus scale="   56.649">  1  5  2 -1</clus>
</clustering>
</event>
<event>
10    4  0.5389768E-005  0.2424089E+03  0.7546771E-02  0.1128761E+00
         21   -1    0    0  501  502  0.00000000000E+00  0.00000000000E+00  0.62302174588E+03  0.62302174588E+03  0.00000000000E+00 0. -1.
          2   -1    0    0  503    0 -0.00000000000E+00 -0.00000000000E+00 -0.94050741036E+03  0.94050741036E+03  0.00000000000E+00 0. -1.
         23    2    1    2    0    0 -0.13269168867E+03  0.75927350008E+02 -0.32189792995E+03  0.36776863178E+03  0.90903478997E+02 0.  0.
         24    2    1    2    0    0  0.69699285295E+02  0.21426545605E+03  0.51186102855E+03  0.56496471439E+03  0.80098314193E+02 0.  0.
        -11    1    4    4    0    0  0.59888240079E+02  0.73500538769E+02  0.16176165391E+03  0.18749870180E+03  0.00000000000E+00 0.  1.
         12    1    4    4    0    0  0.98110452164E+01  0.14076491728E+03  0.35009937463E+03  0.37746601260E+03  0.00000000000E+00 0. -1.
        -13    1    3    3    0    0 -0.39949329395E+02  0.74383566814E+02 -0.16944424428E+03  0.18931512315E+03  0.00000000000E+00 0. -1.
         13    1    3    3    0    0 -0.92742359273E+02  0.15437831938E+01 -0.15245368567E+03  0.17845350863E+03  0.00000000000E+00 0.  1.
         21    1    1    2  503  502 -0.68596355252E+01  0.35100573730E+02 -0.90910047356E+02  0.97692075349E+02  0.00000000000E+00 0.  1.
          1    1    1    2  501    0  0.69852038898E+02 -0.32529337979E+03 -0.41653871572E+03  0.53310373472E+03  0.00000000000E+00 0. -1.
<scales pt_clust_5="13000.00000" pt_clust_6="13000.00000" pt_clust_7="13000.00000" pt_clust_8="13000.00000" pt_clust_9="35.76458" pt_clust_10="228.79336"></scales>
<clustering>
<clus scale="   35.765">  2  9  1 -1</clus>
<clus scale="   80.098">  5  6 -1 -1</clus>
<clus scale="   90.903">  7  8 -1 -1</clus>
<clus scale="  186.445">  2  7  1 -1</clus>
<clus scale="  228.793">  1 10  2 -1</clus>
<clus scale="  228.793">  1  5  2 -1</clus>
</clustering>
</event>
<event>
10    4  0.5389768E-005  0.1167496E+03  0.7546771E-02  0.1252149E+00
          2   -1    0    0  503    0 -0.00000000000E+00  0.00000000000E+00  0.15899128956E+03  0.15899128956E+03  0.00000000000E+00 0. -1.
         21   -1    0    0  501  502  0.00000000000E+00 -0.00000000000E+00 -0.29473649769E+03  0.29473649769E+03  0.00000000000E+00 0. -1.
         24    2    1    2    0    0  0.84770592761E+02 -0.48181166780E+02  0.15469653583E+02  0.12770655633E+03  0.81007259660E+02 0.  0.
         23    2    1    2    0    0 -0.41913774143E+02 -0.48237390672E+02 -0.10129314616E+03  0.15075538488E+03  0.91560222203E+02 0.  0.
        -11    1    3    3    0    0  0.54533124781E+02 -0.16143425453E+02 -0.30081197860E+02  0.64337783210E+02  0.00000000000E+00 0.  1.
         12    1    3    3    0    0  0.30237467980E+02 -0.32037741327E+02  0.45550851443E+02  0.63368773117E+02  0.00000000000E+00 0. -1.
        -13    1    4    4    0    0 -0.65493820289E+01 -0.64541803412E+02 -0.88571392959E+02  0.10978811613E+03  0.00000000000E+00 0.  1.
         13    1    4    4    0    0 -0.35364392114E+02  0.16304412740E+02 -0.12721753201E+02  0.40967268751E+02  0.00000000000E+00 0. -1.
         21    1    1    2  503  502  0.30736303881E+01  0.34790818462E+02  0.42532680405E+02  0.55035235581E+02  0.00000000000E+00 0. -1.
          1    1    1    2  501    0 -0.45930449006E+02  0.61627738991E+02 -0.92454395956E+02  0.12023061046E+03  0.00000000000E+00 0. -1.
<scales pt_clust_5="13000.00000" pt_clust_6="13000.00000" pt_clust_7="13000.00000" pt_clust_8="13000.00000" pt_clust_9="34.92633" pt_clust_10="80.19826"></scales>
<clustering>
<clus scale="   34.926">  1  9  2 -1</clus>
<clus scale="   80.198">  2 10  1 -1</clus>
<clus scale="   81.007">  5  6 -1 -1</clus>
<clus scale="   91.560">  7  8 -1 -1</clus>
<clus scale="  108.671">  1  5  2 -1</clus>
<clus scale="   80.198">  2  5  1 -1</clus>
</clustering>
</event>
<event>
10    4  0.5389768E-005  0.2567263E+03  0.7546771E-02  0.1109779E+00
          2   -1    0    0  503    0 -0.00000000000E+00  0.00000000000E+00  0.17235762226E+04  0.17235762226E+04  0.00000000000E+00 0. -1.
         21   -1    0    0  501  502  0.00000000000E+00 -0.00000000000E+00 -0.19159892638E+03  0.19159892638E+03  0.00000000000E+00 0.  1.
         24    2    1    2    0    0  0.17736177749E+03  0.16767064628E+03  0.12742251628E+04  0.12997642723E+04  0.78528671672E+02 0.  0.
         23    2    1    2    0    0 -0.21912810035E+03 -0.17446158405E+03  0.13473062146E+02  0.29489258024E+03  0.91247694768E+02 0.  0.
        -13    1    3    3    0    0  0.86032120531E+02  0.45036979109E+02  0.36128784846E+03  0.37411063163E+03  0.00000000000E+00 0.  1.
         14    1    3    3    0    0  0.91329656962E+02  0.12263366717E+03  0.91293731438E+03  0.92565364070E+03  0.00000000000E+00 0. -1.
        -13    1    4    4    0    0 -0.84044406183E+02 -0.12487266171E+03  0.11825303299E+02  0.15098503784E+03  0.00000000000E+00 0.  1.
         13    1    4    4    0    0 -0.13508369417E+03 -0.49588922342E+02  0.16477588468E+01  0.14390754240E+03  0.00000000000E+00 0. -1.
         21    1    1    2  503  502  0.13426781944E+02 -0.29783126137E+02  0.26698646375E+03  0.26897785206E+03  0.00000000000E+00 0.  1.
          1    1    1    2  501    0  0.28339540917E+02  0.36574063906E+02 -0.22707392512E+02  0.51540444358E+02  0.00000000000E+00 0. -1.
<scales pt_clust_5="13000.00000" pt_clust_6="13000.00000" pt_clust_7="13000.00000" pt_clust_8="13000.00000" pt_clust_9="32.66976" pt_clust_10="46.11786"></scales>
<clustering>
<clus scale="   32.670">  1  9  2 -1</clus>
<clus scale="   46.118">  2 10  1 -1</clus>
<clus scale="   78.529">  5  6 -1 -1</clus>
<clus scale="   91.248">  7  8 -1 -1</clus>
<clus scale="  252.486">  1  5  2 -1</clus>
<clus scale="   46.118">  2  5  1 -1</clus>
</clustering>
</event>
<event>
10    4  0.5389768E-005  0.1430028E+03  0.7546771E-02  0.1235003E+00
         21   -1    0    0  503  502  0.00000000000E+00  0.00000000000E+00  0.28620872551E+03  0.28620872551E+03  0.00000000000E+00 0.  1.
         -3   -1    0    0    0  501 -0.00000000000E+00 -0.00000000000E+00 -0.14117126482E+03  0.14117126482E+03  0.00000000000E+00 0.  1.
         24    2    1    2    0    0  0.24692271103E+02  0.18819538787E+02  0.81470197932E+02  0.11788480094E+03  0.79344501068E+02 0.  0.
         23    2    1    2    0    0  0.85332779136E+02 -0.19400352161E+02  0.37814302674E+01  0.13317053489E+03  0.10030969689E+03 0.  0.
        -13    1    3    3    0    0 -0.30557598929E+01 -0.24249763346E+02  0.36487268543E+01  0.24712383505E+02  0.00000000000E+00 0.  1.
         14    1    3    3    0    0  0.27748030996E+02  0.43069302133E+02  0.77821471078E+02  0.93172417437E+02  0.00000000000E+00 0. -1.
        -11    1    4    4    0    0  0.72978004551E+02 -0.53881741763E+02 -0.15100273037E+02  0.91962217729E+02  0.00000000000E+00 0.  1.
         11    1    4    4    0    0  0.12354774584E+02  0.34481389603E+02  0.18881703305E+02  0.41208317166E+02  0.00000000000E+00 0. -1.
         21    1    1    2  503  501 -0.90152026864E+01 -0.39012685909E+02 -0.16905271831E+02  0.43463223039E+02  0.00000000000E+00 0.  1.
         -4    1    1    2    0  502 -0.10100984755E+03  0.39593499282E+02  0.76691104320E+02  0.13286143146E+03  0.00000000000E+00 0.  1.
<scales pt_clust_5="13000.00000" pt_clust_6="13000.00000" pt_clust_7="13000.00000" pt_clust_8="13000.00000" pt_clust_9="40.04077" pt_clust_10="101.92045"></scales>
<clustering>
<clus scale="   40.041">  2  9  1 -1</clus>
<clus scale="   79.345">  5  6 -1 -1</clus>
<clus scale="   83.598">  2  5  1 -1</clus>
<clus scale="  100.310">  7  8 -1 -1</clus>
<clus scale="  101.920">  1 10  2 -1</clus>
<clus scale="  101.920">  1  5  2 -1</clus>
</clustering>
</event>
<event>
10    4  0.5389768E-005  0.1198740E+03  0.7546771E-02  0.1246702E+00
          2   -1    0    0  503    0 -0.00000000000E+00  0.00000000000E+00  0.55234960208E+03  0.55234960208E+03  0.00000000000E+00 0. -1.
         21   -1    0    0  501  502  0.00000000000E+00 -0.00000000000E+00 -0.10683349306E+03  0.10683349306E+03  0.00000000000E+00 0.  1.
         24    2    1    2    0    0  0.50379462894E+02 -0.34395297179E+02  0.29817690675E+03  0.31407325167E+03  0.77533302181E+02 0.  0.
         23    2    1    2    0    0 -0.70413078245E+02  0.83088079759E+02  0.52876611197E+02  0.15002207605E+03  0.88594902257E+02 0.  0.
        -11    1    3    3    0    0  0.20507696948E+02  0.21153783784E+02  0.15263801524E+03  0.15545549813E+03  0.00000000000E+00 0.  1.
         12    1    3    3    0    0  0.29871765946E+02 -0.55549080963E+02  0.14553889151E+03  0.15861775354E+03  0.00000000000E+00 0. -1.
        -13    1    4    4    0    0 -0.68501797158E+02  0.12678811259E+02  0.21439409908E+02  0.72889620427E+02  0.00000000000E+00 0.  1.
         13    1    4    4    0    0 -0.19112810871E+01  0.70409268500E+02  0.31437201289E+02  0.77132455627E+02  0.00000000000E+00 0. -1.
         21    1    1    2  503  502  0.25491290065E+02  0.34694973423E+00  0.13114744908E+03  0.13360231901E+03  0.00000000000E+00 0. -1.
          1    1    1    2  501    0 -0.54576747142E+01 -0.49039732314E+02 -0.36684858009E+02  0.61485448407E+02  0.00000000000E+00 0. -1.
<scales pt_clust_5="13000.00000" pt_clust_6="13000.00000" pt_clust_7="13000.00000" pt_clust_8="13000.00000" pt_clust_9="25.49365" pt_clust_10="49.25472"></scales>
<clustering>
<clus scale="   25.494">  1  9  2 -1</clus>
<clus scale="   49.255">  2 10  1 -1</clus>
<clus scale="   77.533">  5  6 -1 -1</clus>
<clus scale="   88.595">  7  8 -1 -1</clus>
<clus scale="  111.947">  1  5  2 -1</clus>
<clus scale="   49.255">  2  5  1 -1</clus>
</clustering>
</event>
<event>
10    4  0.5389768E-005  0.1252398E+03  0.7546771E-02  0.1234888E+00
          2   -1    0    0  503    0 -0.00000000000E+00  0.00000000000E+00  0.29032163899E+03  0.29032163899E+03  0.00000000000E+00 0. -1.
         21   -1    0    0  501  502  0.00000000000E+00 -0.00000000000E+00 -0.19539429578E+03  0.19539429578E+03  0.00000000000E+00 0.  1.
         23    2    1    2    0    0  0.77335732423E+00  0.63600716887E+02  0.48801222784E+02  0.11832705937E+03  0.87029215575E+02 0.  0.
         24    2    1    2    0    0 -0.76103681115E+01 -0.12212511249E+03 -0.10533612092E+03  0.18375533684E+03  0.87737475702E+02 0.  0.
        -11    1    4    4    0    0 -0.35835502034E+02 -0.83075027315E+02 -0.10066311603E+03  0.13534661539E+03  0.00000000000E+00 0.  1.
         12    1    4    4    0    0  0.28225133923E+02 -0.39050085178E+02 -0.46730048889E+01  0.48408721446E+02  0.00000000000E+00 0. -1.
        -11    1    3    3    0    0  0.37358220478E+02  0.62900920777E+01  0.28376615203E+02  0.47333224969E+02  0.00000000000E+00 0.  1.
         11    1    3    3    0    0 -0.36584863153E+02  0.57310624809E+02  0.20424607582E+02  0.70993834400E+02  0.00000000000E+00 0. -1.
         21    1    1    2  503  502 -0.25575291042E+02  0.47463381346E+02  0.40292029999E+02  0.67307620387E+02  0.00000000000E+00 0. -1.
          1    1    1    2  501    0  0.32412301829E+02  0.11061014260E+02  0.11117021135E+03  0.11632591817E+03  0.00000000000E+00 0. -1.
<scales pt_clust_5="13000.00000" pt_clust_6="13000.00000" pt_clust_7="13000.00000" pt_clust_8="13000.00000" pt_clust_9="53.57272" pt_clust_10="34.24769"></scales>
<clustering>
<clus scale="   34.248">  2 10  1 -1</clus>
<clus scale="   53.573">  1  9  2 -1</clus>
<clus scale="   87.029">  7  8 -1 -1</clus>
<clus scale="   87.737">  5  6 -1 -1</clus>
<clus scale="  124.745">  1  7  2 -1</clus>
<clus scale="   34.248">  2  5  1 -1</clus>
</clustering>
</event>
<event>
10    4  0.5389768E-005  0.1796390E+03  0.7546771E-02  0.1168636E+00
         -1   -1    0    0    0  501 -0.00000000000E+00  0.00000000000E+00  0.37298842136E+03  0.37298842136E+03  0.00000000000E+00 0.  1.
         21   -1    0    0  503  502  0.00000000000E+00 -0.00000000000E+00 -0.20002721536E+03  0.20002721536E+03  0.00000000000E+00 0.  1.
         23    2    1    2    0    0 -0.10968267807E+03  0.12712713652E+03  0.23289930082E+03  0.29925176390E+03  0.84367856244E+02 0.  0.
         24    2    1    2    0    0  0.11171751107E+03 -0.82014156671E+02 -0.12759756969E+01  0.16005839544E+03  0.80062086309E+02 0.  0.
        -11    1    4    4    0    0  0.11419205201E+03 -0.49365688696E+02  0.11446777158E+02  0.12493127979E+03  0.00000000000E+00 0.  1.
         12    1    4    4    0    0 -0.24745409412E+01 -0.32648467974E+02 -0.12722752854E+02  0.35127115653E+02  0.00000000000E+00 0. -1.
        -11    1    3    3    0    0 -0.56548960476E+02  0.11237654148E+03  0.19600700806E+03  0.23290560151E+03  0.00000000000E+00 0.  1.
         11    1    3    3    0    0 -0.53133717591E+02  0.14750595045E+02  0.36892292763E+02  0.66346162395E+02  0.00000000000E+00 0. -1.
         21    1    1    2  503  501  0.11676205425E+02 -0.30153613138E+02  0.16182587989E+02  0.36158682393E+02  0.00000000000E+00 0. -1.
         -2    1    1    2    0  502 -0.13711038426E+02 -0.14959366714E+02 -0.74844707122E+02  0.77546794978E+02  0.00000000000E+00 0.  1.
<scales pt_clust_5="13000.00000" pt_clust_6="13000.00000" pt_clust_7="13000.00000" pt_clust_8="13000.00000" pt_clust_9="33.09372" pt_clust_10="20.29225"></scales>
<clustering>
<clus scale="   20.292">  2 10  1 -1</clus>
<clus scale="   33.094">  2  9  1 -1</clus>
<clus scale="   80.062">  5  6 -1 -1</clus>
<clus scale="   84.368">  7  8 -1 -1</clus>
<clus scale="  177.657">  2  5  1 -1</clus>
<clus scale="   20.292">  2  5  1 -1</clus>
</clustering>
</event>
<event>
10    4  0.5389768E-005  0.9985403E+02  0.7546771E-02  0.1286531E+00
         21   -1    0    0  503  502  0.00000000000E+00  0.00000000000E+00  0.18425360475E+03  0.18425360475E+03  0.00000000000E+00 0.  1.
         -3   -1    0    0    0  501 -0.00000000000E+00 -0.00000000000E+00 -0.42733183228E+03  0.42733183228E+03  0.00000000000E+00 0.  1.
         23    2    1    2    0    0 -0.16114503770E+02 -0.14756946894E+02 -0.27031837543E+03  0.28681333643E+03  0.93340351132E+02 0.  0.
         24    2    1    2    0    0  0.21842222109E+02  0.30768660583E+02 -0.26658622786E+02  0.94038848745E+02  0.81907446327E+02 0.  0.
        -11    1    4    4    0    0  0.28128731310E+02 -0.16546330282E+02  0.96908589087E+01  0.34042904066E+02  0.00000000000E+00 0.  1.
         12    1    4    4    0    0 -0.62865092004E+01  0.47314990865E+02 -0.36349481695E+02  0.59995944679E+02  0.00000000000E+00 0. -1.
        -11    1    3    3    0    0  0.29750996520E+02  0.84079328321E+01 -0.38541710270E+02  0.49409296281E+02  0.00000000000E+00 0. -1.
         11    1    3    3    0    0 -0.45865500289E+02 -0.23164879727E+02 -0.23177666516E+03  0.23740404015E+03  0.00000000000E+00 0.  1.
         21    1    1    2  503  501  0.29780860512E+02 -0.30477522195E+02 -0.80440213306E+02  0.91029703552E+02  0.00000000000E+00 0.  1.
         -4    1    1    2    0  502 -0.35508578852E+02  0.14465808507E+02  0.13433898398E+03  0.13970354829E+03  0.00000000000E+00 0.  1.
<scales pt_clust_5="13000.00000" pt_clust_6="13000.00000" pt_clust_7="13000.00000" pt_clust_8="13000.00000" pt_clust_9="38.70815" pt_clust_10="38.34213"></scales>
<clustering>
<clus scale="   38.342">  1 10  2 -1</clus>
<clus scale="   38.708">  2  9  1 -1</clus>
<clus scale="   81.907">  5  6 -1 -1</clus>
<clus scale="   89.259">  1  5  2 -1</clus>
<clus scale="   93.340">  7  8 -1 -1</clus>
<clus scale="   38.342">  1  5  2 -1</clus>
</clustering>
</event>
<event>
10    4  0.5389768E-005  0.1095899E+03  0.7546771E-02  0.1265362E+00
         21   -1    0    0  503  502  0.00000000000E+00  0.00000000000E+00  0.16557250117E+03  0.16557250117E+03  0.00000000000E+00 0.  1.
         -3   -1    0    0    0  501 -0.00000000000E+00 -0.00000000000E+00 -0.28172129729E+03  0.28172129729E+03  0.00000000000E+00 0.  1.
         23    2    1    2    0    0 -0.61697997998E+02  0.90949393557E+01 -0.14613698500E+03  0.18285789917E+03  0.90507635178E+02 0.  0.
         24    2    1    2    0    0  0.43882633830E+02 -0.59492722672E+02 -0.71462012691E+02  0.13043105805E+03  0.80251928592E+02 0.  0.
        -11    1    4    4    0    0  0.17196475528E+02  0.18597672710E+02 -0.88079395531E+01  0.26817382422E+02  0.00000000000E+00 0.  1.
         12    1    4    4    0    0  0.26686158302E+02 -0.78090395382E+02 -0.62654073138E+02  0.10361367563E+03  0.00000000000E+00 0. -1.
        -13    1    3    3    0    0  0.68963077826E+01  0.35657708049E+02 -0.50559762620E+02  0.62252074668E+02  0.00000000000E+00 0.  1.
         13    1    3    3    0    0 -0.68594305781E+02 -0.26562768693E+02 -0.95577222378E+02  0.12060582450E+03  0.00000000000E+00 0. -1.
         21    1    1    2  503  501  0.13647874741E+02  0.16250218771E+02 -0.52796089708E+01  0.21867975808E+02  0.00000000000E+00 0. -1.
         -4    1    1    2    0  502  0.41674894273E+01  0.34147564546E+02  0.10672981054E+03  0.11213686543E+03  0.00000000000E+00 0.  1.
<scales pt_clust_5="13000.00000" pt_clust_6="13000.00000" pt_clust_7="13000.00000" pt_clust_8="13000.00000" pt_clust_9="21.22108" pt_clust_10="47.46361"></scales>
<clustering>
<clus scale="   21.221">  1  9  2 -1</clus>
<clus scale="   47.464">  1 10  2 -1</clus>
<clus scale="   80.252">  5  6 -1 -1</clus>
<clus scale="   90.508">  7  8 -1 -1</clus>
<clus scale="  101.285">  1  5  2 -1</clus>
<clus scale="   21.221">  1  5  2 -1</clus>
</clustering>
</event>
<event>
10    4  0.5389768E-005  0.1719315E+03  0.7546771E-02  0.1192201E+00
         21   -1    0    0  503  502  0.00000000000E+00  0.00000000000E+00  0.56800043591E+03  0.56800043591E+03  0.00000000000E+00 0.  1.
         -3   -1    0    0    0  501 -0.00000000000E+00 -0.00000000000E+00 -0.37866963304E+03  0.37866963304E+03  0.00000000000E+00 0.  1.
         23    2    1    2    0    0 -0.40927095019E+02  0.75140240403E+02  0.30394570986E+03  0.32683107925E+03  0.84347359124E+02 0.  0.
         24    2    1    2    0    0 -0.16029134245E+03  0.25744313578E+01  0.28282645150E+02  0.18120471407E+03  0.79594586632E+02 0.  0.
        -13    1    4    4    0    0 -0.15415839850E+03  0.11150775111E+02  0.38667123072E+01  0.15460951807E+03  0.00000000000E+00 0.  1.
         14    1    4    4    0    0 -0.61329439566E+01 -0.85763437532E+01  0.24415932842E+02  0.26595196001E+02  0.00000000000E+00 0. -1.
        -11    1    3    3    0    0 -0.21263125339E+02  0.87855568872E+02  0.18873244996E+03  0.20926217802E+03  0.00000000000E+00 0.  1.
         11    1    3    3    0    0 -0.19663969681E+02 -0.12715328469E+02  0.11521325989E+03  0.11756890123E+03  0.00000000000E+00 0. -1.
         21    1    1    2  503  501  0.76018627385E+02  0.22914757164E+02 -0.23873295653E+03  0.25158963083E+03  0.00000000000E+00 0.  1.
         -4    1    1    2    0  502  0.12519981009E+03 -0.10062942892E+03  0.95835404394E+02  0.18704464480E+03  0.00000000000E+00 0.  1.
<scales pt_clust_5="13000.00000" pt_clust_6="13000.00000" pt_clust_7="13000.00000" pt_clust_8="13000.00000" pt_clust_9="79.39722" pt_clust_10="152.39795"></scales>
<clustering>
<clus scale="   79.397">  2  9  1 -1</clus>
<clus scale="   79.595">  5  6 -1 -1</clus>
<clus scale="   84.347">  7  8 -1 -1</clus>
<clus scale="  119.347">  2  7  1 -1</clus>
<clus scale="  152.398">  1 10  2 -1</clus>
<clus scale="  152.398">  1  5  2 -1</clus>
</clustering>
</event>
<event>
10    4  0.5389768E-005  0.2637641E+03  0.7546771E-02  0.1144809E+00
          2   -1    0    0  503    0 -0.00000000000E+00  0.00000000000E+00  0.13110227861E+04  0.13110227861E+04  0.00000000000E+00 0. -1.
         21   -1    0    0  501  502  0.00000000000E+00 -0.00000000000E+00 -0.23023204547E+03  0.23023204547E+03  0.00000000000E+00 0.  1.
         23    2    1    2    0    0 -0.98038792176E+02  0.24367215422E+03  0.85213641180E+03  0.89633517181E+03  0.91063452527E+02 0.  0.
         24    2    1    2    0    0 -0.43651320063E+02 -0.48080602163E+02 -0.21667066601E+02  0.10711701176E+03  0.82385741392E+02 0.  0.
        -13    1    4    4    0    0 -0.25248197042E+02  0.43835619156E+01 -0.40918131533E+02  0.48280229464E+02  0.00000000000E+00 0.  1.
         14    1    4    4    0    0 -0.18403123022E+02 -0.52464164079E+02  0.19251064932E+02  0.58836782292E+02  0.00000000000E+00 0. -1.
        -11    1    3    3    0    0 -0.45880614609E+01  0.13323055921E+03  0.41252407483E+03  0.43352917380E+03  0.00000000000E+00 0.  1.
         11    1    3    3    0    0 -0.93450730715E+02  0.11044159501E+03  0.43961233697E+03  0.46280599801E+03  0.00000000000E+00 0. -1.
         21    1    1    2  503  502  0.10852162560E+03 -0.19847086748E+03  0.35889867078E+03  0.42423564719E+03  0.00000000000E+00 0.  1.
          1    1    1    2  501    0  0.33168486638E+02  0.28793154153E+01 -0.10857727533E+03  0.11356700084E+03  0.00000000000E+00 0. -1.
<scales pt_clust_5="13000.00000" pt_clust_6="13000.00000" pt_clust_7="13000.00000" pt_clust_8="13000.00000" pt_clust_9="247.54580" pt_clust_10="33.29323"></scales>
<clustering>
<clus scale="   33.293">  2 10  1 -1</clus>
<clus scale="   82.386">  5  6 -1 -1</clus>
<clus scale="   91.063">  7  8 -1 -1</clus>
<clus scale="   98.050">  2  5  1 -1</clus>
<clus scale="  247.546">  2  9  1 -1</clus>
<clus scale="   33.293">  2  5  1 -1</clus>
</clustering>
</event>
<event>
10    4  0.5389768E-005  0.1456080E+03  0.7546771E-02  0.1207270E+00
         21   -1    0    0  501  502  0.00000000000E+00  0.00000000000E+00  0.63231474885E+02  0.63231474885E+02  0.00000000000E+00 0. -1.
          2   -1    0    0  503    0 -0.00000000000E+00 -0.00000000000E+00 -0.64827068243E+03  0.64827068243E+03  0.00000000000E+00 0. -1.
         24    2    1    2    0    0 -0.54550613487E+02 -0.89243420625E+02 -0.25592698898E+03  0.28821160970E+03  0.81407313689E+02 0.  0.
         23    2    1    2    0    0  0.98529066876E+02  0.90915817219E+02 -0.26764620937E+03  0.31205956668E+03  0.88164714752E+02 0.  0.
        -13    1    3    3    0    0 -0.51817524623E+02 -0.45162754647E+02 -0.73992375841E+02  0.10099307871E+03  0.00000000000E+00 0.  1.
         14    1    3    3    0    0 -0.27330888641E+01 -0.44080665978E+02 -0.18193461314E+03  0.18721853099E+03  0.00000000000E+00 0. -1.
        -11    1    4    4    0    0  0.56456144970E+02  0.98282475498E+02 -0.22370231196E+03  0.25077772164E+03  0.00000000000E+00 0. -1.
         11    1    4    4    0    0  0.42072921906E+02 -0.73666582788E+01 -0.43943897402E+02  0.61281845034E+02  0.00000000000E+00 0.  1.
         21    1    1    2  503  502 -0.16467701104E+02  0.35994782789E+02 -0.48921697405E+02  0.62929659499E+02  0.00000000000E+00 0. -1.
          1    1    1    2  501    0 -0.27510752285E+02 -0.37667179383E+02 -0.12544311794E+02  0.48301321435E+02  0.00000000000E+00 0. -1.
<scales pt_clust_5="13000.00000" pt_clust_6="13000.00000" pt_clust_7="13000.00000" pt_clust_8="13000.00000" pt_clust_9="39.58295" pt_clust_10="41.95183"></scales>
<clustering>
<clus scale="   39.583">  1  9  2 -1</clus>
<clus scale="   41.952">  1 10  2 -1</clus>
<clus scale="   81.407">  5  6 -1 -1</clus>
<clus scale="   88.165">  7  8 -1 -1</clus>
<clus scale="  141.619">  2  5  1 -1</clus>
<clus scale="   39.583">  1  5  2 -1</clus>
</clustering>
</event>
<event>
10    4  0.5389768E-005  0.1351079E+03  0.7546771E-02  0.1220429E+00
          2   -1    0    0  503    0 -0.00000000000E+00  0.00000000000E+00  0.44082811227E+03  0.44082811227E+03  0.00000000000E+00 0. -1.
         21   -1    0    0  501  502  0.00000000000E+00 -0.00000000000E+00 -0.13081256518E+03  0.13081256518E+03  0.00000000000E+00 0. -1.
         23    2    1    2    0    0 -0.90679846682E+02  0.13985273427E+02  0.31323336274E+03  0.33620719886E+03  0.80633234862E+02 0.  0.
         24    2    1    2    0    0  0.98428998454E+02  0.50744691921E+02 -0.22002667907E+02  0.13774591555E+03  0.78908354183E+02 0.  0.
        -11    1    4    4    0    0  0.29167069128E+02 -0.30353068649E+00 -0.40331475604E+02  0.49773868413E+02  0.00000000000E+00 0.  1.
         12    1    4    4    0    0  0.69261929326E+02  0.51048222607E+02  0.18328807697E+02  0.87972047134E+02  0.00000000000E+00 0. -1.
        -11    1    3    3    0    0 -0.52129778247E+02  0.44241565231E+02  0.13455069828E+03  0.15092620807E+03  0.00000000000E+00 0.  1.
         11    1    3    3    0    0 -0.38550068435E+02 -0.30256291804E+02  0.17868266446E+03  0.18528099079E+03  0.00000000000E+00 0. -1.
         21    1    1    2  503  502 -0.22296618132E+02 -0.36315524624E+02  0.40731437976E+02  0.58949186156E+02  0.00000000000E+00 0. -1.
          1    1    1    2  501    0  0.14547466359E+02 -0.28414440723E+02 -0.21946585720E+02  0.38738376888E+02  0.00000000000E+00 0. -1.
<scales pt_clust_5="13000.00000" pt_clust_6="13000.00000" pt_clust_7="13000.00000" pt_clust_8="13000.00000" pt_clust_9="44.18851" pt_clust_10="31.92192"></scales>
<clustering>
<clus scale="   31.922">  2 10  1 -1</clus>
<clus scale="   44.189">  1  9  2 -1</clus>
<clus scale="   78.908">  5  6 -1 -1</clus>
<clus scale="   80.633">  7  8 -1 -1</clus>
<clus scale="  134.086">  2  5  1 -1</clus>
<clus scale="   31.922">  2  5  1 -1</clus>
</clustering>
</event>
<event>
10    4  0.5389768E-005  0.1814940E+03  0.7546771E-02  0.1167607E+00
          2   -1    0    0  503    0 -0.00000000000E+00  0.00000000000E+00  0.30860727494E+03  0.30860727494E+03  0.00000000000E+00 0. -1.
         21   -1    0    0  501  502  0.00000000000E+00 -0.00000000000E+00 -0.28337512747E+03  0.28337512747E+03  0.00000000000E+00 0.  1.
         24    2    1    2    0    0 -0.11203343800E+03 -0.11630722710E+03  0.20532207974E+03  0.27262134635E+03  0.78015253316E+02 0.  0.
         23    2    1    2    0    0  0.14028778589E+03  0.10503531258E+03 -0.15933723481E+03  0.25301620158E+03  0.88970580010E+02 0.  0.
        -11    1    3    3    0    0 -0.13746895272E+02 -0.56352064785E+02  0.10480766967E+03  0.11978806266E+03  0.00000000000E+00 0.  1.
         12    1    3    3    0    0 -0.98286542730E+02 -0.59955162311E+02  0.10051441007E+03  0.15283328368E+03  0.00000000000E+00 0. -1.
        -11    1    4    4    0    0  0.47206840150E+02 -0.74187978663E+01 -0.22072715263E+02  0.52637715355E+02  0.00000000000E+00 0. -1.
         11    1    4    4    0    0  0.93080945740E+02  0.11245411044E+03 -0.13726451955E+03  0.20037848623E+03  0.00000000000E+00 0.  1.
         21    1    1    2  503  502 -0.10697886563E+02  0.23703204473E+02  0.10798094978E+02  0.28158223210E+02  0.00000000000E+00 0. -1.
          1    1    1    2  501    0 -0.17556461324E+02 -0.12431289954E+02 -0.31550792437E+02  0.38186631268E+02  0.00000000000E+00 0. -1.
<scales pt_clust_5="13000.00000" pt_clust_6="13000.00000" pt_clust_7="13000.00000" pt_clust_8="13000.00000" pt_clust_9="25.87252" pt_clust_10="21.51200"></scales>
<clustering>
<clus scale="   21.512">  2 10  1 -1</clus>
<clus scale="   25.873">  1  9  2 -1</clus>
<clus scale="   78.015">  5  6 -1 -1</clus>
<clus scale="   88.971">  7  8 -1 -1</clus>
<clus scale="  176.382">  1  5  2 -1</clus>
<clus scale="   21.512">  2  5  1 -1</clus>
</clustering>
</event>
<event>
10    4  0.5389768E-005  0.1067153E+03  0.7546771E-02  0.1267769E+00
          2   -1    0    0  503    0 -0.00000000000E+00  0.00000000000E+00  0.17222679372E+03  0.17222679372E+03  0.00000000000E+00 0. -1.
         21   -1    0    0  501  502  0.00000000000E+00 -0.00000000000E+00 -0.30554730091E+03  0.30554730091E+03  0.00000000000E+00 0.  1.
         24    2    1    2    0    0 -0.44164831180E+02  0.52713223532E+01  0.31887642989E+02  0.10970069060E+03  0.95074184663E+02 0.  0.
         23    2    1    2    0    0  0.51709583344E+02 -0.10318216238E+02  0.24490890901E+02  0.10949215292E+03  0.92781362451E+02 0.  0.
        -11    1    3    3    0    0 -0.14676235650E+02 -0.36410808299E+02 -0.13369804769E+02  0.41471562948E+02  0.00000000000E+00 0.  1.
         12    1    3    3    0    0 -0.29488595530E+02  0.41682130652E+02  0.45257447758E+02  0.68229127648E+02  0.00000000000E+00 0. -1.
        -13    1    4    4    0    0  0.24965782590E+02 -0.49080593301E+02  0.28908449134E+02  0.62192389972E+02  0.00000000000E+00 0.  1.
         13    1    4    4    0    0  0.26743800754E+02  0.38762377063E+02 -0.44175582323E+01  0.47299762950E+02  0.00000000000E+00 0. -1.
         21    1    1    2  503  502 -0.70261888133E+01 -0.47890498550E+02  0.12150369779E+02  0.49904896217E+02  0.00000000000E+00 0. -1.
          1    1    1    2  501    0 -0.51856335108E+00  0.52937392435E+02 -0.20184941086E+03  0.20867635489E+03  0.00000000000E+00 0. -1.
<scales pt_clust_5="13000.00000" pt_clust_6="13000.00000" pt_clust_7="13000.00000" pt_clust_8="13000.00000" pt_clust_9="48.40317" pt_clust_10="51.78422"></scales>
<clustering>
<clus scale="   48.403">  1  9  2 -1</clus>
<clus scale="   51.784">  2 10  1 -1</clus>
<clus scale="   92.781">  7  8 -1 -1</clus>
<clus scale="   95.074">  5  6 -1 -1</clus>
<clus scale="  104.678">  2  7  1 -1</clus>
<clus scale="   51.784">  2  5  1 -1</clus>
</clustering>
</event>
<event>
10    4  0.5389768E-005  0.9303457E+02  0.7546771E-02  0.1302530E+00
         21   -1    0    0  501  502  0.00000000000E+00  0.00000000000E+00  0.13218040971E+03  0.13218040971E+03  0.00000000000E+00 0. -1.
          2   -1    0    0  503    0 -0.00000000000E+00 -0.00000000000E+00 -0.53138073182E+03  0.53138073182E+03  0.00000000000E+00 0. -1.
         24    2    1    2    0    0 -0.12705465140E+02 -0.38668221799E+02 -0.28877427831E+03  0.30272567200E+03  0.81213228304E+02 0.  0.
         23    2    1    2    0    0  0.33421297875E+02  0.30974990138E+01  0.16883552167E+01  0.98301147247E+02  0.92377959248E+02 0.  0.
        -13    1    3    3    0    0 -0.41889023410E+02 -0.43735369440E+02 -0.17605501991E+03  0.18617959840E+03  0.00000000000E+00 0.  1.
         14    1    3    3    0    0  0.29183558270E+02  0.50671476409E+01 -0.11271925840E+03  0.11654607360E+03  0.00000000000E+00 0. -1.
        -13    1    4    4    0    0 -0.11400518899E+02  0.33505578824E+02  0.20576778482E+02  0.40938972339E+02  0.00000000000E+00 0.  1.
         13    1    4    4    0    0  0.44821816773E+02 -0.30408079810E+02 -0.18888423265E+02  0.57362174907E+02  0.00000000000E+00 0. -1.
         21    1    1    2  503  502  0.92394450755E+01  0.38384383025E+02 -0.18211304484E+03  0.18634347133E+03  0.00000000000E+00 0.  1.
          1    1    1    2  501    0 -0.29955277810E+02 -0.28136602400E+01  0.69998645826E+02  0.76190850961E+02  0.00000000000E+00 0. -1.
<scales pt_clust_5="13000.00000" pt_clust_6="13000.00000" pt_clust_7="13000.00000" pt_clust_8="13000.00000" pt_clust_9="39.14511" pt_clust_10="30.08713"></scales>
<clustering>
<clus scale="   30.087">  1 10  2 -1</clus>
<clus scale="   39.145">  2  9  1 -1</clus>
<clus scale="   81.213">  5  6 -1 -1</clus>
<clus scale="   81.959">  2  5  1 -1</clus>
<clus scale="   92.378">  7  8 -1 -1</clus>
<clus scale="   30.087">  1  5  2 -1</clus>
</clustering>
</event>
<event>
10    4  0.5389768E-005  0.1236083E+03  0.7546771E-02  0.1239961E+00
          2   -1    0    0  503    0 -0.00000000000E+00  0.00000000000E+00  0.10586783134E+03  0.10586783134E+03  0.00000000000E+00 0. -1.
         21   -1    0    0  501  502  0.00000000000E+00 -0.00000000000E+00 -0.33373849909E+03  0.33373849909E+03  0.00000000000E+00 0. -1.
         23    2    1    2    0    0 -0.24965369842E+02  0.89734775628E+02 -0.29647525686E+02  0.13317720691E+03  0.90452158695E+02 0.  0.
         24    2    1    2    0    0  0.23292507417E+02 -0.69696340876E+02 -0.68723937007E+02  0.12928275783E+03  0.81184549767E+02 0.  0.
        -11    1    4    4    0    0  0.30872114898E+02 -0.26323912025E+02 -0.74544447984E+02  0.84869962577E+02  0.00000000000E+00 0.  1.
         12    1    4    4    0    0 -0.75796074811E+01 -0.43372428851E+02  0.58205109777E+01  0.44412795251E+02  0.00000000000E+00 0. -1.
        -11    1    3    3    0    0 -0.23215283084E+02  0.12012362133E+00  0.20062741033E+02  0.30683503322E+02  0.00000000000E+00 0.  1.
         11    1    3    3    0    0 -0.17500867586E+01  0.89614652007E+02 -0.49710266718E+02  0.10249370359E+03  0.00000000000E+00 0. -1.
         21    1    1    2  503  502 -0.28559647592E+02 -0.61723007147E+02 -0.60318135153E+02  0.90904678154E+02  0.00000000000E+00 0. -1.
          1    1    1    2  501    0  0.30232510017E+02  0.41684572395E+02 -0.69181069904E+02  0.86241687545E+02  0.00000000000E+00 0. -1.
<scales pt_clust_5="13000.00000" pt_clust_6="13000.00000" pt_clust_7="13000.00000" pt_clust_8="13000.00000" pt_clust_9="53.16933" pt_clust_10="51.49377"></scales>
<clustering>
<clus scale="   51.494">  2 10  1 -1</clus>
<clus scale="   53.169">  2  9  1 -1</clus>
<clus scale="   81.185">  5  6 -1 -1</clus>
<clus scale="   90.452">  7  8 -1 -1</clus>
<clus scale="  116.997">  2  5  1 -1</clus>
<clus scale="   51.494">  2  5  1 -1</clus>
</clustering>
</event>
<event>
10    4  0.5389768E-005  0.9320840E+02  0.7546771E-02  0.1302638E+00
         21   -1    0    0  501  502  0.00000000000E+00  0.00000000000E+00  0.50377670720E+02  0.50377670720E+02  0.00000000000E+00 0.  1.
          2   -1    0    0  503    0 -0.00000000000E+00 -0.00000000000E+00 -0.63528689609E+03  0.63528689609E+03  0.00000000000E+00 0. -1.
         24    2    1    2    0    0 -0.19177411215E+02 -0.12474948561E+02 -0.42785241920E+03  0.43573594855E+03  0.79276268853E+02 0.  0.
         23    2    1    2    0    0  0.12145626382E+02 -0.36292561425E+02 -0.12369051952E+03  0.15849333484E+03  0.91411849975E+02 0.  0.
        -11    1    3    3    0    0 -0.27769838332E+02 -0.40433524687E+02 -0.19594426374E+03  0.20199056495E+03  0.00000000000E+00 0.  1.
         12    1    3    3    0    0  0.85924271167E+01  0.27958576126E+02 -0.23190815546E+03  0.23374538359E+03  0.00000000000E+00 0. -1.
        -11    1    4    4    0    0  0.12212301452E+02 -0.63897704067E+02 -0.57678619299E+02  0.86941819719E+02  0.00000000000E+00 0.  1.
         11    1    4    4    0    0 -0.66675070101E-01  0.27605142643E+02 -0.66011900221E+02  0.71551515125E+02  0.00000000000E+00 0. -1.
         21    1    1    2  503  502  0.12815124694E+02  0.24390612627E+02 -0.52914339551E+02  0.59657830461E+02  0.00000000000E+00 0. -1.
          1    1    1    2  501    0 -0.57833398598E+01  0.24376897358E+02  0.19548052893E+02  0.31777452960E+02  0.00000000000E+00 0. -1.
<scales pt_clust_5="13000.00000" pt_clust_6="13000.00000" pt_clust_7="13000.00000" pt_clust_8="13000.00000" pt_clust_9="30.21288" pt_clust_10="25.05355"></scales>
<clustering>
<clus scale="   25.054">  1 10  2 -1</clus>
<clus scale="   30.213">  1  9  2 -1</clus>
<clus scale="   79.276">  5  6 -1 -1</clus>
<clus scale="   81.341">  2  5  1 -1</clus>
<clus scale="   91.412">  7  8 -1 -1</clus>
<clus scale="   25.054">  1  5  2 -1</clus>
</clustering>
</event>
<event>
10    4  0.5389768E-005  0.1314443E+03  0.7546771E-02  0.1227716E+00
         21   -1    0    0  501  502  0.00000000000E+00  0.00000000000E+00  0.53440603757E+03  0.53440603757E+03  0.00000000000E+00 0. -1.
          2   -1    0    0  503    0 -0.00000000000E+00 -0.00000000000E+00 -0.31661925595E+03  0.31661925595E+03  0.00000000000E+00 0. -1.
         24    2    1    2    0    0  0.49886999272E+02  0.25178575587E+02  0.18708322666E+02  0.98895229938E+02  0.79420348795E+02 0.  0.
         23    2    1    2    0    0 -0.19512036957E+03 -0.41876609027E+02  0.41696590649E+03  0.47077071535E+03  0.89100450351E+02 0.  0.
        -13    1    3    3    0    0  0.33843354672E+02  0.14287136786E+02  0.50022953647E+02  0.62062797428E+02  0.00000000000E+00 0.  1.
         14    1    3    3    0    0  0.16043644599E+02  0.10891438801E+02 -0.31314630981E+02  0.36832432510E+02  0.00000000000E+00 0. -1.
        -13    1    4    4    0    0 -0.12804652293E+03 -0.36045833118E+02  0.17624030435E+03  0.22080728927E+03  0.00000000000E+00 0. -1.
         13    1    4    4    0    0 -0.67073846644E+02 -0.58307759088E+01  0.24072560214E+03  0.24996342608E+03  0.00000000000E+00 0.  1.
         21    1    1    2  503  502  0.85642674934E+02 -0.27905865264E+02 -0.17132532746E+03  0.19356077319E+03  0.00000000000E+00 0. -1.
          1    1    1    2  501    0  0.59590695365E+02  0.44603898703E+02 -0.46562120078E+02  0.87798575044E+02  0.00000000000E+00 0. -1.
<scales pt_clust_5="13000.00000" pt_clust_6="13000.00000" pt_clust_7="13000.00000" pt_clust_8="13000.00000" pt_clust_9="91.01098" pt_clust_10="74.43497"></scales>
<clustering>
<clus scale="   74.435">  1 10  2 -1</clus>
<clus scale="   79.420">  5  6 -1 -1</clus>
<clus scale="   89.100">  7  8 -1 -1</clus>
<clus scale="   91.011">  2  9  1 -1</clus>
<clus scale="  125.085">  2  5  1 -1</clus>
<clus scale="   74.435">  1  5  2 -1</clus>
</clustering>
</event>
<event>
10    4  0.5389768E-005  0.1423060E+03  0.7546771E-02  0.1210413E+00
         21   -1    0    0  503  502  0.00000000000E+00  0.00000000000E+00  0.21062783688E+03  0.21062783688E+03  0.00000000000E+00 0. -1.
         -3   -1    0    0    0  501 -0.00000000000E+00 -0.00000000000E+00 -0.41587755367E+03  0.41587755367E+03  0.00000000000E+00 0.  1.
         23    2    1    2    0    0 -0.10617907687E+03 -0.16343324189E+02 -0.10099837816E+03  0.17328013455E+03  0.91017756660E+02 0.  0.
         24    2    1    2    0    0  0.76363807334E+02  0.81327382469E+01  0.13484187988E+03  0.17953293212E+03  0.90289360652E+02 0.  0.
        -11    1    4    4    0    0  0.50970775493E+02 -0.97320492209E+01  0.12585721691E+02  0.53396002911E+02  0.00000000000E+00 0.  1.
         12    1    4    4    0    0  0.25393031841E+02  0.17864787468E+02  0.12225615818E+03  0.12613692921E+03  0.00000000000E+00 0. -1.
        -13    1    3    3    0    0 -0.11463877486E+02 -0.26763827788E+02 -0.65351401368E+02  0.71543893000E+02  0.00000000000E+00 0.  1.
         13    1    3    3    0    0 -0.94715199386E+02  0.10420503599E+02 -0.35646976791E+02  0.10173624155E+03  0.00000000000E+00 0. -1.
         21    1    1    2  503  501 -0.21165917243E+02 -0.47633408723E+02 -0.61158105365E+02  0.80357025400E+02  0.00000000000E+00 0. -1.
         -4    1    1    2    0  502  0.50981186781E+02  0.55843994665E+02 -0.17793511315E+03  0.19333529848E+03  0.00000000000E+00 0.  1.
<scales pt_clust_5="13000.00000" pt_clust_6="13000.00000" pt_clust_7="13000.00000" pt_clust_8="13000.00000" pt_clust_9="52.12425" pt_clust_10="49.81246"></scales>
<clustering>
<clus scale="   52.124">  2  9  1 -1</clus>
<clus scale="   49.812">  1 10  2 -1</clus>
<clus scale="   90.289">  5  6 -1 -1</clus>
<clus scale="   91.018">  7  8 -1 -1</clus>
<clus scale="  141.841">  1  5  2 -1</clus>
<clus scale="   49.812">  1  5  2 -1</clus>
</clustering>
</event>
<event>
10    4  0.5389768E-005  0.1004151E+03  0.7546771E-02  0.1283978E+00
          2   -1    0    0  503    0 -0.00000000000E+00  0.00000000000E+00  0.65042328298E+03  0.65042328298E+03  0.00000000000E+00 0. -1.
         21   -1    0    0  501  502  0.00000000000E+00 -0.00000000000E+00 -0.40796311732E+02  0.40796311732E+02  0.00000000000E+00 0. -1.
         23    2    1    2    0    0  0.69103795678E+02  0.41293712200E+02  0.22108742503E+03  0.25199333171E+03  0.90224633421E+02 0.  0.
         24    2    1    2    0    0 -0.13370821346E+02  0.15865088086E+02  0.71924028609E+02  0.11019898766E+03  0.80871942642E+02 0.  0.
        -13    1    4    4    0    0 -0.25532514581E+02  0.43055133042E+02  0.28683274563E+02  0.57692148701E+02  0.00000000000E+00 0.  1.
         14    1    4    4    0    0  0.12161693235E+02 -0.27190044956E+02  0.43240754046E+02  0.52506838960E+02  0.00000000000E+00 0. -1.
        -11    1    3    3    0    0  0.90260063785E+02  0.41216559357E+02  0.19064390934E+03  0.21492041329E+03  0.00000000000E+00 0.  1.
         11    1    3    3    0    0 -0.21156268107E+02  0.77152842194E-01  0.30443515692E+02  0.37072918423E+02  0.00000000000E+00 0. -1.
         21    1    1    2  503  502 -0.17444057993E+02 -0.19174259946E+02  0.18473036022E+03  0.18654021923E+03  0.00000000000E+00 0. -1.
          1    1    1    2  501    0 -0.38288916340E+02 -0.37984540340E+02  0.13188515739E+03  0.14248705611E+03  0.00000000000E+00 0. -1.
<scales pt_clust_5="13000.00000" pt_clust_6="13000.00000" pt_clust_7="13000.00000" pt_clust_8="13000.00000" pt_clust_9="25.92195" pt_clust_10="61.57624"></scales>
<clustering>
<clus scale="   25.922">  1  9  2 -1</clus>
<clus scale="   61.576">  2 10  1 -1</clus>
<clus scale="   80.872">  5  6 -1 -1</clus>
<clus scale="   90.225">  7  8 -1 -1</clus>
<clus scale="   92.103">  2  5  1 -1</clus>
<clus scale="   61.576">  2  5  1 -1</clus>
</clustering>
</event>
<event>
10    4  0.5389768E-005  0.2569842E+03  0.7546771E-02  0.1109641E+00
         -3   -1    0    0    0  501 -0.00000000000E+00  0.00000000000E+00  0.60128241580E+03  0.60128241580E+03  0.00000000000E+00 0.  1.
         21   -1    0    0  503  502  0.00000000000E+00 -0.00000000000E+00 -0.78021613007E+03  0.78021613007E+03  0.00000000000E+00 0.  1.
         23    2    1    2    0    0 -0.25329747523E+03  0.89366502293E+02  0.34545490093E+03  0.44726448656E+03  0.92522698113E+02 0.  0.
         24    2    1    2    0    0  0.15153143798E+03 -0.88759595255E+02 -0.49947218718E+03  0.53539428119E+03  0.79589748830E+02 0.  0.
        -11    1    4    4    0    0  0.35883488473E+02  0.11922004684E+02 -0.12946828254E+03  0.13487696292E+03  0.00000000000E+00 0.  1.
         12    1    4    4    0    0  0.11564794951E+03 -0.10068159994E+03 -0.37000390464E+03  0.40051731828E+03  0.00000000000E+00 0. -1.
        -13    1    3    3    0    0 -0.20551734687E+03  0.10097962197E+03  0.31496923412E+03  0.38940965880E+03  0.00000000000E+00 0.  1.
         13    1    3    3    0    0 -0.47780128361E+02 -0.11613119674E+02  0.30485666808E+02  0.57854827763E+02  0.00000000000E+00 0. -1.
         21    1    1    2  503  501  0.53602799209E+02  0.53621606366E+02  0.17255102321E+03  0.18847385060E+03  0.00000000000E+00 0.  1.
         -4    1    1    2    0  502  0.48163238045E+02 -0.54228513404E+02 -0.19746745122E+03  0.21036592751E+03  0.00000000000E+00 0.  1.
<scales pt_clust_5="13000.00000" pt_clust_6="13000.00000" pt_clust_7="13000.00000" pt_clust_8="13000.00000" pt_clust_9="75.76628" pt_clust_10="72.52882"></scales>
<clustering>
<clus scale="   72.529">  2 10  1 -1</clus>
<clus scale="   75.766">  1  9  2 -1</clus>
<clus scale="   79.590">  5  6 -1 -1</clus>
<clus scale="   92.523">  7  8 -1 -1</clus>
<clus scale="  252.616">  2  5  1 -1</clus>
<clus scale="   72.529">  2  5  1 -1</clus>
</clustering>
</event>
<event>
10    4  0.5389768E-005  0.1023263E+03  0.7546771E-02  0.1281605E+00
         -3   -1    0    0    0  501 -0.00000000000E+00  0.00000000000E+00  0.13251392530E+03  0.13251392530E+03  0.00000000000E+00 0.  1.
         21   -1    0    0  503  502  0.00000000000E+00 -0.00000000000E+00 -0.61341336145E+03  0.61341336145E+03  0.00000000000E+00 0. -1.
         23    2    1    2    0    0 -0.78513144883E+02  0.37235094127E+02  0.14421942167E+02  0.12661998439E+03  0.90960771090E+02 0.  0.
         24    2    1    2    0    0  0.33391913293E+02 -0.27802724961E+02 -0.44158022620E+03  0.45052507259E+03  0.78049557839E+02 0.  0.
        -13    1    4    4    0    0  0.55945469315E+00 -0.32577887605E+02 -0.67250692102E+02  0.74728089355E+02  0.00000000000E+00 0.  1.
         14    1    4    4    0    0  0.32832458600E+02  0.47751626445E+01 -0.37432953409E+03  0.37579698324E+03  0.00000000000E+00 0. -1.
        -13    1    3    3    0    0 -0.59871982538E+02 -0.96848114577E+00 -0.28407248063E+02  0.66276421081E+02  0.00000000000E+00 0.  1.
         13    1    3    3    0    0 -0.18641162345E+02  0.38203575272E+02  0.42829190230E+02  0.60343563310E+02  0.00000000000E+00 0. -1.
         21    1    1    2  503  501  0.65366597011E+02  0.74538776480E+01  0.36175750008E+02  0.75080205017E+02  0.00000000000E+00 0.  1.
         -4    1    1    2    0  502 -0.20245365421E+02 -0.16886246814E+02 -0.89916902133E+02  0.93702024747E+02  0.00000000000E+00 0.  1.
<scales pt_clust_5="13000.00000" pt_clust_6="13000.00000" pt_clust_7="13000.00000" pt_clust_8="13000.00000" pt_clust_9="64.97096" pt_clust_10="26.36323"></scales>
<clustering>
<clus scale="   26.363">  2 10  1 -1</clus>
<clus scale="   64.971">  1  9  2 -1</clus>
<clus scale="   78.050">  5  6 -1 -1</clus>
<clus scale="   90.961">  7  8 -1 -1</clus>
<clus scale="   91.041">  2  5  1 -1</clus>
<clus scale="   26.363">  2  5  1 -1</clus>
</clustering>
</event>
<event>
10    4  0.5389768E-005  0.2041956E+03  0.7546771E-02  0.1153969E+00
          2   -1    0    0  503    0 -0.00000000000E+00  0.00000000000E+00  0.18111149835E+04  0.18111149835E+04  0.00000000000E+00 0. -1.
         21   -1    0    0  501  502  0.00000000000E+00 -0.00000000000E+00 -0.58362610845E+02  0.58362610845E+02  0.00000000000E+00 0.  1.
         24    2    1    2    0    0 -0.87619643326E+02  0.11068191022E+03  0.52716196061E+03  0.55065304628E+03  0.73425864048E+02 0.  0.
         23    2    1    2    0    0 -0.11068502401E+03 -0.11099591924E+03  0.64347398005E+03  0.66836944708E+03  0.89931563765E+02 0.  0.
        -13    1    3    3    0    0 -0.97574847633E+02  0.10973107262E+03  0.51070618785E+03  0.53139680983E+03  0.00000000000E+00 0.  1.
         14    1    3    3    0    0  0.99552043070E+01  0.95083760310E+00  0.16455772764E+02  0.19256236449E+02  0.00000000000E+00 0. -1.
        -11    1    4    4    0    0 -0.64854791106E+02 -0.32329616122E+02  0.43338579184E+03  0.43940254047E+03  0.00000000000E+00 0.  1.
         11    1    4    4    0    0 -0.45830232906E+02 -0.78666303123E+02  0.21008818821E+03  0.22896690661E+03  0.00000000000E+00 0. -1.
         21    1    1    2  503  502 -0.25000300655E+02  0.25916510459E+02  0.22940235820E+03  0.23221137460E+03  0.00000000000E+00 0.  1.
          1    1    1    2  501    0  0.22330496799E+03 -0.25602501438E+02  0.35271407382E+03  0.41824372641E+03  0.00000000000E+00 0. -1.
<scales pt_clust_5="13000.00000" pt_clust_6="13000.00000" pt_clust_7="13000.00000" pt_clust_8="13000.00000" pt_clust_9="36.00945" pt_clust_10="183.32533"></scales>
<clustering>
<clus scale="   36.009">  1  9  2 -1</clus>
<clus scale="   73.426">  5  6 -1 -1</clus>
<clus scale="   89.932">  7  8 -1 -1</clus>
<clus scale="  170.059">  1  5  2 -1</clus>
<clus scale="  183.325">  2 10  1 -1</clus>
<clus scale="  183.325">  2  5  1 -1</clus>
</clustering>
</event>
<event>
10    4  0.5389768E-005  0.1754081E+03  0.7546771E-02  0.1176091E+00
          2   -1    0    0  503    0 -0.00000000000E+00  0.00000000000E+00  0.16673571377E+03  0.16673571377E+03  0.00000000000E+00 0. -1.
         21   -1    0    0  501  502  0.00000000000E+00 -0.00000000000E+00 -0.28745080830E+03  0.28745080830E+03  0.00000000000E+00 0.  1.
         24    2    1    2    0    0  0.17010029778E+02 -0.12370268993E+03 -0.49013217421E+02  0.15902687109E+03  0.85414013138E+02 0.  0.
         23    2    1    2    0    0  0.24621211410E+02  0.15418718444E+03 -0.80180195911E+02  0.20722790440E+03  0.11015738128E+03 0.  0.
        -13    1    3    3    0    0 -0.27793289185E+02 -0.19167538672E+02  0.31396426851E+01  0.33907503869E+02  0.00000000000E+00 0.  1.
         14    1    3    3    0    0  0.44803318963E+02 -0.10453515125E+03 -0.52152860106E+02  0.12511936723E+03  0.00000000000E+00 0. -1.
        -13    1    4    4    0    0  0.57602056982E+02  0.49281064141E+02 -0.92499920625E+01  0.76368727923E+02  0.00000000000E+00 0. -1.
         13    1    4    4    0    0 -0.32980845572E+02  0.10490612029E+03 -0.70930203848E+02  0.13085917648E+03  0.00000000000E+00 0.  1.
         21    1    1    2  503  502 -0.43137345435E+01 -0.36407678018E+02 -0.18922418768E+02  0.41257547872E+02  0.00000000000E+00 0. -1.
          1    1    1    2  501    0 -0.37317506645E+02  0.59231835085E+01  0.27400737569E+02  0.46674198701E+02  0.00000000000E+00 0. -1.
<scales pt_clust_5="13000.00000" pt_clust_6="13000.00000" pt_clust_7="13000.00000" pt_clust_8="13000.00000" pt_clust_9="36.66234" pt_clust_10="37.75543"></scales>
<clustering>
<clus scale="   36.662">  2  9  1 -1</clus>
<clus scale="   37.755">  2 10  1 -1</clus>
<clus scale="   85.414">  5  6 -1 -1</clus>
<clus scale="  110.157">  7  8 -1 -1</clus>
<clus scale="  161.025">  1  5  2 -1</clus>
<clus scale="   36.662">  2  5  1 -1</clus>
</clustering>
</event>
<event>
10    4  0.5389768E-005  0.9684252E+02  0.7546771E-02  0.1293557E+00
         21   -1    0    0  501  502  0.00000000000E+00  0.00000000000E+00  0.19188848702E+03  0.19188848702E+03  0.00000000000E+00 0.  1.
          2   -1    0    0  503    0 -0.00000000000E+00 -0.00000000000E+00 -0.13332755729E+03  0.13332755729E+03  0.00000000000E+00 0. -1.
         23    2    1    2    0    0 -0.19931248086E+02  0.51285504352E+02 -0.45435708525E+02  0.11603216613E+03  0.91496460913E+02 0.  0.
         24    2    1    2    0    0  0.34366761620E+02  0.23348979682E+02  0.56680101788E+02  0.10625819630E+03  0.79698940932E+02 0.  0.
        -13    1    4    4    0    0  0.35083414426E+02  0.37604209784E+02  0.69915087369E+02  0.86793098821E+02  0.00000000000E+00 0.  1.
         14    1    4    4    0    0 -0.71665280645E+00 -0.14255230101E+02 -0.13234985581E+02  0.19465097478E+02  0.00000000000E+00 0. -1.
        -11    1    3    3    0    0 -0.40467389750E+02  0.68055334673E+02 -0.26667192020E+02  0.83548054082E+02  0.00000000000E+00 0. -1.
         11    1    3    3    0    0  0.20536141664E+02 -0.16769830321E+02 -0.18768516505E+02  0.32484112043E+02  0.00000000000E+00 0.  1.
         21    1    1    2  503  502 -0.16781251213E+02 -0.53813591625E+02  0.61119386746E+01  0.56699813318E+02  0.00000000000E+00 0. -1.
          1    1    1    2  501    0  0.23457376794E+01 -0.20820892409E+02  0.41204597789E+02  0.46225868569E+02  0.00000000000E+00 0. -1.
<scales pt_clust_5="13000.00000" pt_clust_6="13000.00000" pt_clust_7="13000.00000" pt_clust_8="13000.00000" pt_clust_9="60.46085" pt_clust_10="20.95261"></scales>
<clustering>
<clus scale="   20.953">  1 10  2 -1</clus>
<clus scale="   60.461">  2  9  1 -1</clus>
<clus scale="   79.699">  5  6 -1 -1</clus>
<clus scale="   85.783">  1  5  2 -1</clus>
<clus scale="   91.496">  7  8 -1 -1</clus>
<clus scale="   20.953">  1  5  2 -1</clus>
</clustering>
</event>
<event>
10    4  0.5389768E-005  0.1182109E+03  0.7546771E-02  0.1255100E+00
         21   -1    0    0  503  502  0.00000000000E+00  0.00000000000E+00  0.11112036743E+03  0.11112036743E+03  0.00000000000E+00 0.  1.
         -3   -1    0    0    0  501 -0.00000000000E+00 -0.00000000000E+00 -0.29150331802E+03  0.29150331802E+03  0.00000000000E+00 0.  1.
         24    2    1    2    0    0  0.58128537993E+02 -0.29701967223E+02 -0.69139822450E+02  0.12500380140E+03  0.81144941486E+02 0.  0.
         23    2    1    2    0    0  0.51728980590E+02  0.70881421831E+02 -0.39320434837E+02  0.11768375474E+03  0.67847668639E+02 0.  0.
        -13    1    3    3    0    0  0.12662934419E+02 -0.45286804602E+02 -0.59746142821E+02  0.76031875954E+02  0.00000000000E+00 0.  1.
         14    1    3    3    0    0  0.45465603574E+02  0.15584837378E+02 -0.93936796291E+01  0.48971925441E+02  0.00000000000E+00 0. -1.
        -13    1    4    4    0    0  0.66601205909E+01  0.20490167580E+02 -0.44947570560E+02  0.49844641367E+02  0.00000000000E+00 0. -1.
         13    1    4    4    0    0  0.45068859999E+02  0.50391254251E+02  0.56271357225E+01  0.67839113371E+02  0.00000000000E+00 0.  1.
         21    1    1    2  503  501 -0.85864954355E+02 -0.65992357393E+02 -0.56180668967E+02  0.12200020158E+03  0.00000000000E+00 0.  1.
         -4    1    1    2    0  502 -0.23992564228E+02  0.24812902785E+02 -0.15742024331E+02  0.37935927732E+02  0.00000000000E+00 0.  1.
<scales pt_clust_5="13000.00000" pt_clust_6="13000.00000" pt_clust_7="13000.00000" pt_clust_8="13000.00000" pt_clust_9="96.80143" pt_clust_10="34.51555"></scales>
<clustering>
<clus scale="   34.516">  1 10  2 -1</clus>
<clus scale="   67.848">  7  8 -1 -1</clus>
<clus scale="   81.145">  5  6 -1 -1</clus>
<clus scale="   98.732">  2  5  1 -1</clus>
<clus scale="   96.801">  2  9  1 -1</clus>
<clus scale="   34.516">  1  5  2 -1</clus>
</clustering>
</event>
<event>
10    4  0.5389768E-005  0.1018334E+03  0.7546771E-02  0.1286243E+00
         21   -1    0    0  501  502  0.00000000000E+00  0.00000000000E+00  0.70769109035E+02  0.70769109035E+02  0.00000000000E+00 0. -1.
          2   -1    0    0  503    0 -0.00000000000E+00 -0.00000000000E+00 -0.34400360707E+03  0.34400360707E+03  0.00000000000E+00 0. -1.
         24    2    1    2    0    0 -0.64688913558E+01  0.10737124000E+02 -0.15641803789E+03  0.17492131675E+03  0.77289922281E+02 0.  0.
         23    2    1    2    0    0  0.46955278899E+02 -0.11259331664E+02 -0.40308251351E+02  0.11463400413E+03  0.95836470144E+02 0.  0.
        -11    1    3    3    0    0 -0.31874037000E+02 -0.85117443268E+01 -0.30150434076E+02  0.44692870809E+02  0.00000000000E+00 0.  1.
         12    1    3    3    0    0  0.25405145644E+02  0.19248868327E+02 -0.12626760382E+03  0.13022844594E+03  0.00000000000E+00 0. -1.
        -13    1    4    4    0    0  0.32428140696E+00  0.34116805110E+02  0.61723888041E+01  0.34672178081E+02  0.00000000000E+00 0. -1.
         13    1    4    4    0    0  0.46630997492E+02 -0.45376136774E+02 -0.46480640156E+02  0.79961826048E+02  0.00000000000E+00 0.  1.
         21    1    1    2  503  502 -0.22343641092E+02  0.30175021310E+02 -0.81845819148E+02  0.90047256040E+02  0.00000000000E+00 0. -1.
          1    1    1    2  501    0 -0.18142746451E+02 -0.29652813646E+02  0.53376103639E+01  0.35170139185E+02  0.00000000000E+00 0. -1.
<scales pt_clust_5="13000.00000" pt_clust_6="13000.00000" pt_clust_7="13000.00000" pt_clust_8="13000.00000" pt_clust_9="36.58247" pt_clust_10="34.76275"></scales>
<clustering>
<clus scale="   34.763">  1 10  2 -1</clus>
<clus scale="   36.582">  2  9  1 -1</clus>
<clus scale="   77.290">  5  6 -1 -1</clus>
<clus scale="   84.612">  2  5  1 -1</clus>
<clus scale="   95.836">  7  8 -1 -1</clus>
<clus scale="   34.763">  1  5  2 -1</clus>
</clustering>
</event>
<event>
10    4  0.5389768E-005  0.1508730E+03  0.7546771E-02  0.1201912E+00
         -1   -1    0    0    0  501 -0.00000000000E+00  0.00000000000E+00  0.70864403708E+02  0.70864403708E+02  0.00000000000E+00 0.  1.
         21   -1    0    0  503  502  0.00000000000E+00 -0.00000000000E+00 -0.56418700588E+03  0.56418700588E+03  0.00000000000E+00 0. -1.
         23    2    1    2    0    0  0.95512614473E+02 -0.76027656170E+02 -0.12093087355E+03  0.19627973601E+03  0.94860922212E+02 0.  0.
         24    2    1    2    0    0 -0.83791955085E+02  0.71118030310E+02 -0.23689148742E+03  0.27358501789E+03  0.81561751028E+02 0.  0.
        -13    1    4    4    0    0  0.13656270501E+02  0.26199910877E+02 -0.52780207871E+02  0.60487018416E+02  0.00000000000E+00 0.  1.
         14    1    4    4    0    0 -0.97448225587E+02  0.44918119433E+02 -0.18411127955E+03  0.21309799948E+03  0.00000000000E+00 0. -1.
        -11    1    3    3    0    0  0.10183678371E+02 -0.25242095532E+02 -0.87293356426E+02  0.91438508125E+02  0.00000000000E+00 0. -1.
         11    1    3    3    0    0  0.85328936102E+02 -0.50785560638E+02 -0.33637517129E+02  0.10484122788E+03  0.00000000000E+00 0.  1.
         21    1    1    2  503  501  0.13724441972E+02  0.17741949202E+02  0.40179635254E+01  0.22787740121E+02  0.00000000000E+00 0.  1.
         -2    1    1    2    0  502 -0.25445101359E+02 -0.12832323342E+02 -0.13951820472E+03  0.14239891556E+03  0.00000000000E+00 0.  1.
<scales pt_clust_5="13000.00000" pt_clust_6="13000.00000" pt_clust_7="13000.00000" pt_clust_8="13000.00000" pt_clust_9="22.43072" pt_clust_10="27.99137"></scales>
<clustering>
<clus scale="   22.431">  1  9  2 -1</clus>
<clus scale="   27.991">  2 10  1 -1</clus>
<clus scale="   81.562">  5  6 -1 -1</clus>
<clus scale="   94.861">  7  8 -1 -1</clus>
<clus scale="  142.886">  2  5  1 -1</clus>
<clus scale="   27.991">  2  5  1 -1</clus>
</clustering>
</event>
<event>
10    4  0.5389768E-005  0.2012689E+03  0.7546771E-02  0.1188689E+00
         21   -1    0    0  503  502  0.00000000000E+00  0.00000000000E+00  0.66736196860E+02  0.66736196860E+02  0.00000000000E+00 0.  1.
          2   -1    0    0  502    0 -0.00000000000E+00 -0.00000000000E+00 -0.16075406111E+04  0.16075406111E+04  0.00000000000E+00 0. -1.
         24    2    1    2    0    0  0.31044542030E+01  0.45447713402E+02 -0.96282985892E+03  0.96618035892E+03  0.66242104861E+02 0.  0.
         23    2    1    2    0    0 -0.17562729297E+03  0.21885199206E+02 -0.21015895245E+03  0.28984971533E+03  0.92315568563E+02 0.  0.
        -13    1    3    3    0    0  0.21829657751E+02  0.11646144264E+02 -0.12309767261E+03  0.12555956210E+03  0.00000000000E+00 0.  1.
         14    1    3    3    0    0 -0.18725203548E+02  0.33801569138E+02 -0.83973218631E+03  0.84062079682E+03  0.00000000000E+00 0. -1.
        -13    1    4    4    0    0 -0.77189316590E+02  0.51298046175E+02 -0.12941745607E+03  0.15918089732E+03  0.00000000000E+00 0. -1.
         13    1    4    4    0    0 -0.98437976381E+02 -0.29412846968E+02 -0.80741496386E+02  0.13066881801E+03  0.00000000000E+00 0.  1.
         21    1    1    2  503  501  0.79951857962E+02 -0.19208337572E+02 -0.23737567604E+03  0.25121399523E+03  0.00000000000E+00 0. -1.
          1    1    1    2  501    0  0.92570980805E+02 -0.48124575036E+02 -0.13043992679E+03  0.16703273844E+03  0.00000000000E+00 0. -1.
<scales pt_clust_5="13000.00000" pt_clust_6="13000.00000" pt_clust_7="13000.00000" pt_clust_8="13000.00000" pt_clust_9="64.89870" pt_clust_10="193.21289"></scales>
<clustering>
<clus scale="   64.899">  9 10 -1 -1</clus>
<clus scale="   66.242">  5  6 -1 -1</clus>
<clus scale="   80.394">  2  5  1 -1</clus>
<clus scale="   92.316">  7  8 -1 -1</clus>
<clus scale="  193.213">  1  9  2 -1</clus>
<clus scale="  193.213">  1  5  2 -1</clus>
</clustering>
</event>
<event>
10    4  0.5389768E-005  0.1482507E+03  0.7546771E-02  0.1223103E+00
         21   -1    0    0  501  502  0.00000000000E+00  0.00000000000E+00  0.16698221248E+03  0.16698221248E+03  0.00000000000E+00 0. -1.
          2   -1    0    0  503    0 -0.00000000000E+00 -0.00000000000E+00 -0.28015485148E+03  0.28015485148E+03  0.00000000000E+00 0. -1.
         23    2    1    2    0    0  0.24545712777E+02 -0.93565701825E+01 -0.12109546213E+02  0.97266966997E+02  0.92866486625E+02 0.  0.
         24    2    1    2    0    0 -0.12276735259E+03  0.34635580835E+02  0.78581756526E+01  0.15073622032E+03  0.79926283978E+02 0.  0.
        -13    1    4    4    0    0 -0.20455946641E+02  0.89923171185E+01  0.35273425369E+02  0.41755503319E+02  0.00000000000E+00 0.  1.
         14    1    4    4    0    0 -0.10231140595E+03  0.25643263717E+02 -0.27415249717E+02  0.10898071700E+03  0.00000000000E+00 0. -1.
        -13    1    3    3    0    0 -0.33758165779E+02 -0.25420571146E+01  0.87565747859E+01  0.34967891173E+02  0.00000000000E+00 0.  1.
         13    1    3    3    0    0  0.58303878556E+02 -0.68145130679E+01 -0.20866120999E+02  0.62299075824E+02  0.00000000000E+00 0. -1.
         21    1    1    2  503  502 -0.25890474116E+02 -0.26870761338E+02 -0.48197858805E+02  0.60953983120E+02  0.00000000000E+00 0. -1.
          1    1    1    2  501    0  0.12411211393E+03  0.15917506853E+01 -0.60723409634E+02  0.13817989352E+03  0.00000000000E+00 0. -1.
<scales pt_clust_5="13000.00000" pt_clust_6="13000.00000" pt_clust_7="13000.00000" pt_clust_8="13000.00000" pt_clust_9="37.31427" pt_clust_10="124.86028"></scales>
<clustering>
<clus scale="   37.314">  2  9  1 -1</clus>
<clus scale="   79.926">  5  6 -1 -1</clus>
<clus scale="   92.866">  7  8 -1 -1</clus>
<clus scale="   95.968">  2  7  1 -1</clus>
<clus scale="  124.860">  1 10  2 -1</clus>
<clus scale="  124.860">  1  5  2 -1</clus>
</clustering>
</event>
<event>
10    4  0.5389768E-005  0.2125648E+03  0.7546771E-02  0.1154794E+00
         21   -1    0    0  501  502  0.00000000000E+00  0.00000000000E+00  0.16718556469E+03  0.16718556469E+03  0.00000000000E+00 0.  1.
          2   -1    0    0  503    0 -0.00000000000E+00 -0.00000000000E+00 -0.90451191161E+03  0.90451191161E+03  0.00000000000E+00 0. -1.
         23    2    1    2    0    0  0.12463964982E+03  0.13819862108E+02 -0.19613641116E+03  0.24994191417E+03  0.90969433220E+02 0.  0.
         24    2    1    2    0    0 -0.27471315311E+03  0.23165697365E+01 -0.51347657404E+03  0.58785004212E+03  0.80229651273E+02 0.  0.
        -13    1    4    4    0    0 -0.23436257365E+03 -0.20054761945E+02 -0.46390194664E+03  0.52012789341E+03  0.00000000000E+00 0.  1.
         14    1    4    4    0    0 -0.40350579461E+02  0.22371331681E+02 -0.49574627393E+02  0.67722148705E+02  0.00000000000E+00 0. -1.
        -11    1    3    3    0    0  0.70068713287E+01 -0.28696576096E+02 -0.31548867015E+02  0.43219448577E+02  0.00000000000E+00 0.  1.
         11    1    3    3    0    0  0.11763277849E+03  0.42516438203E+02 -0.16458754414E+03  0.20672246559E+03  0.00000000000E+00 0. -1.
         21    1    1    2  503  502 -0.33938953661E+02 -0.41394566949E+01 -0.35566547490E+02  0.49335250862E+02  0.00000000000E+00 0. -1.
          1    1    1    2  501    0  0.18401245696E+03 -0.11996975149E+02  0.78531857695E+01  0.18457026915E+03  0.00000000000E+00 0. -1.
<scales pt_clust_5="13000.00000" pt_clust_6="13000.00000" pt_clust_7="13000.00000" pt_clust_8="13000.00000" pt_clust_9="34.19046" pt_clust_10="196.84256"></scales>
<clustering>
<clus scale="   34.190">  2  9  1 -1</clus>
<clus scale="   80.230">  5  6 -1 -1</clus>
<clus scale="   90.969">  7  8 -1 -1</clus>
<clus scale="  147.855">  2  7  1 -1</clus>
<clus scale="  196.843">  1 10  2 -1</clus>
<clus scale="  196.843">  1  5  2 -1</clus>
</clustering>
</event>
<event>
10    4  0.5389768E-005  0.1651944E+03  0.7546771E-02  0.1196239E+00
         21   -1    0    0  501  502  0.00000000000E+00  0.00000000000E+00  0.28953175873E+03  0.28953175873E+03  0.00000000000E+00 0. -1.
          2   -1    0    0  503    0 -0.00000000000E+00 -0.00000000000E+00 -0.42967107521E+03  0.42967107521E+03  0.00000000000E+00 0. -1.
         24    2    1    2    0    0 -0.85211479924E+02 -0.44749924535E+02  0.77934492419E+02  0.14798596922E+03  0.81009319954E+02 0.  0.
         23    2    1    2    0    0 -0.65075564559E+02  0.29430672490E+02 -0.14172192684E+03  0.18326071682E+03  0.91642742194E+02 0.  0.
        -11    1    3    3    0    0 -0.15758045081E+02 -0.18473815122E+02  0.69054452579E+02  0.73199147884E+02  0.00000000000E+00 0.  1.
         12    1    3    3    0    0 -0.69453434844E+02 -0.26276109413E+02  0.88800398402E+01  0.74786821332E+02  0.00000000000E+00 0. -1.
        -11    1    4    4    0    0 -0.18989720045E+02 -0.16730569199E+02  0.20422821775E+01  0.25390792221E+02  0.00000000000E+00 0.  1.
         11    1    4    4    0    0 -0.46085844515E+02  0.46161241689E+02 -0.14376420902E+03  0.15786992460E+03  0.00000000000E+00 0. -1.
         21    1    1    2  503  502  0.12790290173E+01  0.51737358011E+02 -0.19008116740E+03  0.19700060998E+03  0.00000000000E+00 0. -1.
          1    1    1    2  501    0  0.14900801547E+03 -0.36418105966E+02  0.11372928535E+03  0.19095553792E+03  0.00000000000E+00 0. -1.
<scales pt_clust_5="13000.00000" pt_clust_6="13000.00000" pt_clust_7="13000.00000" pt_clust_8="13000.00000" pt_clust_9="51.75317" pt_clust_10="137.44376"></scales>
<clustering>
<clus scale="   51.753">  2  9  1 -1</clus>
<clus scale="   81.009">  5  6 -1 -1</clus>
<clus scale="   91.643">  7  8 -1 -1</clus>
<clus scale="  123.150">  2  5  1 -1</clus>
<clus scale="  137.444">  1 10  2 -1</clus>
<clus scale="  137.444">  1  5  2 -1</clus>
</clustering>
</event>
<event>
10    4  0.5389768E-005  0.1047401E+03  0.7546771E-02  0.1276083E+00
         21   -1    0    0  501  502  0.00000000000E+00  0.00000000000E+00  0.22044433457E+03  0.22044433457E+03  0.00000000000E+00 0.  1.
          2   -1    0    0  503    0 -0.00000000000E+00 -0.00000000000E+00 -0.17026970896E+03  0.17026970896E+03  0.00000000000E+00 0. -1.
         23    2    1    2    0    0 -0.52828671123E+02  0.59137204595E+02 -0.66256156764E+02  0.13742609327E+03  0.90597877135E+02 0.  0.
         24    2    1    2    0    0 -0.13925422917E+02 -0.45324534051E+02  0.27461744518E+02  0.95578333406E+02  0.78312448656E+02 0.  0.
        -11    1    4    4    0    0 -0.12605978830E+02 -0.53557064913E+02 -0.11096932110E+02  0.56128529346E+02  0.00000000000E+00 0.  1.
         12    1    4    4    0    0 -0.13194440865E+01  0.82325308615E+01  0.38558676628E+02  0.39449804060E+02  0.00000000000E+00 0. -1.
        -13    1    3    3    0    0 -0.16791469714E+02  0.70041443063E+02 -0.68910876479E+02  0.99681824314E+02  0.00000000000E+00 0. -1.
         13    1    3    3    0    0 -0.36037201409E+02 -0.10904238468E+02  0.26547197149E+01  0.37744268952E+02  0.00000000000E+00 0.  1.
         21    1    1    2  503  502  0.11942773153E+02 -0.21724069245E+02 -0.22348880056E+02  0.33377199627E+02  0.00000000000E+00 0. -1.
          1    1    1    2  501    0  0.54811320886E+02  0.79113987009E+01  0.11131791791E+03  0.12433241723E+03  0.00000000000E+00 0. -1.
<scales pt_clust_5="13000.00000" pt_clust_6="13000.00000" pt_clust_7="13000.00000" pt_clust_8="13000.00000" pt_clust_9="24.79042" pt_clust_10="55.78773"></scales>
<clustering>
<clus scale="   24.790">  2  9  1 -1</clus>
<clus scale="   55.788">  1 10  2 -1</clus>
<clus scale="   78.312">  5  6 -1 -1</clus>
<clus scale="   90.598">  7  8 -1 -1</clus>
<clus scale="   94.315">  1  5  2 -1</clus>
<clus scale="   55.788">  1  5  2 -1</clus>
</clustering>
</event>
<event>
10    4  0.5389768E-005  0.2695315E+03  0.7546771E-02  0.1148018E+00
         21   -1    0    0  501  502  0.00000000000E+00  0.00000000000E+00  0.87182128351E+03  0.87182128351E+03  0.00000000000E+00 0. -1.
          2   -1    0    0  503    0 -0.00000000000E+00 -0.00000000000E+00 -0.17305946367E+03  0.17305946367E+03  0.00000000000E+00 0. -1.
         24    2    1    2    0    0 -0.30363389360E+02  0.15129160780E+01 -0.32628224605E+02  0.91512724871E+02  0.79910909418E+02 0.  0.
         23    2    1    2    0    0  0.26128246690E+03  0.76292491463E+01  0.59894049644E+03  0.65952235412E+03  0.88956643136E+02 0.  0.
        -11    1    3    3    0    0 -0.74076526660E+00 -0.31250231553E+02  0.71560843446E+01  0.32067666713E+02  0.00000000000E+00 0.  1.
         12    1    3    3    0    0 -0.29622624093E+02  0.32763147631E+02 -0.39784308950E+02  0.59445058158E+02  0.00000000000E+00 0. -1.
        -11    1    4    4    0    0  0.23812321180E+03 -0.10892191093E+02  0.57108318119E+03  0.61883544151E+03  0.00000000000E+00 0. -1.
         11    1    4    4    0    0  0.23159255096E+02  0.18521440240E+02  0.27857315249E+02  0.40686912614E+02  0.00000000000E+00 0.  1.
         21    1    1    2  503  502  0.63482077382E+01  0.19358870525E+02 -0.50072313945E+00  0.20379311401E+02  0.00000000000E+00 0. -1.
          1    1    1    2  501    0 -0.23726728528E+03 -0.28501035750E+02  0.13295027115E+03  0.27346635680E+03  0.00000000000E+00 0. -1.
<scales pt_clust_5="13000.00000" pt_clust_6="13000.00000" pt_clust_7="13000.00000" pt_clust_8="13000.00000" pt_clust_9="20.37316" pt_clust_10="254.42880"></scales>
<clustering>
<clus scale="   20.373">  2  9  1 -1</clus>
<clus scale="   79.911">  5  6 -1 -1</clus>
<clus scale="   85.121">  2  5  1 -1</clus>
<clus scale="   88.957">  7  8 -1 -1</clus>
<clus scale="  254.429">  1 10  2 -1</clus>
<clus scale="  254.429">  1  5  2 -1</clus>
</clustering>
</event>
<event>
10    4  0.5389768E-005  0.9764101E+02  0.7546771E-02  0.1291232E+00
          2   -1    0    0  503    0 -0.00000000000E+00  0.00000000000E+00  0.93187793523E+03  0.93187793523E+03  0.00000000000E+00 0. -1.
         21   -1    0    0  501  502  0.00000000000E+00 -0.00000000000E+00 -0.27651473602E+02  0.27651473602E+02  0.00000000000E+00 0.  1.
         24    2    1    2    0    0 -0.19208053734E+02  0.27168401256E+02  0.63078673138E+03  0.63667063734E+03  0.79690204044E+02 0.  0.
         23    2    1    2    0    0 -0.11104600889E+02 -0.14243394478E+02  0.97973406738E+02  0.13479336582E+03  0.90797998844E+02 0.  0.
        -11    1    3    3    0    0 -0.18759067002E+02 -0.23390661315E+02  0.13379108718E+03  0.13710973941E+03  0.00000000000E+00 0.  1.
         12    1    3    3    0    0 -0.44898673175E+00  0.50559062572E+02  0.49699564419E+03  0.49956089793E+03  0.00000000000E+00 0. -1.
        -11    1    4    4    0    0  0.77062433897E+01  0.19505278503E+02 -0.76507465901E+01  0.22324336498E+02  0.00000000000E+00 0.  1.
         11    1    4    4    0    0 -0.18810844279E+02 -0.33748672982E+02  0.10562415333E+03  0.11246902932E+03  0.00000000000E+00 0. -1.
         21    1    1    2  503  502  0.24995337411E+02  0.20052695699E+02  0.10995602496E+03  0.11453036681E+03  0.00000000000E+00 0. -1.
          1    1    1    2  501    0  0.53173172121E+01 -0.32977702477E+02  0.65510298554E+02  0.73535038856E+02  0.00000000000E+00 0. -1.
<scales pt_clust_5="13000.00000" pt_clust_6="13000.00000" pt_clust_7="13000.00000" pt_clust_8="13000.00000" pt_clust_9="32.04493" pt_clust_10="32.14894"></scales>
<clustering>
<clus scale="   32.045">  1  9  2 -1</clus>
<clus scale="   32.149">  2 10  1 -1</clus>
<clus scale="   79.690">  5  6 -1 -1</clus>
<clus scale="   87.407">  1  5  2 -1</clus>
<clus scale="   90.798">  7  8 -1 -1</clus>
<clus scale="   32.149">  2  5  1 -1</clus>
</clustering>
</event>
<event>
10    4  0.5389768E-005  0.9157501E+02  0.7546771E-02  0.1305401E+00
         21   -1    0    0  501  502  0.00000000000E+00  0.00000000000E+00  0.17919812195E+03  0.17919812195E+03  0.00000000000E+00 0. -1.
          2   -1    0    0  503    0 -0.00000000000E+00 -0.00000000000E+00 -0.10895068318E+03  0.10895068318E+03  0.00000000000E+00 0. -1.
         24    2    1    2    0    0 -0.28906851657E+02  0.14085301157E+02 -0.33244054887E+02  0.91663631566E+02  0.79139448981E+02 0.  0.
         23    2    1    2    0    0  0.17657969878E+02  0.13456738120E+02  0.52664955330E+02  0.10614604226E+03  0.89445497742E+02 0.  0.
        -11    1    3    3    0    0  0.12585013425E+02  0.21399151649E+02 -0.41852652119E+02  0.48661594134E+02  0.00000000000E+00 0.  1.
         12    1    3    3    0    0 -0.41491865082E+02 -0.73138504922E+01  0.86085972319E+01  0.43002037432E+02  0.00000000000E+00 0. -1.
        -11    1    4    4    0    0 -0.27189346163E+02 -0.87561089059E+01 -0.58402808100E+01  0.29155426045E+02  0.00000000000E+00 0.  1.
         11    1    4    4    0    0  0.44847316042E+02  0.22212847025E+02  0.58505236140E+02  0.76990616213E+02  0.00000000000E+00 0. -1.
         21    1    1    2  503  502  0.20672651606E+02  0.63129786631E+01 -0.69581822264E+01  0.22707455250E+02  0.00000000000E+00 0. -1.
          1    1    1    2  501    0 -0.94237698283E+01 -0.33855017940E+02  0.57784720547E+02  0.67631676056E+02  0.00000000000E+00 0. -1.
<scales pt_clust_5="13000.00000" pt_clust_6="13000.00000" pt_clust_7="13000.00000" pt_clust_8="13000.00000" pt_clust_9="21.61509" pt_clust_10="34.54715"></scales>
<clustering>
<clus scale="   21.615">  2  9  1 -1</clus>
<clus scale="   34.547">  1 10  2 -1</clus>
<clus scale="   79.139">  5  6 -1 -1</clus>
<clus scale="   81.539">  2  5  1 -1</clus>
<clus scale="   89.445">  7  8 -1 -1</clus>
<clus scale="   34.547">  1  5  2 -1</clus>
</clustering>
</event>
<event>
10    4  0.5389768E-005  0.9619480E+02  0.7546771E-02  0.1289122E+00
         21   -1    0    0  501  502  0.00000000000E+00  0.00000000000E+00  0.24066254453E+03  0.24066254453E+03  0.00000000000E+00 0.  1.
          4   -1    0    0  503    0 -0.00000000000E+00 -0.00000000000E+00 -0.29549008718E+03  0.29549008718E+03  0.00000000000E+00 0. -1.
         23    2    1    2    0    0  0.20658540622E+02  0.20273376929E+02 -0.13229396184E+03  0.16168287876E+03  0.88328227825E+02 0.  0.
         24    2    1    2    0    0 -0.18823305763E+02 -0.83437687514E+01  0.10172195225E+03  0.13550669496E+03  0.87125045162E+02 0.  0.
        -13    1    4    4    0    0 -0.44790117954E+02 -0.26171412368E+02  0.85676371859E+02  0.10015756680E+03  0.00000000000E+00 0.  1.
         14    1    4    4    0    0  0.25966812191E+02  0.17827643616E+02  0.16045580388E+02  0.35349128168E+02  0.00000000000E+00 0. -1.
        -13    1    3    3    0    0  0.32194423728E+02 -0.22576025072E+02 -0.98019820281E+02  0.10561270281E+03  0.00000000000E+00 0.  1.
         13    1    3    3    0    0 -0.11535883106E+02  0.42849402001E+02 -0.34274141563E+02  0.56070175948E+02  0.00000000000E+00 0. -1.
         21    1    1    2  503  502 -0.18248904140E+02  0.25464278549E+02 -0.12573273033E+03  0.12957689401E+03  0.00000000000E+00 0. -1.
          3    1    1    2  501    0  0.16413669281E+02 -0.37393886727E+02  0.10147719728E+03  0.10938616398E+03  0.00000000000E+00 0. -1.
<scales pt_clust_5="13000.00000" pt_clust_6="13000.00000" pt_clust_7="13000.00000" pt_clust_8="13000.00000" pt_clust_9="31.32813" pt_clust_10="40.11571"></scales>
<clustering>
<clus scale="   31.328">  2  9  1 -1</clus>
<clus scale="   40.116">  1 10  2 -1</clus>
<clus scale="   87.125">  5  6 -1 -1</clus>
<clus scale="   88.328">  7  8 -1 -1</clus>
<clus scale="   95.091">  1  5  2 -1</clus>
<clus scale="   40.116">  1  5  2 -1</clus>
</clustering>
</event>
<event>
10    4  0.5389768E-005  0.2916684E+03  0.7546771E-02  0.1090283E+00
          2   -1    0    0  503    0 -0.00000000000E+00  0.00000000000E+00  0.10603364654E+04  0.10603364654E+04  0.00000000000E+00 0. -1.
         21   -1    0    0  501  502  0.00000000000E+00 -0.00000000000E+00 -0.27635384310E+03  0.27635384310E+03  0.00000000000E+00 0. -1.
         23    2    1    2    0    0 -0.84334563219E+02  0.18648220480E+03  0.16581698740E+03  0.27898324503E+03  0.91915430901E+02 0.  0.
         24    2    1    2    0    0  0.27846194470E+03 -0.20639652934E+03 -0.29768168012E+02  0.36470167020E+03  0.10945584706E+03 0.  0.
        -13    1    4    4    0    0  0.21529913483E+03 -0.96177070752E+02 -0.89662726471E+01  0.23597487248E+03  0.00000000000E+00 0.  1.
         14    1    4    4    0    0  0.63162809870E+02 -0.11021945859E+03 -0.20801895365E+02  0.12872679773E+03  0.00000000000E+00 0. -1.
        -11    1    3    3    0    0  0.90522942918E+01  0.68459575847E+02  0.26709304921E+02  0.74040830131E+02  0.00000000000E+00 0.  1.
         11    1    3    3    0    0 -0.93386857510E+02  0.11802262895E+03  0.13910768248E+03  0.20494241490E+03  0.00000000000E+00 0. -1.
         21    1    1    2  503  502 -0.21198072726E+03  0.23322296645E+01  0.50185791904E+03  0.54479596082E+03  0.00000000000E+00 0. -1.
          1    1    1    2  501    0  0.17853345785E+02  0.17582094878E+02  0.14607588391E+03  0.14820943248E+03  0.00000000000E+00 0. -1.
<scales pt_clust_5="13000.00000" pt_clust_6="13000.00000" pt_clust_7="13000.00000" pt_clust_8="13000.00000" pt_clust_9="210.62095" pt_clust_10="25.05739"></scales>
<clustering>
<clus scale="   25.057">  2 10  1 -1</clus>
<clus scale="   91.915">  7  8 -1 -1</clus>
<clus scale="  109.456">  5  6 -1 -1</clus>
<clus scale="  210.621">  1  9  2 -1</clus>
<clus scale="  285.549">  1  7  2 -1</clus>
<clus scale="   25.057">  2  5  1 -1</clus>
</clustering>
</event>
<event>
10    4  0.5389768E-005  0.2573869E+03  0.7546771E-02  0.1134309E+00
          2   -1    0    0  503    0 -0.00000000000E+00  0.00000000000E+00  0.56967445724E+03  0.56967445724E+03  0.00000000000E+00 0. -1.
         21   -1    0    0  501  502  0.00000000000E+00 -0.00000000000E+00 -0.59312335224E+03  0.59312335224E+03  0.00000000000E+00 0. -1.
         23    2    1    2    0    0 -0.78420837968E+02 -0.73474901323E+02 -0.12394132515E+03  0.18673836413E+03  0.89226540931E+02 0.  0.
         24    2    1    2    0    0  0.13379204410E+03  0.25678488527E+03 -0.20194317747E+03  0.36583454334E+03  0.95995196780E+02 0.  0.
        -13    1    4    4    0    0  0.79233262826E+02  0.10418479602E+03 -0.40330684959E+02  0.13696330095E+03  0.00000000000E+00 0.  1.
         14    1    4    4    0    0  0.54558781272E+02  0.15260008925E+03 -0.16161249251E+03  0.22887124238E+03  0.00000000000E+00 0. -1.
        -11    1    3    3    0    0 -0.65741179417E+02 -0.93729101608E+02 -0.11144736519E+03  0.15977347204E+03  0.00000000000E+00 0. -1.
         11    1    3    3    0    0 -0.12679658551E+02  0.20254200285E+02 -0.12493959965E+02  0.26964892096E+02  0.00000000000E+00 0.  1.
         21    1    1    2  503  502  0.67402595853E+02 -0.25898222104E+02  0.38681391052E+03  0.39349565335E+03  0.00000000000E+00 0. -1.
          1    1    1    2  501    0 -0.12277380198E+03 -0.15741176184E+03 -0.84378302897E+02  0.21672924865E+03  0.00000000000E+00 0. -1.
<scales pt_clust_5="13000.00000" pt_clust_6="13000.00000" pt_clust_7="13000.00000" pt_clust_8="13000.00000" pt_clust_9="72.20684" pt_clust_10="238.81572"></scales>
<clustering>
<clus scale="   72.207">  1  9  2 -1</clus>
<clus scale="   89.227">  7  8 -1 -1</clus>
<clus scale="   95.995">  5  6 -1 -1</clus>
<clus scale="  135.963">  1  7  2 -1</clus>
<clus scale="  238.816">  2 10  1 -1</clus>
<clus scale="  238.816">  2  5  1 -1</clus>
</clustering>
</event>
<event>
10    4  0.5389768E-005  0.2386759E+03  0.7546771E-02  0.1121872E+00
         -3   -1    0    0    0  501 -0.00000000000E+00  0.00000000000E+00  0.32428256894E+03  0.32428256894E+03  0.00000000000E+00 0.  1.
         21   -1    0    0  501  502  0.00000000000E+00 -0.00000000000E+00 -0.43959783483E+03  0.43959783483E+03  0.00000000000E+00 0. -1.
         23    2    1    2    0    0 -0.13838232091E+03  0.16245540746E+03 -0.12409943755E+03  0.26577618740E+03  0.98462608326E+02 0.  0.
         24    2    1    2    0    0  0.18724517165E+03 -0.12771228099E+03 -0.17848668841E+03  0.29938234207E+03  0.80006923330E+02 0.  0.
        -11    1    4    4    0    0  0.85747849001E+02 -0.10633080230E+03 -0.10401214352E+03  0.17169000881E+03  0.00000000000E+00 0.  1.
         12    1    4    4    0    0  0.10149732265E+03 -0.21381478690E+02 -0.74474544894E+02  0.12769233326E+03  0.00000000000E+00 0. -1.
        -11    1    3    3    0    0 -0.27706583787E+02  0.76585860006E+02 -0.44724932914E+01  0.81566242615E+02  0.00000000000E+00 0.  1.
         11    1    3    3    0    0 -0.11067573712E+03  0.85869547454E+02 -0.11962694426E+03  0.18420994479E+03  0.00000000000E+00 0. -1.
         21    1    1    2  503  502 -0.21780391977E+02 -0.12894007999E+02  0.39533485046E+02  0.46941850803E+02  0.00000000000E+00 0. -1.
         -4    1    1    2    0  503 -0.27082458767E+02 -0.21849118470E+02  0.14773737503E+03  0.15178002349E+03  0.00000000000E+00 0.  1.
<scales pt_clust_5="13000.00000" pt_clust_6="13000.00000" pt_clust_7="13000.00000" pt_clust_8="13000.00000" pt_clust_9="24.50188" pt_clust_10="66.48318"></scales>
<clustering>
<clus scale="   24.502">  9 10 -1 -1</clus>
<clus scale="   66.483">  2  9  1 -1</clus>
<clus scale="   80.007">  5  6 -1 -1</clus>
<clus scale="   98.463">  7  8 -1 -1</clus>
<clus scale="  231.673">  2  5  1 -1</clus>
<clus scale="   66.483">  2  5  1 -1</clus>
</clustering>
</event>
<event>
10    4  0.5389768E-005  0.4035195E+03  0.7546771E-02  0.1066431E+00
          2   -1    0    0  503    0 -0.00000000000E+00  0.00000000000E+00  0.19567921047E+04  0.19567921047E+04  0.00000000000E+00 0. -1.
         21   -1    0    0  501  502  0.00000000000E+00 -0.00000000000E+00 -0.30274897940E+03  0.30274897940E+03  0.00000000000E+00 0.  1.
         24    2    1    2    0    0 -0.18876421787E+03  0.11219942312E+02  0.80074052502E+03  0.82668959730E+03  0.80451754596E+02 0.  0.
         23    2    1    2    0    0 -0.34143208080E+03  0.16395810413E+01  0.20082109796E+03  0.40603531882E+03  0.89202089210E+02 0.  0.
        -13    1    3    3    0    0 -0.10253850532E+03  0.45406432463E+02  0.40654732601E+03  0.42173050337E+03  0.00000000000E+00 0.  1.
         14    1    3    3    0    0 -0.86225712551E+02 -0.34186490150E+02  0.39419319900E+03  0.40495909393E+03  0.00000000000E+00 0. -1.
        -13    1    4    4    0    0 -0.20222021279E+03  0.42905729839E+02  0.10301870719E+03  0.23096919740E+03  0.00000000000E+00 0. -1.
         13    1    4    4    0    0 -0.13921186801E+03 -0.41266148798E+02  0.97802390767E+02  0.17506612142E+03  0.00000000000E+00 0.  1.
         21    1    1    2  503  502  0.52319959678E+03 -0.95679717015E+02  0.73660463931E+03  0.90855865026E+03  0.00000000000E+00 0.  1.
          1    1    1    2  501    0  0.69967018905E+01  0.82820193662E+02 -0.84123137000E+02  0.11825751771E+03  0.00000000000E+00 0. -1.
<scales pt_clust_5="13000.00000" pt_clust_6="13000.00000" pt_clust_7="13000.00000" pt_clust_8="13000.00000" pt_clust_9="393.53651" pt_clust_10="83.11521"></scales>
<clustering>
<clus scale="   80.452">  5  6 -1 -1</clus>
<clus scale="   83.115">  2 10  1 -1</clus>
<clus scale="   89.202">  7  8 -1 -1</clus>
<clus scale="  205.447">  1  5  2 -1</clus>
<clus scale="  393.537">  1  9  2 -1</clus>
<clus scale="   83.115">  2  5  1 -1</clus>
</clustering>
</event>
<event>
10    4  0.7776448E-005  0.1000009E+03  0.7546771E-02  0.1284568E+00
          2   -1    0    0  503    0 -0.00000000000E+00  0.00000000000E+00  0.56577876135E+03  0.56577876135E+03  0.00000000000E+00 0. -1.
         21   -1    0    0  501  502  0.00000000000E+00 -0.00000000000E+00 -0.30034272958E+03  0.30034272958E+03  0.00000000000E+00 0. -1.
         24    2    1    2    0    0 -0.37213367428E+02  0.88580520645E+01  0.37150264326E+03  0.38200977500E+03  0.80336507550E+02 0.  0.
         23    2    1    2    0    0  0.12396882166E+01 -0.13987306359E+02 -0.82046247910E+02  0.12197820711E+03  0.89162293870E+02 0.  0.
        -11    1    3    3    0    0 -0.41461004748E+02  0.20457258102E+02  0.99390996566E+02  0.10961790238E+03  0.00000000000E+00 0.  1.
         12    1    3    3    0    0  0.42476373198E+01 -0.11599206038E+02  0.27211164670E+03  0.27239187262E+03  0.00000000000E+00 0. -1.
        -13    1    4    4    0    0  0.43296015537E+02  0.48516048641E+01 -0.46970788909E+02  0.64065107835E+02  0.00000000000E+00 0.  1.
         13    1    4    4    0    0 -0.42056327320E+02 -0.18838911224E+02 -0.35075459001E+02  0.57913099277E+02  0.00000000000E+00 0. -1.
         21    1    1    2  503  502 -0.13425917629E+01  0.20387141249E+02  0.16632014344E+03  0.16757036789E+03  0.00000000000E+00 0. -1.
          1    1    1    2  501    0  0.37316270975E+02 -0.15257886954E+02 -0.19034050702E+03  0.19456314092E+03  0.00000000000E+00 0. -1.
<scales pt_clust_5="13000.00000" pt_clust_6="13000.00000" pt_clust_7="13000.00000" pt_clust_8="13000.00000" pt_clust_9="20.43130" pt_clust_10="40.26779"></scales>
<clustering>
<clus scale="   20.431">  1  9  2 -1</clus>
<clus scale="   40.268">  2 10  1 -1</clus>
<clus scale="   80.337">  5  6 -1 -1</clus>
<clus scale="   89.162">  7  8 -1 -1</clus>
<clus scale="   92.218">  1  5  2 -1</clus>
<clus scale="   40.268">  2  5  1 -1</clus>
</clustering>
</event>
<event>
10    4  0.5389768E-005  0.1161662E+03  0.7546771E-02  0.1258884E+00
         -1   -1    0    0    0  501 -0.00000000000E+00  0.00000000000E+00  0.36584252924E+02  0.36584252924E+02  0.00000000000E+00 0.  1.
         21   -1    0    0  503  502  0.00000000000E+00 -0.00000000000E+00 -0.16193784054E+04  0.16193784054E+04  0.00000000000E+00 0.  1.
         23    2    1    2    0    0  0.51725239630E+02 -0.50207182221E+02 -0.11657192018E+03  0.16290706423E+03  0.88053605496E+02 0.  0.
         24    2    1    2    0    0  0.84003122983E+01 -0.64646499840E+02 -0.61207559426E+03  0.62074202400E+03  0.80214662473E+02 0.  0.
        -11    1    4    4    0    0 -0.24581204838E+02 -0.10160564200E+02 -0.69077987424E+02  0.74021895698E+02  0.00000000000E+00 0.  1.
         12    1    4    4    0    0  0.32981517136E+02 -0.54485935640E+02 -0.54299760684E+03  0.54672012830E+03  0.00000000000E+00 0. -1.
        -11    1    3    3    0    0 -0.89907450447E+01 -0.19597296842E+02  0.63113547356E+01  0.22465990710E+02  0.00000000000E+00 0.  1.
         11    1    3    3    0    0  0.60715984675E+02 -0.30609885379E+02 -0.12288327492E+03  0.14044107352E+03  0.00000000000E+00 0. -1.
         21    1    1    2  503  501 -0.55527987782E+02  0.15931362837E+02 -0.14178772903E+03  0.15310429730E+03  0.00000000000E+00 0.  1.
         -2    1    1    2    0  502 -0.45975641458E+01  0.98922319224E+02 -0.71235890905E+03  0.71920927284E+03  0.00000000000E+00 0.  1.
<scales pt_clust_5="13000.00000" pt_clust_6="13000.00000" pt_clust_7="13000.00000" pt_clust_8="13000.00000" pt_clust_9="57.76821" pt_clust_10="84.02499"></scales>
<clustering>
<clus scale="   57.768">  1  9  2 -1</clus>
<clus scale="   80.215">  5  6 -1 -1</clus>
<clus scale="   88.054">  7  8 -1 -1</clus>
<clus scale="   96.544">  1  7  2 -1</clus>
<clus scale="   84.025">  2 10  1 -1</clus>
<clus scale="   84.025">  2  5  1 -1</clus>
</clustering>
</event>
<event>
10    4  0.5389768E-005  0.9459386E+02  0.7546771E-02  0.1298454E+00
         21   -1    0    0  503  502  0.00000000000E+00  0.00000000000E+00  0.35238428413E+03  0.35238428413E+03  0.00000000000E+00 0.  1.
         -1   -1    0    0    0  501 -0.00000000000E+00 -0.00000000000E+00 -0.13398252597E+03  0.13398252597E+03  0.00000000000E+00 0.  1.
         24    2    1    2    0    0 -0.90731161597E+01 -0.52815491420E+02 -0.21552068001E+02  0.98674933423E+02  0.80002832950E+02 0.  0.
         23    2    1    2    0    0 -0.23940811206E+02 -0.28890780121E+02  0.75479623466E+02  0.12405047076E+03  0.91013768847E+02 0.  0.
        -11    1    3    3    0    0  0.14613429886E+01 -0.64760887789E+02  0.78349025572E+01  0.65249473627E+02  0.00000000000E+00 0.  1.
         12    1    3    3    0    0 -0.10534459148E+02  0.11945396368E+02 -0.29386970559E+02  0.33425459796E+02  0.00000000000E+00 0. -1.
        -11    1    4    4    0    0  0.32832371877E+02 -0.21471300597E+02  0.18863354057E+02  0.43529386840E+02  0.00000000000E+00 0. -1.
         11    1    4    4    0    0 -0.56773183083E+02 -0.74194795235E+01  0.56616269409E+02  0.80521083919E+02  0.00000000000E+00 0.  1.
         21    1    1    2  503  501  0.15167680852E+02  0.13107283912E+02 -0.41350388829E+02  0.45953390411E+02  0.00000000000E+00 0.  1.
         -2    1    1    2    0  502  0.17846246514E+02  0.68598987629E+02  0.20582459152E+03  0.21768801550E+03  0.00000000000E+00 0.  1.
<scales pt_clust_5="13000.00000" pt_clust_6="13000.00000" pt_clust_7="13000.00000" pt_clust_8="13000.00000" pt_clust_9="20.04643" pt_clust_10="71.97000"></scales>
<clustering>
<clus scale="   20.046">  2  9  1 -1</clus>
<clus scale="   71.970">  1 10  2 -1</clus>
<clus scale="   80.003">  5  6 -1 -1</clus>
<clus scale="   84.053">  2  5  1 -1</clus>
<clus scale="   91.014">  7  8 -1 -1</clus>
<clus scale="   71.970">  1  5  2 -1</clus>
</clustering>
</event>
<event>
10    4  0.5389768E-005  0.1323677E+03  0.7546771E-02  0.1226255E+00
         21   -1    0    0  501  502  0.00000000000E+00  0.00000000000E+00  0.15025243253E+03  0.15025243253E+03  0.00000000000E+00 0. -1.
          2   -1    0    0  503    0 -0.00000000000E+00 -0.00000000000E+00 -0.97191713048E+03  0.97191713048E+03  0.00000000000E+00 0. -1.
         24    2    1    2    0    0  0.13800507090E+01 -0.49438748601E+02 -0.42574795247E+03  0.43676412666E+03  0.83996957724E+02 0.  0.
         23    2    1    2    0    0 -0.12762743171E+03  0.19835451126E+02  0.19089445330E+02  0.16025876521E+03  0.92931471826E+02 0.  0.
        -13    1    3    3    0    0 -0.28867772526E+02 -0.13006903342E+02 -0.58884716232E+02  0.66857592171E+02  0.00000000000E+00 0.  1.
         14    1    3    3    0    0  0.30247823235E+02 -0.36431845259E+02 -0.36686323623E+03  0.36990653449E+03  0.00000000000E+00 0. -1.
        -11    1    4    4    0    0 -0.48094997886E+02  0.52822417633E+02 -0.25358467423E+01  0.71482635268E+02  0.00000000000E+00 0. -1.
         11    1    4    4    0    0 -0.79532433827E+02 -0.32986966506E+02  0.21625292073E+02  0.88776129939E+02  0.00000000000E+00 0.  1.
         21    1    1    2  503  502  0.71187169361E+02 -0.30812690903E+02 -0.43428835377E+03  0.44116143216E+03  0.00000000000E+00 0. -1.
          1    1    1    2  501    0  0.55060211642E+02  0.60415988378E+02  0.19282162956E+02  0.83985238977E+02  0.00000000000E+00 0. -1.
<scales pt_clust_5="13000.00000" pt_clust_6="13000.00000" pt_clust_7="13000.00000" pt_clust_8="13000.00000" pt_clust_9="77.56955" pt_clust_10="83.38500"></scales>
<clustering>
<clus scale="   77.570">  2  9  1 -1</clus>
<clus scale="   83.385">  1 10  2 -1</clus>
<clus scale="   83.997">  5  6 -1 -1</clus>
<clus scale="   92.931">  7  8 -1 -1</clus>
<clus scale="  126.255">  2  5  1 -1</clus>
<clus scale="   83.385">  1  5  2 -1</clus>
</clustering>
</event>
<event>
10    4  0.5389768E-005  0.2240946E+03  0.7546771E-02  0.1132091E+00
         21   -1    0    0  501  502  0.00000000000E+00  0.00000000000E+00  0.17606919289E+03  0.17606919289E+03  0.00000000000E+00 0. -1.
          2   -1    0    0  503    0 -0.00000000000E+00 -0.00000000000E+00 -0.64482050300E+03  0.64482050300E+03  0.00000000000E+00 0. -1.
         24    2    1    2    0    0 -0.13567554472E+03  0.18228694234E+03 -0.24727094870E+03  0.34509934471E+03  0.79462273202E+02 0.  0.
         23    2    1    2    0    0  0.59222490590E+02 -0.18510558598E+03 -0.15911933011E+02  0.21739728476E+03  0.96109356762E+02 0.  0.
        -11    1    3    3    0    0 -0.16371556719E+02  0.29074444690E+02 -0.87463034903E+02  0.93611610807E+02  0.00000000000E+00 0.  1.
         12    1    3    3    0    0 -0.11930398800E+03  0.15321249765E+03 -0.15980791380E+03  0.25148773390E+03  0.00000000000E+00 0. -1.
        -13    1    4    4    0    0  0.42288678471E+02 -0.70675726330E+02  0.36883165718E+02  0.90242775514E+02  0.00000000000E+00 0.  1.
         13    1    4    4    0    0  0.16933812118E+02 -0.11442985965E+03 -0.52795098729E+02  0.12715450925E+03  0.00000000000E+00 0. -1.
         21    1    1    2  503  502 -0.61797704416E+01 -0.50688596941E+02 -0.10959874496E+03  0.12091074526E+03  0.00000000000E+00 0. -1.
          1    1    1    2  501    0  0.82632824573E+02  0.53507240583E+02 -0.95969683443E+02  0.13748232116E+03  0.00000000000E+00 0. -1.
<scales pt_clust_5="13000.00000" pt_clust_6="13000.00000" pt_clust_7="13000.00000" pt_clust_8="13000.00000" pt_clust_9="51.06392" pt_clust_10="91.63595"></scales>
<clustering>
<clus scale="   51.064">  2  9  1 -1</clus>
<clus scale="   79.462">  5  6 -1 -1</clus>
<clus scale="   91.636">  1 10  2 -1</clus>
<clus scale="   96.109">  7  8 -1 -1</clus>
<clus scale="  217.476">  2  5  1 -1</clus>
<clus scale="   91.636">  1  5  2 -1</clus>
</clustering>
</event>
<event>
10    4  0.5389768E-005  0.1241412E+03  0.7546771E-02  0.1248019E+00
         -3   -1    0    0    0  501 -0.00000000000E+00  0.00000000000E+00  0.98436773720E+03  0.98436773720E+03  0.00000000000E+00 0.  1.
         21   -1    0    0  503  502  0.00000000000E+00 -0.00000000000E+00 -0.37183536902E+03  0.37183536902E+03  0.00000000000E+00 0.  1.
         24    2    1    2    0    0  0.56439922527E+02  0.14723834994E+01  0.15584386149E+03  0.18418454516E+03  0.80305695575E+02 0.  0.
         23    2    1    2    0    0 -0.76866681116E+02  0.48205655159E+02  0.48731349566E+03  0.50386417485E+03  0.90401282019E+02 0.  0.
        -11    1    3    3    0    0  0.40609574681E+02 -0.37713243220E+02  0.97361470092E+02  0.11202982696E+03  0.00000000000E+00 0.  1.
         12    1    3    3    0    0  0.15830347846E+02  0.39185626720E+02  0.58482391400E+02  0.72154718198E+02  0.00000000000E+00 0. -1.
        -11    1    4    4    0    0 -0.33292087547E+02 -0.15190736531E+02  0.64925778220E+02  0.74528372095E+02  0.00000000000E+00 0.  1.
         11    1    4    4    0    0 -0.43574593568E+02  0.63396391690E+02  0.42238771744E+03  0.42933580276E+03  0.00000000000E+00 0. -1.
         21    1    1    2  503  501 -0.41568454009E+02 -0.15585835667E+03  0.28607823708E+03  0.32842125608E+03  0.00000000000E+00 0.  1.
         -4    1    1    2    0  502  0.61995212597E+02  0.10618031801E+03 -0.31670322605E+03  0.33973313014E+03  0.00000000000E+00 0.  1.
<scales pt_clust_5="13000.00000" pt_clust_6="13000.00000" pt_clust_7="13000.00000" pt_clust_8="13000.00000" pt_clust_9="13000.00000" pt_clust_10="124.14118"></scales>
<clustering>
<clus scale="   80.306">  5  6 -1 -1</clus>
<clus scale="   90.401">  7  8 -1 -1</clus>
<clus scale="   98.166">  1  5  2 -1</clus>
<clus scale="  111.316">  1  7  2 -1</clus>
<clus scale="  124.141">  2 10  1 -1</clus>
<clus scale="  124.141">  2  5  1 -1</clus>
</clustering>
</event>
<event>
10    4  0.5389768E-005  0.1587840E+03  0.7546771E-02  0.1220979E+00
         21   -1    0    0  501  502  0.00000000000E+00  0.00000000000E+00  0.11911592731E+03  0.11911592731E+03  0.00000000000E+00 0. -1.
          2   -1    0    0  503    0 -0.00000000000E+00 -0.00000000000E+00 -0.44043307224E+03  0.44043307224E+03  0.00000000000E+00 0. -1.
         23    2    1    2    0    0 -0.11028434569E+02 -0.77749082389E+02 -0.86322212639E+02  0.16911090391E+03  0.12239455562E+03 0.  0.
         24    2    1    2    0    0 -0.28264145015E+02 -0.36660200136E+01 -0.14267000100E+01  0.84998414393E+02  0.80064932275E+02 0.  0.
        -11    1    4    4    0    0 -0.24503067865E+01 -0.37495808258E+02 -0.14811234553E+02  0.40389507415E+02  0.00000000000E+00 0.  1.
         12    1    4    4    0    0 -0.25813838229E+02  0.33829788244E+02  0.13384534543E+02  0.44608906977E+02  0.00000000000E+00 0. -1.
        -11    1    3    3    0    0  0.36795303931E+02  0.98792022994E+01 -0.50040795379E+02  0.62893356022E+02  0.00000000000E+00 0.  1.
         11    1    3    3    0    0 -0.47823738500E+02 -0.87628284688E+02 -0.36281417260E+02  0.10621754789E+03  0.00000000000E+00 0. -1.
         21    1    1    2  503  502 -0.13970178306E+02  0.10797966164E+03 -0.21837233701E+03  0.24401075956E+03  0.00000000000E+00 0. -1.
          1    1    1    2  501    0  0.53262757890E+02 -0.26564559241E+02 -0.15195895264E+02  0.61428921679E+02  0.00000000000E+00 0. -1.
<scales pt_clust_5="13000.00000" pt_clust_6="13000.00000" pt_clust_7="13000.00000" pt_clust_8="13000.00000" pt_clust_9="101.15296" pt_clust_10="59.51972"></scales>
<clustering>
<clus scale="   59.520">  1 10  2 -1</clus>
<clus scale="   80.065">  5  6 -1 -1</clus>
<clus scale="   81.659">  1  5  2 -1</clus>
<clus scale="  101.153">  2  9  1 -1</clus>
<clus scale="  122.395">  7  8 -1 -1</clus>
<clus scale="   59.520">  1  5  2 -1</clus>
</clustering>
</event>
<event>
10    4  0.5389768E-005  0.1002707E+03  0.7546771E-02  0.1285475E+00
         -3   -1    0    0    0  501 -0.00000000000E+00  0.00000000000E+00  0.90680116875E+02  0.90680116875E+02  0.00000000000E+00 0.  1.
         21   -1    0    0  503  502  0.00000000000E+00 -0.00000000000E+00 -0.44159851419E+03  0.44159851419E+03  0.00000000000E+00 0. -1.
         23    2    1    2    0    0  0.56589875623E+01 -0.21734672226E+02 -0.17132563322E+03  0.19497789358E+03  0.90329874747E+02 0.  0.
         24    2    1    2    0    0 -0.81647346202E+02 -0.29060952276E+01 -0.21118572235E+03  0.23971985877E+03  0.78685874440E+02 0.  0.
        -11    1    4    4    0    0 -0.30826217774E+02  0.32756506448E+02 -0.12969149340E+03  0.13727027310E+03  0.00000000000E+00 0.  1.
         12    1    4    4    0    0 -0.50821128428E+02 -0.35662601676E+02 -0.81494228947E+02  0.10244958567E+03  0.00000000000E+00 0. -1.
        -13    1    3    3    0    0 -0.14903048700E+02 -0.45066774839E+02 -0.14983872819E+03  0.15717747777E+03  0.00000000000E+00 0. -1.
         13    1    3    3    0    0  0.20562036262E+02  0.23332102613E+02 -0.21486905033E+02  0.37800415811E+02  0.00000000000E+00 0.  1.
         21    1    1    2  503  501  0.58482915636E+02  0.90638471630E+01  0.11865891077E+01  0.59193012597E+02  0.00000000000E+00 0. -1.
         -4    1    1    2    0  502  0.17505443004E+02  0.15576920291E+02  0.30406369138E+02  0.38387866113E+02  0.00000000000E+00 0.  1.
<scales pt_clust_5="13000.00000" pt_clust_6="13000.00000" pt_clust_7="13000.00000" pt_clust_8="13000.00000" pt_clust_9="60.49162" pt_clust_10="23.43249"></scales>
<clustering>
<clus scale="   23.432">  2 10  1 -1</clus>
<clus scale="   60.492">  1  9  2 -1</clus>
<clus scale="   78.686">  5  6 -1 -1</clus>
<clus scale="   89.923">  2  5  1 -1</clus>
<clus scale="   90.330">  7  8 -1 -1</clus>
<clus scale="   23.432">  2  5  1 -1</clus>
</clustering>
</event>
<event>
10    4  0.5389768E-005  0.2041988E+03  0.7546771E-02  0.1146539E+00
         21   -1    0    0  501  502  0.00000000000E+00  0.00000000000E+00  0.15484978093E+03  0.15484978093E+03  0.00000000000E+00 0. -1.
          2   -1    0    0  503    0 -0.00000000000E+00 -0.00000000000E+00 -0.14776743784E+04  0.14776743784E+04  0.00000000000E+00 0. -1.
         24    2    1    2    0    0 -0.19914617306E+03 -0.31940101102E+01 -0.11359244303E+04  0.11567138011E+04  0.89404174377E+02 0.  0.
         23    2    1    2    0    0  0.15985429679E+03 -0.30221857074E+02  0.79841511205E+02  0.20063148316E+03  0.86090465642E+02 0.  0.
        -13    1    3    3    0    0 -0.78024453863E+02 -0.11017197136E+02 -0.23998922917E+03  0.25259458457E+03  0.00000000000E+00 0.  1.
         14    1    3    3    0    0 -0.12112171920E+03  0.78231870259E+01 -0.89593520111E+03  0.90411921654E+03  0.00000000000E+00 0. -1.
        -11    1    4    4    0    0  0.34769666630E+02  0.39998225607E+01  0.59970772612E+02  0.69436459196E+02  0.00000000000E+00 0.  1.
         11    1    4    4    0    0  0.12508463016E+03 -0.34221679634E+02  0.19870738593E+02  0.13119502396E+03  0.00000000000E+00 0. -1.
         21    1    1    2  503  502  0.19045336337E+02  0.39903926320E+02 -0.14489643858E+03  0.15149266017E+03  0.00000000000E+00 0. -1.
          1    1    1    2  501    0  0.20246539931E+02 -0.64880591358E+01 -0.12184523984E+03  0.12368621492E+03  0.00000000000E+00 0. -1.
<scales pt_clust_5="13000.00000" pt_clust_6="13000.00000" pt_clust_7="13000.00000" pt_clust_8="13000.00000" pt_clust_9="44.27963" pt_clust_10="21.26071"></scales>
<clustering>
<clus scale="   21.261">  1 10  2 -1</clus>
<clus scale="   44.280">  2  9  1 -1</clus>
<clus scale="   86.090">  7  8 -1 -1</clus>
<clus scale="   89.404">  5  6 -1 -1</clus>
<clus scale="  202.770">  1  7  2 -1</clus>
<clus scale="   21.261">  1  5  2 -1</clus>
</clustering>
</event>
<event>
10    4  0.5389768E-005  0.1123900E+03  0.7546771E-02  0.1260460E+00
          2   -1    0    0  502    0 -0.00000000000E+00  0.00000000000E+00  0.10541341028E+03  0.10541341028E+03  0.00000000000E+00 0. -1.
         21   -1    0    0  503  502  0.00000000000E+00 -0.00000000000E+00 -0.48611229125E+03  0.48611229125E+03  0.00000000000E+00 0.  1.
         24    2    1    2    0    0 -0.30031527463E+02  0.37497372147E+02 -0.58725938530E+02  0.11066445234E+03  0.80560161346E+02 0.  0.
         23    2    1    2    0    0 -0.41720277644E+01 -0.14951142432E+03 -0.30381968598E+03  0.35088042721E+03  0.91867299888E+02 0.  0.
        -13    1    3    3    0    0 -0.19200368205E+02  0.63012405228E+02 -0.37936446002E+02  0.76015730524E+02  0.00000000000E+00 0.  1.
         14    1    3    3    0    0 -0.10831159259E+02 -0.25515033081E+02 -0.20789492528E+02  0.34648721818E+02  0.00000000000E+00 0. -1.
        -11    1    4    4    0    0 -0.31966933577E+02 -0.70910225509E+02 -0.77968858112E+02  0.11013304572E+03  0.00000000000E+00 0. -1.
         11    1    4    4    0    0  0.27794905812E+02 -0.78601198810E+02 -0.22585082787E+03  0.24074738149E+03  0.00000000000E+00 0.  1.
         21    1    1    2  503  501  0.10692453089E+02  0.22711992279E+02 -0.27415631899E+02  0.37172301768E+02  0.00000000000E+00 0.  1.
          1    1    1    2  501    0  0.23511102139E+02  0.89302059893E+02  0.92623754449E+01  0.92808520211E+02  0.00000000000E+00 0. -1.
<scales pt_clust_5="13000.00000" pt_clust_6="13000.00000" pt_clust_7="13000.00000" pt_clust_8="13000.00000" pt_clust_9="25.10305" pt_clust_10="94.61843"></scales>
<clustering>
<clus scale="   25.103">  2  9  1 -1</clus>
<clus scale="   80.560">  5  6 -1 -1</clus>
<clus scale="   91.867">  7  8 -1 -1</clus>
<clus scale="   94.618">  2 10  1 -1</clus>
<clus scale="  103.353">  1  5  2 -1</clus>
<clus scale="   25.103">  2  5  1 -1</clus>
</clustering>
</event>
<event>
10    4  0.5389768E-005  0.1123993E+03  0.7546771E-02  0.1260285E+00
          2   -1    0    0  503    0 -0.00000000000E+00  0.00000000000E+00  0.18333078786E+03  0.18333078786E+03  0.00000000000E+00 0. -1.
         21   -1    0    0  501  502  0.00000000000E+00 -0.00000000000E+00 -0.26295647871E+03  0.26295647871E+03  0.00000000000E+00 0. -1.
         24    2    1    2    0    0  0.63382063840E+02 -0.42042200743E+02 -0.52269815244E+02  0.12276587863E+03  0.80959833928E+02 0.  0.
         23    2    1    2    0    0 -0.45318952530E+02  0.57659872502E+02 -0.87894741235E+02  0.14677055708E+03  0.91856641209E+02 0.  0.
        -11    1    3    3    0    0  0.78550976151E+02 -0.44339076257E+02 -0.28726090916E+02  0.94664659916E+02  0.00000000000E+00 0.  1.
         12    1    3    3    0    0 -0.15168912311E+02  0.22968755143E+01 -0.23543724329E+02  0.28101218712E+02  0.00000000000E+00 0. -1.
        -13    1    4    4    0    0 -0.15520102261E+02  0.69063020064E+02 -0.90342287600E+02  0.11477065497E+03  0.00000000000E+00 0. -1.
         13    1    4    4    0    0 -0.29798850269E+02 -0.11403147562E+02  0.24475463652E+01  0.31999902107E+02  0.00000000000E+00 0.  1.
         21    1    1    2  503  502 -0.50543833301E+02  0.23049866092E+02  0.98832216031E+02  0.11337452243E+03  0.00000000000E+00 0. -1.
          1    1    1    2  501    0  0.32480721990E+02 -0.38667537851E+02 -0.38293350408E+02  0.63376308428E+02  0.00000000000E+00 0. -1.
<scales pt_clust_5="13000.00000" pt_clust_6="13000.00000" pt_clust_7="13000.00000" pt_clust_8="13000.00000" pt_clust_9="53.99370" pt_clust_10="50.49927"></scales>
<clustering>
<clus scale="   50.499">  2 10  1 -1</clus>
<clus scale="   53.994">  1  9  2 -1</clus>
<clus scale="   80.960">  5  6 -1 -1</clus>
<clus scale="   91.857">  7  8 -1 -1</clus>
<clus scale="  103.684">  1  5  2 -1</clus>
<clus scale="   50.499">  2  5  1 -1</clus>
</clustering>
</event>
<event>
10    4  0.5389768E-005  0.1849837E+03  0.7546771E-02  0.1163526E+00
         21   -1    0    0  501  502  0.00000000000E+00  0.00000000000E+00  0.10137774172E+03  0.10137774172E+03  0.00000000000E+00 0. -1.
          2   -1    0    0  503    0 -0.00000000000E+00 -0.00000000000E+00 -0.12480301222E+04  0.12480301222E+04  0.00000000000E+00 0. -1.
         24    2    1    2    0    0  0.68365376994E+02 -0.70666229249E+02 -0.25389014649E+03  0.28604408788E+03  0.87712444967E+02 0.  0.
         23    2    1    2    0    0 -0.15657315532E+03  0.22075635419E+03 -0.69919999362E+03  0.75534434978E+03  0.91738404100E+02 0.  0.
        -13    1    3    3    0    0  0.72062121499E+02 -0.28139449853E+02 -0.10051053697E+03  0.12683511358E+03  0.00000000000E+00 0.  1.
         14    1    3    3    0    0 -0.36967445046E+01 -0.42526779396E+02 -0.15337960951E+03  0.15920897431E+03  0.00000000000E+00 0. -1.
        -11    1    4    4    0    0 -0.13718315583E+03  0.15849179147E+03 -0.43018010495E+03  0.47853295487E+03  0.00000000000E+00 0. -1.
         11    1    4    4    0    0 -0.19389999497E+02  0.62264562727E+02 -0.26901988867E+03  0.27681139491E+03  0.00000000000E+00 0.  1.
         21    1    1    2  503  502  0.67608417659E+02 -0.95917954856E+02 -0.21604175769E+03  0.24585604176E+03  0.00000000000E+00 0.  1.
          1    1    1    2  501    0  0.20599360671E+02 -0.54172170089E+02  0.22479517322E+02  0.62163384490E+02  0.00000000000E+00 0. -1.
<scales pt_clust_5="13000.00000" pt_clust_6="13000.00000" pt_clust_7="13000.00000" pt_clust_8="13000.00000" pt_clust_9="131.57312" pt_clust_10="57.95652"></scales>
<clustering>
<clus scale="   57.957">  1 10  2 -1</clus>
<clus scale="   87.712">  5  6 -1 -1</clus>
<clus scale="   91.738">  7  8 -1 -1</clus>
<clus scale="  131.573">  1  9  2 -1</clus>
<clus scale="  183.021">  2  5  1 -1</clus>
<clus scale="   57.957">  1  5  2 -1</clus>
</clustering>
</event>
<event>
10    4  0.5389768E-005  0.2774792E+03  0.7546771E-02  0.1128428E+00
         21   -1    0    0  501  502  0.00000000000E+00  0.00000000000E+00  0.78001667459E+03  0.78001667459E+03  0.00000000000E+00 0. -1.
          2   -1    0    0  503    0 -0.00000000000E+00 -0.00000000000E+00 -0.81732673932E+03  0.81732673932E+03  0.00000000000E+00 0. -1.
         24    2    1    2    0    0 -0.19319911318E+01  0.90085292645E+02 -0.53947063539E+03  0.55383821360E+03  0.87115485742E+02 0.  0.
         23    2    1    2    0    0 -0.32523227728E+03 -0.24779072441E+01  0.87605506695E+02  0.35629515398E+03  0.11614360826E+03 0.  0.
        -11    1    3    3    0    0  0.41915459216E+02  0.42040017968E+02 -0.22412416838E+03  0.23185321151E+03  0.00000000000E+00 0.  1.
         12    1    3    3    0    0 -0.43847450348E+02  0.48045274676E+02 -0.31534646700E+03  0.32198500209E+03  0.00000000000E+00 0. -1.
        -11    1    4    4    0    0 -0.86385407163E+02  0.21964214612E+01  0.79258349289E+02  0.11725676428E+03  0.00000000000E+00 0. -1.
         11    1    4    4    0    0 -0.23884687011E+03 -0.46743287052E+01  0.83471574062E+01  0.23903838970E+03  0.00000000000E+00 0.  1.
         21    1    1    2  503  502  0.91074158789E+02 -0.10839029038E+03 -0.62323667394E+02  0.15468418460E+03  0.00000000000E+00 0. -1.
          1    1    1    2  501    0  0.23609010962E+03  0.20782904982E+02  0.47687873136E+03  0.53252586174E+03  0.00000000000E+00 0. -1.
<scales pt_clust_5="13000.00000" pt_clust_6="13000.00000" pt_clust_7="13000.00000" pt_clust_8="13000.00000" pt_clust_9="115.66390" pt_clust_10="252.00273"></scales>
<clustering>
<clus scale="   87.115">  5  6 -1 -1</clus>
<clus scale="  116.144">  7  8 -1 -1</clus>
<clus scale="  125.332">  2  5  1 -1</clus>
<clus scale="  115.664">  2  9  1 -1</clus>
<clus scale="  252.003">  1 10  2 -1</clus>
<clus scale="  252.003">  1  5  2 -1</clus>
</clustering>
</event>
<event>
10    4  0.5389768E-005  0.9766785E+02  0.7546771E-02  0.1289296E+00
         21   -1    0    0  503  502  0.00000000000E+00  0.00000000000E+00  0.32839058454E+03  0.32839058454E+03  0.00000000000E+00 0. -1.
         -3   -1    0    0    0  501 -0.00000000000E+00 -0.00000000000E+00 -0.12381555205E+03  0.12381555205E+03  0.00000000000E+00 0.  1.
         23    2    1    2    0    0  0.45693036910E+02  0.11308062696E+02 -0.12716808487E+02  0.10228061913E+03  0.89910410559E+02 0.  0.
         24    2    1    2    0    0 -0.20608571276E+02  0.44394404424E+02  0.19158818083E+03  0.21411996985E+03  0.82132539827E+02 0.  0.
        -13    1    4    4    0    0 -0.39748834639E+02  0.10236543924E+02  0.15565471209E+03  0.16097560711E+03  0.00000000000E+00 0.  1.
         14    1    4    4    0    0  0.19140263363E+02  0.34157860500E+02  0.35933468744E+02  0.53144362744E+02  0.00000000000E+00 0. -1.
        -13    1    3    3    0    0 -0.18546363075E+02 -0.21917574055E+02 -0.79932181517E+01  0.29803341628E+02  0.00000000000E+00 0.  1.
         13    1    3    3    0    0  0.64239399985E+02  0.33225636752E+02 -0.47235903350E+01  0.72477277499E+02  0.00000000000E+00 0. -1.
         21    1    1    2  503  501 -0.16077754235E+02 -0.36603140713E+02 -0.46065474059E+02  0.60994360326E+02  0.00000000000E+00 0.  1.
         -4    1    1    2    0  502 -0.90067113989E+01 -0.19099326407E+02  0.71769134206E+02  0.74811187292E+02  0.00000000000E+00 0.  1.
<scales pt_clust_5="13000.00000" pt_clust_6="13000.00000" pt_clust_7="13000.00000" pt_clust_8="13000.00000" pt_clust_9="40.59621" pt_clust_10="21.11647"></scales>
<clustering>
<clus scale="   21.116">  1 10  2 -1</clus>
<clus scale="   40.596">  2  9  1 -1</clus>
<clus scale="   82.133">  5  6 -1 -1</clus>
<clus scale="   89.910">  7  8 -1 -1</clus>
<clus scale="   90.559">  1  5  2 -1</clus>
<clus scale="   21.116">  1  5  2 -1</clus>
</clustering>
</event>
<event>
10    4  0.5389768E-005  0.1323315E+03  0.7546771E-02  0.1226515E+00
         21   -1    0    0  503  502  0.00000000000E+00  0.00000000000E+00  0.20991438089E+03  0.20991438089E+03  0.00000000000E+00 0.  1.
         -3   -1    0    0    0  501 -0.00000000000E+00 -0.00000000000E+00 -0.20319798192E+03  0.20319798192E+03  0.00000000000E+00 0.  1.
         23    2    1    2    0    0 -0.65518255375E+02 -0.71336664379E+02 -0.11718462041E+03  0.17681054375E+03  0.90267223541E+02 0.  0.
         24    2    1    2    0    0  0.43934868599E+02  0.89400721465E+02  0.79778105030E+02  0.15072778999E+03  0.80197000908E+02 0.  0.
        -11    1    4    4    0    0  0.23757718871E+02  0.69438471184E+02  0.93776344590E+02  0.11908036484E+03  0.00000000000E+00 0.  1.
         12    1    4    4    0    0  0.20177149728E+02  0.19962250281E+02 -0.13998239560E+02  0.31647425144E+02  0.00000000000E+00 0. -1.
        -13    1    3    3    0    0 -0.36234626741E+02  0.31353171700E+01 -0.81391253863E+02  0.89147712221E+02  0.00000000000E+00 0. -1.
         13    1    3    3    0    0 -0.29283628634E+02 -0.74471981549E+02 -0.35793366551E+02  0.87662831524E+02  0.00000000000E+00 0.  1.
         21    1    1    2  503  501 -0.23745825533E+02 -0.88834826300E+01  0.70925255925E+01  0.26326496409E+02  0.00000000000E+00 0.  1.
         -4    1    1    2    0  502  0.45329212309E+02 -0.91805744569E+01  0.37030388766E+02  0.59247532675E+02  0.00000000000E+00 0.  1.
<scales pt_clust_5="13000.00000" pt_clust_6="13000.00000" pt_clust_7="13000.00000" pt_clust_8="13000.00000" pt_clust_9="25.35312" pt_clust_10="41.02662"></scales>
<clustering>
<clus scale="   25.353">  1  9  2 -1</clus>
<clus scale="   41.027">  1 10  2 -1</clus>
<clus scale="   80.197">  5  6 -1 -1</clus>
<clus scale="   90.267">  7  8 -1 -1</clus>
<clus scale="  125.678">  1  5  2 -1</clus>
<clus scale="   25.353">  1  5  2 -1</clus>
</clustering>
</event>
<event>
10    4  0.5389768E-005  0.1165604E+03  0.7546771E-02  0.1256976E+00
         -1   -1    0    0    0  501 -0.00000000000E+00  0.00000000000E+00  0.10167867501E+03  0.10167867501E+03  0.00000000000E+00 0.  1.
         21   -1    0    0  503  502  0.00000000000E+00 -0.00000000000E+00 -0.78899861212E+03  0.78899861212E+03  0.00000000000E+00 0. -1.
         24    2    1    2    0    0  0.35834362641E+02 -0.58150839815E+02  0.50153464360E+01  0.10613230607E+03  0.81075834718E+02 0.  0.
         23    2    1    2    0    0  0.21127395842E+02 -0.36258245449E+02 -0.44385624052E+03  0.45422290927E+03  0.86885337322E+02 0.  0.
        -11    1    3    3    0    0  0.11807544815E+02 -0.32093669861E+02  0.42496137797E+02  0.54546709226E+02  0.00000000000E+00 0.  1.
         12    1    3    3    0    0  0.24026817826E+02 -0.26057169954E+02 -0.37480791361E+02  0.51585596846E+02  0.00000000000E+00 0. -1.
        -13    1    4    4    0    0  0.42481589809E+02 -0.53783019238E+02 -0.33263702098E+03  0.33962433123E+03  0.00000000000E+00 0.  1.
         13    1    4    4    0    0 -0.21354193967E+02  0.17524773789E+02 -0.11121921953E+03  0.11459857805E+03  0.00000000000E+00 0. -1.
         21    1    1    2  503  501 -0.22033755795E+02  0.10897024515E+03 -0.39561038901E+02  0.11800456144E+03  0.00000000000E+00 0. -1.
         -2    1    1    2    0  502 -0.34928002687E+02 -0.14561159882E+02 -0.20891800413E+03  0.21231751035E+03  0.00000000000E+00 0.  1.
<scales pt_clust_5="13000.00000" pt_clust_6="13000.00000" pt_clust_7="13000.00000" pt_clust_8="13000.00000" pt_clust_9="83.74389" pt_clust_10="37.84168"></scales>
<clustering>
<clus scale="   37.842">  2 10  1 -1</clus>
<clus scale="   81.076">  5  6 -1 -1</clus>
<clus scale="   86.885">  7  8 -1 -1</clus>
<clus scale="   99.233">  2  7  1 -1</clus>
<clus scale="   83.744">  2  9  1 -1</clus>
<clus scale="   37.842">  2  5  1 -1</clus>
</clustering>
</event>
<event>
10    4  0.5389768E-005  0.1703730E+03  0.7546771E-02  0.1204625E+00
         21   -1    0    0  501  502  0.00000000000E+00  0.00000000000E+00  0.98793978543E+03  0.98793978543E+03  0.00000000000E+00 0. -1.
          2   -1    0    0  503    0 -0.00000000000E+00 -0.00000000000E+00 -0.43684935059E+03  0.43684935059E+03  0.00000000000E+00 0. -1.
         23    2    1    2    0    0  0.81519559438E+01 -0.22272564307E+02 -0.51297715927E+02  0.10671571999E+03  0.90522194663E+02 0.  0.
         24    2    1    2    0    0 -0.23435392430E+03  0.56071776846E+02  0.29332805977E+03  0.38808656468E+03  0.80647535906E+02 0.  0.
        -11    1    4    4    0    0 -0.70084589595E+02  0.16215946829E+02  0.15042298362E+03  0.16673895955E+03  0.00000000000E+00 0.  1.
         12    1    4    4    0    0 -0.16426933470E+03  0.39855830016E+02  0.14290507615E+03  0.22134760514E+03  0.00000000000E+00 0. -1.
        -13    1    3    3    0    0 -0.35580072172E+02 -0.31303747155E+02 -0.16774006000E+02  0.50271596344E+02  0.00000000000E+00 0.  1.
         13    1    3    3    0    0  0.43732028116E+02  0.90311828482E+01 -0.34523709927E+02  0.56444123643E+02  0.00000000000E+00 0. -1.
         21    1    1    2  503  502  0.13171631160E+03  0.45678639133E+02 -0.28817344149E+03  0.32012444017E+03  0.00000000000E+00 0. -1.
          1    1    1    2  501    0  0.94485656757E+02 -0.79477851672E+02  0.59723353248E+03  0.60986241117E+03  0.00000000000E+00 0. -1.
<scales pt_clust_5="13000.00000" pt_clust_6="13000.00000" pt_clust_7="13000.00000" pt_clust_8="13000.00000" pt_clust_9="150.07638" pt_clust_10="123.83093"></scales>
<clustering>
<clus scale="   80.648">  5  6 -1 -1</clus>
<clus scale="   90.522">  7  8 -1 -1</clus>
<clus scale="   93.578">  2  7  1 -1</clus>
<clus scale="  123.831">  1 10  2 -1</clus>
<clus scale="  150.076">  2  9  1 -1</clus>
<clus scale="  123.831">  1  5  2 -1</clus>
</clustering>
</event>
<event>
10    4  0.5389768E-005  0.1318339E+03  0.7546771E-02  0.1227356E+00
         21   -1    0    0  501  502  0.00000000000E+00  0.00000000000E+00  0.77399498076E+02  0.77399498076E+02  0.00000000000E+00 0. -1.
          2   -1    0    0  503    0 -0.00000000000E+00 -0.00000000000E+00 -0.55531278596E+03  0.55531278596E+03  0.00000000000E+00 0. -1.
         23    2    1    2    0    0  0.35546549045E+02 -0.58973126075E+02 -0.35832686119E+03  0.37586729508E+03  0.90203643530E+02 0.  0.
         24    2    1    2    0    0 -0.55665770643E+02  0.69653494607E+02 -0.16013708119E+02  0.12068781251E+03  0.79742221613E+02 0.  0.
        -13    1    4    4    0    0 -0.29649021772E+02 -0.10846293771E+02 -0.17457538781E+02  0.36075923286E+02  0.00000000000E+00 0.  1.
         14    1    4    4    0    0 -0.26016748871E+02  0.80499788378E+02  0.14438306621E+01  0.84611889222E+02  0.00000000000E+00 0. -1.
        -13    1    3    3    0    0 -0.18479250792E+02  0.98380998777E+01 -0.12373169471E+03  0.12549025140E+03  0.00000000000E+00 0.  1.
         13    1    3    3    0    0  0.54025799837E+02 -0.68811225952E+02 -0.23459516648E+03  0.25037704368E+03  0.00000000000E+00 0. -1.
         21    1    1    2  503  502  0.31994053433E+01 -0.46865814027E+02 -0.68128434650E+02  0.82753394654E+02  0.00000000000E+00 0. -1.
          1    1    1    2  501    0  0.16919816254E+02  0.36185445495E+02 -0.35444283922E+02  0.53403781799E+02  0.00000000000E+00 0. -1.
<scales pt_clust_5="13000.00000" pt_clust_6="13000.00000" pt_clust_7="13000.00000" pt_clust_8="13000.00000" pt_clust_9="43.28906" pt_clust_10="39.94580"></scales>
<clustering>
<clus scale="   39.946">  1 10  2 -1</clus>
<clus scale="   43.289">  2  9  1 -1</clus>
<clus scale="   79.742">  5  6 -1 -1</clus>
<clus scale="   90.204">  7  8 -1 -1</clus>
<clus scale="  124.909">  1  5  2 -1</clus>
<clus scale="   39.946">  1  5  2 -1</clus>
</clustering>
</event>
<event>
10    4  0.5389768E-005  0.1082604E+03  0.7546771E-02  0.1268393E+00
          2   -1    0    0  503    0 -0.00000000000E+00  0.00000000000E+00  0.22708892833E+03  0.22708892833E+03  0.00000000000E+00 0. -1.
         21   -1    0    0  501  502  0.00000000000E+00 -0.00000000000E+00 -0.25833651839E+03  0.25833651839E+03  0.00000000000E+00 0. -1.
         24    2    1    2    0    0 -0.49317389892E+02 -0.23335875587E+01  0.15331438613E+03  0.18421536657E+03  0.89399942442E+02 0.  0.
         23    2    1    2    0    0  0.47215710449E+02 -0.20160776461E+02 -0.10158336338E+03  0.13798020893E+03  0.77997295596E+02 0.  0.
        -13    1    3    3    0    0 -0.71910412508E+01 -0.27320349029E+02  0.58775427202E+01  0.28855814904E+02  0.00000000000E+00 0.  1.
         14    1    3    3    0    0 -0.42126348642E+02  0.24986761470E+02  0.14743684341E+03  0.15535955166E+03  0.00000000000E+00 0. -1.
        -13    1    4    4    0    0  0.49269803916E+02  0.12175066564E+02 -0.28903408924E+02  0.58405075732E+02  0.00000000000E+00 0.  1.
         13    1    4    4    0    0 -0.20540934675E+01 -0.32335843025E+02 -0.72679954453E+02  0.79575133198E+02  0.00000000000E+00 0. -1.
         21    1    1    2  503  502 -0.14943277163E+02 -0.17373195806E+02  0.32564516018E+02  0.39819306478E+02  0.00000000000E+00 0. -1.
          1    1    1    2  501    0  0.17044956607E+02  0.39867559826E+02 -0.11554312883E+03  0.12341056475E+03  0.00000000000E+00 0. -1.
<scales pt_clust_5="13000.00000" pt_clust_6="13000.00000" pt_clust_7="13000.00000" pt_clust_8="13000.00000" pt_clust_9="22.91570" pt_clust_10="42.90843"></scales>
<clustering>
<clus scale="   22.916">  1  9  2 -1</clus>
<clus scale="   42.908">  2 10  1 -1</clus>
<clus scale="   77.997">  7  8 -1 -1</clus>
<clus scale="   89.400">  5  6 -1 -1</clus>
<clus scale="   99.053">  2  7  1 -1</clus>
<clus scale="   42.908">  2  5  1 -1</clus>
</clustering>
</event>
<event>
10    4  0.5389768E-005  0.1622702E+03  0.7546771E-02  0.1209996E+00
         21   -1    0    0  501  502  0.00000000000E+00  0.00000000000E+00  0.12626705169E+03  0.12626705169E+03  0.00000000000E+00 0.  1.
          2   -1    0    0  503    0 -0.00000000000E+00 -0.00000000000E+00 -0.68513347028E+03  0.68513347028E+03  0.00000000000E+00 0. -1.
         24    2    1    2    0    0 -0.38866825268E+02 -0.30452683073E+02 -0.13647854588E+03  0.16617474792E+03  0.80929953345E+02 0.  0.
         23    2    1    2    0    0  0.14734556220E+03  0.80135768030E+02 -0.64181013243E+02  0.19357495330E+03  0.72246827384E+02 0.  0.
        -11    1    3    3    0    0 -0.35862823517E+02 -0.50807749934E+02 -0.57981991790E+02  0.85026354361E+02  0.00000000000E+00 0.  1.
         12    1    3    3    0    0 -0.30040017509E+01  0.20355066861E+02 -0.78496554090E+02  0.81148393560E+02  0.00000000000E+00 0. -1.
        -13    1    4    4    0    0  0.70203140549E+02  0.72479715535E+02 -0.15638750615E+02  0.10210955209E+03  0.00000000000E+00 0.  1.
         13    1    4    4    0    0  0.77142421651E+02  0.76560524948E+01 -0.48542262627E+02  0.91465401213E+02  0.00000000000E+00 0. -1.
         21    1    1    2  503  502  0.23208340281E+02 -0.32545833987E+02 -0.30657368185E+03  0.30916869306E+03  0.00000000000E+00 0. -1.
          1    1    1    2  501    0 -0.13168707721E+03 -0.17137250970E+02 -0.51633177619E+02  0.14248212767E+03  0.00000000000E+00 0. -1.
<scales pt_clust_5="13000.00000" pt_clust_6="13000.00000" pt_clust_7="13000.00000" pt_clust_8="13000.00000" pt_clust_9="39.97322" pt_clust_10="145.29970"></scales>
<clustering>
<clus scale="   39.973">  2  9  1 -1</clus>
<clus scale="   72.247">  7  8 -1 -1</clus>
<clus scale="   80.930">  5  6 -1 -1</clus>
<clus scale="   96.520">  2  5  1 -1</clus>
<clus scale="  145.300">  1 10  2 -1</clus>
<clus scale="  145.300">  1  5  2 -1</clus>
</clustering>
</event>
<event>
10    4  0.5389768E-005  0.2554577E+03  0.7546771E-02  0.1110804E+00
         21   -1    0    0  501  502  0.00000000000E+00  0.00000000000E+00  0.13554751361E+03  0.13554751361E+03  0.00000000000E+00 0. -1.
          2   -1    0    0  503    0 -0.00000000000E+00 -0.00000000000E+00 -0.62997769484E+03  0.62997769484E+03  0.00000000000E+00 0. -1.
         24    2    1    2    0    0 -0.22345764585E+03  0.12791132436E+03 -0.28988888834E+03  0.39454067709E+03  0.73021585226E+02 0.  0.
         23    2    1    2    0    0  0.20041218399E+03 -0.10390987307E+03 -0.13958886515E+03  0.28054013735E+03  0.90859298800E+02 0.  0.
        -13    1    3    3    0    0 -0.10031598802E+03  0.31398669153E+02 -0.76800420600E+02  0.13018248147E+03  0.00000000000E+00 0.  1.
         14    1    3    3    0    0 -0.12314165782E+03  0.96512655211E+02 -0.21308846774E+03  0.26435819562E+03  0.00000000000E+00 0. -1.
        -13    1    4    4    0    0  0.11005657106E+03 -0.79058834513E+02 -0.12748387607E+03  0.18605076405E+03  0.00000000000E+00 0.  1.
         13    1    4    4    0    0  0.90355612933E+02 -0.24851038555E+02 -0.12104989084E+02  0.94489373299E+02  0.00000000000E+00 0. -1.
         21    1    1    2  503  502  0.33101704462E+02  0.46024217404E+00 -0.50277842071E+02  0.60197973923E+02  0.00000000000E+00 0.  1.
          1    1    1    2  501    0 -0.10056242610E+02 -0.24461693470E+02 -0.14674585670E+02  0.30246420076E+02  0.00000000000E+00 0. -1.
<scales pt_clust_5="13000.00000" pt_clust_6="13000.00000" pt_clust_7="13000.00000" pt_clust_8="13000.00000" pt_clust_9="32.71495" pt_clust_10="26.44811"></scales>
<clustering>
<clus scale="   26.448">  1 10  2 -1</clus>
<clus scale="   32.715">  2  9  1 -1</clus>
<clus scale="   73.022">  5  6 -1 -1</clus>
<clus scale="   90.859">  7  8 -1 -1</clus>
<clus scale="  249.671">  2  5  1 -1</clus>
<clus scale="   26.448">  1  5  2 -1</clus>
</clustering>
</event>
<event>
10    4  0.5389768E-005  0.2037919E+03  0.7546771E-02  0.1173245E+00
         21   -1    0    0  501  502  0.00000000000E+00  0.00000000000E+00  0.27512975633E+03  0.27512975633E+03  0.00000000000E+00 0.  1.
          2   -1    0    0  503    0 -0.00000000000E+00 -0.00000000000E+00 -0.96519951152E+03  0.96519951152E+03  0.00000000000E+00 0. -1.
         24    2    1    2    0    0 -0.26716461226E+02 -0.19806219576E+03 -0.78450112321E+03  0.81363382420E+03  0.81336245695E+02 0.  0.
         23    2    1    2    0    0 -0.25736378759E+02  0.22009659450E+02  0.16081108567E+03  0.18857605514E+03  0.92487496431E+02 0.  0.
        -13    1    3    3    0    0  0.25478856875E+02 -0.63095017402E+02 -0.19144129684E+03  0.20317461333E+03  0.00000000000E+00 0.  1.
         14    1    3    3    0    0 -0.52195318101E+02 -0.13496717836E+03 -0.59305982638E+03  0.61045921086E+03  0.00000000000E+00 0. -1.
        -11    1    4    4    0    0 -0.41451261172E+02 -0.24113828958E+02  0.97779791142E+02  0.10890625031E+03  0.00000000000E+00 0.  1.
         11    1    4    4    0    0  0.15714882413E+02  0.46123488408E+02  0.63031294530E+02  0.79669804834E+02  0.00000000000E+00 0. -1.
         21    1    1    2  503  502  0.62731564943E+02  0.14154747508E+03 -0.10363559924E+03  0.18630961964E+03  0.00000000000E+00 0.  1.
          1    1    1    2  501    0 -0.10278724958E+02  0.34505061230E+02  0.37255881598E+02  0.51809768875E+02  0.00000000000E+00 0. -1.
<scales pt_clust_5="13000.00000" pt_clust_6="13000.00000" pt_clust_7="13000.00000" pt_clust_8="13000.00000" pt_clust_9="186.85702" pt_clust_10="36.00349"></scales>
<clustering>
<clus scale="   36.003">  1 10  2 -1</clus>
<clus scale="   81.336">  5  6 -1 -1</clus>
<clus scale="   92.487">  7  8 -1 -1</clus>
<clus scale="  109.527">  1  7  2 -1</clus>
<clus scale="  186.857">  1  9  2 -1</clus>
<clus scale="   36.003">  1  5  2 -1</clus>
</clustering>
</event>
<event>
10    4  0.5389768E-005  0.1446952E+03  0.7546771E-02  0.1222222E+00
          2   -1    0    0  503    0 -0.00000000000E+00  0.00000000000E+00  0.66908203047E+03  0.66908203047E+03  0.00000000000E+00 0. -1.
         21   -1    0    0  501  502  0.00000000000E+00 -0.00000000000E+00 -0.11880877819E+03  0.11880877819E+03  0.00000000000E+00 0. -1.
         24    2    1    2    0    0 -0.63037380265E+02 -0.93640150594E+02  0.41511259883E+03  0.44116724614E+03  0.97815541937E+02 0.  0.
         23    2    1    2    0    0 -0.59974540560E+02  0.97015098815E+01  0.61446621709E+01  0.11034870459E+03  0.91913083525E+02 0.  0.
        -13    1    3    3    0    0 -0.27712558212E+02 -0.76742699755E+02  0.13074219855E+03  0.15411343332E+03  0.00000000000E+00 0.  1.
         14    1    3    3    0    0 -0.35324822054E+02 -0.16897450838E+02  0.28437040028E+03  0.28705381281E+03  0.00000000000E+00 0. -1.
        -11    1    4    4    0    0  0.20190079247E+02 -0.13149424691E+02  0.11741519175E+02  0.26803170376E+02  0.00000000000E+00 0.  1.
         11    1    4    4    0    0 -0.80164619806E+02  0.22850934572E+02 -0.55968570038E+01  0.83545534218E+02  0.00000000000E+00 0. -1.
         21    1    1    2  503  502  0.92654991458E+02  0.50666485222E+02  0.15256666815E+03  0.18554953085E+03  0.00000000000E+00 0. -1.
          1    1    1    2  501    0  0.30356929367E+02  0.33272155490E+02 -0.23550676871E+02  0.50825327078E+02  0.00000000000E+00 0. -1.
<scales pt_clust_5="13000.00000" pt_clust_6="13000.00000" pt_clust_7="13000.00000" pt_clust_8="13000.00000" pt_clust_9="106.62463" pt_clust_10="45.03975"></scales>
<clustering>
<clus scale="   45.040">  2 10  1 -1</clus>
<clus scale="   91.913">  7  8 -1 -1</clus>
<clus scale="   97.816">  5  6 -1 -1</clus>
<clus scale="  105.135">  2  7  1 -1</clus>
<clus scale="  106.625">  2  9  1 -1</clus>
<clus scale="   45.040">  2  5  1 -1</clus>
</clustering>
</event>
<event>
10    4  0.5389768E-005  0.2153214E+03  0.7546771E-02  0.1138809E+00
          2   -1    0    0  503    0 -0.00000000000E+00  0.00000000000E+00  0.48368516657E+03  0.48368516657E+03  0.00000000000E+00 0. -1.
         21   -1    0    0  501  502  0.00000000000E+00 -0.00000000000E+00 -0.34499918755E+03  0.34499918755E+03  0.00000000000E+00 0. -1.
         24    2    1    2    0    0 -0.91961554644E+02  0.17342636056E+03  0.34797343534E+03  0.40740430578E+03  0.79744132060E+02 0.  0.
         23    2    1    2    0    0  0.70582290745E+02 -0.13921467116E+03 -0.24001657073E+03  0.30223311173E+03  0.96821047142E+02 0.  0.
        -11    1    3    3    0    0 -0.10461513093E+03  0.13864348407E+03  0.26917464793E+03  0.32034564518E+03  0.00000000000E+00 0.  1.
         12    1    3    3    0    0  0.12653576282E+02  0.34782876487E+02  0.78798787411E+02  0.87058660608E+02  0.00000000000E+00 0. -1.
        -11    1    4    4    0    0  0.14238366134E+02 -0.65056725037E+02 -0.31106908726E+02  0.73503389807E+02  0.00000000000E+00 0.  1.
         11    1    4    4    0    0  0.56343924611E+02 -0.74157946127E+02 -0.20890966200E+03  0.22872972192E+03  0.00000000000E+00 0. -1.
         21    1    1    2  503  502  0.52661696433E+02 -0.51189574127E+02  0.22715803167E+01  0.73476437364E+02  0.00000000000E+00 0. -1.
          1    1    1    2  501    0 -0.31282432534E+02  0.16977884731E+02  0.28457534081E+02  0.45570499242E+02  0.00000000000E+00 0. -1.
<scales pt_clust_5="13000.00000" pt_clust_6="13000.00000" pt_clust_7="13000.00000" pt_clust_8="13000.00000" pt_clust_9="69.82281" pt_clust_10="35.59270"></scales>
<clustering>
<clus scale="   35.593">  2 10  1 -1</clus>
<clus scale="   69.823">  2  9  1 -1</clus>
<clus scale="   79.744">  5  6 -1 -1</clus>
<clus scale="   96.821">  7  8 -1 -1</clus>
<clus scale="  208.202">  1  5  2 -1</clus>
<clus scale="   35.593">  2  5  1 -1</clus>
</clustering>
</event>
<event>
10    4  0.5389768E-005  0.1615280E+03  0.7546771E-02  0.1188817E+00
          2   -1    0    0  503    0 -0.00000000000E+00  0.00000000000E+00  0.21524135977E+04  0.21524135977E+04  0.00000000000E+00 0. -1.
         21   -1    0    0  501  502  0.00000000000E+00 -0.00000000000E+00 -0.71608357937E+02  0.71608357937E+02  0.00000000000E+00 0. -1.
         24    2    1    2    0    0  0.43489535252E+02 -0.13029850069E+03  0.16188944294E+04  0.16266906985E+04  0.80214812053E+02 0.  0.
         23    2    1    2    0    0 -0.58220406538E+02  0.10096663692E+03  0.34660945724E+03  0.37708824931E+03  0.92051911511E+02 0.  0.
        -13    1    3    3    0    0  0.31925449103E+02 -0.19946985165E+02  0.20340245899E+03  0.20685665772E+03  0.00000000000E+00 0.  1.
         14    1    3    3    0    0  0.11564086149E+02 -0.11035151552E+03  0.14154919704E+04  0.14198340408E+04  0.00000000000E+00 0. -1.
        -11    1    4    4    0    0 -0.51758602669E+02  0.13359620762E+02  0.78641409900E+02  0.95088925582E+02  0.00000000000E+00 0.  1.
         11    1    4    4    0    0 -0.64618038683E+01  0.87607016160E+02  0.26796804734E+03  0.28199932373E+03  0.00000000000E+00 0. -1.
         21    1    1    2  503  502  0.49406784895E+02  0.62437677306E+02  0.14387144219E+03  0.16443383417E+03  0.00000000000E+00 0. -1.
          1    1    1    2  501    0 -0.34675913609E+02 -0.33105813542E+02 -0.28570089070E+02  0.55809173658E+02  0.00000000000E+00 0. -1.
<scales pt_clust_5="13000.00000" pt_clust_6="13000.00000" pt_clust_7="13000.00000" pt_clust_8="13000.00000" pt_clust_9="63.07111" pt_clust_10="47.94178"></scales>
<clustering>
<clus scale="   47.942">  2 10  1 -1</clus>
<clus scale="   63.071">  2  9  1 -1</clus>
<clus scale="   80.215">  5  6 -1 -1</clus>
<clus scale="   92.052">  7  8 -1 -1</clus>
<clus scale="  155.088">  1  5  2 -1</clus>
<clus scale="   47.942">  2  5  1 -1</clus>
</clustering>
</event>
<event>
10    4  0.5389768E-005  0.1761524E+03  0.7546771E-02  0.1176414E+00
         21   -1    0    0  501  502  0.00000000000E+00  0.00000000000E+00  0.26773422435E+03  0.26773422435E+03  0.00000000000E+00 0.  1.
         -1   -1    0    0    0  501 -0.00000000000E+00 -0.00000000000E+00 -0.49597417586E+03  0.49597417586E+03  0.00000000000E+00 0.  1.
         24    2    1    2    0    0 -0.19461681488E+02  0.15146135737E+03  0.13049876950E+03  0.21636353951E+03  0.80398709957E+02 0.  0.
         23    2    1    2    0    0  0.14965115336E+03  0.42477234974E+01 -0.91580252151E+02  0.19773386555E+03  0.91094610938E+02 0.  0.
        -13    1    3    3    0    0 -0.25894432310E+02  0.15981526976E+03  0.12448653079E+03  0.20422619426E+03  0.00000000000E+00 0.  1.
         14    1    3    3    0    0  0.64327508216E+01 -0.83539123886E+01  0.60122387150E+01  0.12137345249E+02  0.00000000000E+00 0. -1.
        -11    1    4    4    0    0  0.11863758426E+02  0.29610944346E+02 -0.31420754768E+01  0.32053540013E+02  0.00000000000E+00 0. -1.
         11    1    4    4    0    0  0.13778739494E+03 -0.25363220849E+02 -0.88438176674E+02  0.16568032553E+03  0.00000000000E+00 0.  1.
         21    1    1    2  503  502  0.26264914593E+01 -0.24791563089E+02 -0.14303091572E+01  0.24971300368E+02  0.00000000000E+00 0. -1.
         -2    1    1    2    0  503 -0.13281596333E+03 -0.13091751778E+03 -0.26572815970E+03  0.32463969479E+03  0.00000000000E+00 0.  1.
<scales pt_clust_5="13000.00000" pt_clust_6="13000.00000" pt_clust_7="13000.00000" pt_clust_8="13000.00000" pt_clust_9="24.93030" pt_clust_10="150.76958"></scales>
<clustering>
<clus scale="   24.930">  1  9  2 -1</clus>
<clus scale="   80.399">  5  6 -1 -1</clus>
<clus scale="   91.095">  7  8 -1 -1</clus>
<clus scale="  157.832">  2  5  1 -1</clus>
<clus scale="  150.770">  1 10  2 -1</clus>
<clus scale="   24.930">  1  5  2 -1</clus>
</clustering>
</event>
<event>
10    4  0.5389768E-005  0.9595882E+02  0.7546771E-02  0.1295805E+00
          2   -1    0    0  503    0 -0.00000000000E+00  0.00000000000E+00  0.73075407327E+03  0.73075407327E+03  0.00000000000E+00 0. -1.
         21   -1    0    0  501  502  0.00000000000E+00 -0.00000000000E+00 -0.36465354982E+02  0.36465354982E+02  0.00000000000E+00 0.  1.
         24    2    1    2    0    0  0.93586148968E+01 -0.27610936345E+01  0.30289385023E+03  0.31284259830E+03  0.77656934596E+02 0.  0.
         23    2    1    2    0    0 -0.24088490891E+02 -0.29719013194E+02  0.88336141604E+02  0.13173445126E+03  0.89928953054E+02 0.  0.
        -13    1    3    3    0    0  0.38865231438E+02 -0.20368905283E+02  0.16576473674E+03  0.17147404020E+03  0.00000000000E+00 0.  1.
         14    1    3    3    0    0 -0.29506616541E+02  0.17607811649E+02  0.13712911349E+03  0.14136855810E+03  0.00000000000E+00 0. -1.
        -11    1    4    4    0    0 -0.44933625673E+01  0.31950917330E+02  0.37322408783E+02  0.49335723596E+02  0.00000000000E+00 0. -1.
         11    1    4    4    0    0 -0.19595128323E+02 -0.61669930523E+02  0.51013732820E+02  0.82398727666E+02  0.00000000000E+00 0.  1.
         21    1    1    2  503  502  0.48848643112E+02  0.32324692251E+01  0.24157885786E+03  0.24648931692E+03  0.00000000000E+00 0.  1.
          1    1    1    2  501    0 -0.34118767118E+02  0.29247637603E+02  0.61479868600E+02  0.76153061778E+02  0.00000000000E+00 0. -1.
<scales pt_clust_5="13000.00000" pt_clust_6="13000.00000" pt_clust_7="13000.00000" pt_clust_8="13000.00000" pt_clust_9="46.32454" pt_clust_10="44.93901"></scales>
<clustering>
<clus scale="   44.939">  2 10  1 -1</clus>
<clus scale="   46.325">  1  9  2 -1</clus>
<clus scale="   77.657">  5  6 -1 -1</clus>
<clus scale="   84.566">  1  5  2 -1</clus>
<clus scale="   89.929">  7  8 -1 -1</clus>
<clus scale="   44.939">  2  5  1 -1</clus>
</clustering>
</event>
<event>
10    4  0.5389768E-005  0.1210831E+03  0.7546771E-02  0.1245331E+00
         -1   -1    0    0    0  501 -0.00000000000E+00  0.00000000000E+00  0.40409776170E+03  0.40409776170E+03  0.00000000000E+00 0.  1.
         21   -1    0    0  503  502  0.00000000000E+00 -0.00000000000E+00 -0.85461964987E+02  0.85461964987E+02  0.00000000000E+00 0.  1.
         23    2    1    2    0    0  0.21415581474E+01  0.87327569617E+02  0.95374508861E+02  0.15876055133E+03  0.92075648413E+02 0.  0.
         24    2    1    2    0    0 -0.34125811850E+02 -0.65433386150E+02  0.61020755623E+02  0.12431871702E+03  0.79281219256E+02 0.  0.
        -13    1    4    4    0    0  0.25087782874E+02 -0.30715069696E+02  0.21430726791E+02  0.45078691271E+02  0.00000000000E+00 0.  1.
         14    1    4    4    0    0 -0.59213594723E+02 -0.34718316454E+02  0.39590028833E+02  0.79240025747E+02  0.00000000000E+00 0. -1.
        -13    1    3    3    0    0  0.33814471844E+01  0.31202550445E+02  0.97656024342E+02  0.10257549624E+03  0.00000000000E+00 0. -1.
         13    1    3    3    0    0 -0.12398890370E+01  0.56125019172E+02 -0.22815154807E+01  0.56185055084E+02  0.00000000000E+00 0.  1.
         21    1    1    2  503  501  0.77974873375E+02 -0.72103423931E+01  0.11336507669E+03  0.13778138673E+03  0.00000000000E+00 0.  1.
         -2    1    1    2    0  502 -0.45990619673E+02 -0.14683841073E+02  0.48875455537E+02  0.68699071613E+02  0.00000000000E+00 0.  1.
<scales pt_clust_5="13000.00000" pt_clust_6="13000.00000" pt_clust_7="13000.00000" pt_clust_8="13000.00000" pt_clust_9="71.19119" pt_clust_10="48.27789"></scales>
<clustering>
<clus scale="   48.278">  2 10  1 -1</clus>
<clus scale="   71.191">  1  9  2 -1</clus>
<clus scale="   79.281">  5  6 -1 -1</clus>
<clus scale="   92.076">  7  8 -1 -1</clus>
<clus scale="  111.663">  2  5  1 -1</clus>
<clus scale="   48.278">  2  5  1 -1</clus>
</clustering>
</event>
<event>
10    4  0.5389768E-005  0.1180141E+03  0.7546771E-02  0.1248977E+00
         21   -1    0    0  503  502  0.00000000000E+00  0.00000000000E+00  0.54510437339E+03  0.54510437339E+03  0.00000000000E+00 0.  1.
         -1   -1    0    0    0  501 -0.00000000000E+00 -0.00000000000E+00 -0.37350761069E+03  0.37350761069E+03  0.00000000000E+00 0.  1.
         24    2    1    2    0    0  0.32850795664E+02  0.17521386691E+02 -0.29947833898E+03  0.31299961429E+03  0.83037998867E+02 0.  0.
         23    2    1    2    0    0 -0.33739905709E+02 -0.33097347363E+02  0.42935408201E+03  0.44140329839E+03  0.90874245280E+02 0.  0.
        -11    1    3    3    0    0  0.25008170968E+02 -0.27053004947E+02 -0.20446319661E+03  0.20775580006E+03  0.00000000000E+00 0.  1.
         12    1    3    3    0    0  0.78426246957E+01  0.44574391638E+02 -0.95015142374E+02  0.10524381422E+03  0.00000000000E+00 0. -1.
        -13    1    4    4    0    0 -0.41623261154E+02  0.19144499872E+02  0.14123231790E+03  0.14847752477E+03  0.00000000000E+00 0. -1.
         13    1    4    4    0    0  0.78833554447E+01 -0.52241847235E+02  0.28812176411E+03  0.29292577362E+03  0.00000000000E+00 0.  1.
         21    1    1    2  503  501  0.47348153919E+02 -0.29508014559E+02 -0.33413832071E+02  0.65031183108E+02  0.00000000000E+00 0.  1.
         -2    1    1    2    0  502 -0.46459043873E+02  0.45083975230E+02  0.75134851748E+02  0.99177888298E+02  0.00000000000E+00 0.  1.
<scales pt_clust_5="13000.00000" pt_clust_6="13000.00000" pt_clust_7="13000.00000" pt_clust_8="13000.00000" pt_clust_9="55.79042" pt_clust_10="62.71809"></scales>
<clustering>
<clus scale="   55.790">  2  9  1 -1</clus>
<clus scale="   62.718">  1 10  2 -1</clus>
<clus scale="   83.038">  5  6 -1 -1</clus>
<clus scale="   90.874">  7  8 -1 -1</clus>
<clus scale="  112.091">  2  5  1 -1</clus>
<clus scale="   62.718">  1  5  2 -1</clus>
</clustering>
</event>
<event>
10    4  0.5389768E-005  0.1553340E+03  0.7546771E-02  0.1196132E+00
         21   -1    0    0  503  502  0.00000000000E+00  0.00000000000E+00  0.47355913443E+03  0.47355913443E+03  0.00000000000E+00 0.  1.
         -1   -1    0    0    0  501 -0.00000000000E+00 -0.00000000000E+00 -0.27378711073E+03  0.27378711073E+03  0.00000000000E+00 0.  1.
         23    2    1    2    0    0 -0.29152668794E+02  0.95183132800E+02 -0.16536151739E+03  0.21408971335E+03  0.92629730974E+02 0.  0.
         24    2    1    2    0    0  0.65931928784E+02 -0.47496268914E+02  0.16280185713E+03  0.19900199975E+03  0.80588066285E+02 0.  0.
        -11    1    4    4    0    0  0.31269225218E+02 -0.15251444036E+02  0.14386758868E+03  0.14801437114E+03  0.00000000000E+00 0.  1.
         12    1    4    4    0    0  0.34662703566E+02 -0.32244824878E+02  0.18934268444E+02  0.50987628612E+02  0.00000000000E+00 0. -1.
        -11    1    3    3    0    0 -0.54069621946E+02  0.45851733264E+02 -0.13116721211E+03  0.14909977529E+03  0.00000000000E+00 0.  1.
         11    1    3    3    0    0  0.24916953152E+02  0.49331399536E+02 -0.34194305286E+02  0.64989938056E+02  0.00000000000E+00 0. -1.
         21    1    1    2  503  501 -0.23772264747E+02  0.41068375243E+02 -0.48507654270E+02  0.67858120657E+02  0.00000000000E+00 0. -1.
         -2    1    1    2    0  502 -0.13006995243E+02 -0.88755239129E+02  0.25083933824E+03  0.26639641140E+03  0.00000000000E+00 0.  1.
<scales pt_clust_5="13000.00000" pt_clust_6="13000.00000" pt_clust_7="13000.00000" pt_clust_8="13000.00000" pt_clust_9="47.45242" pt_clust_10="88.36802"></scales>
<clustering>
<clus scale="   47.452">  2  9  1 -1</clus>
<clus scale="   80.588">  5  6 -1 -1</clus>
<clus scale="   88.368">  1 10  2 -1</clus>
<clus scale="   92.630">  7  8 -1 -1</clus>
<clus scale="  148.468">  1  5  2 -1</clus>
<clus scale="   88.368">  1  5  2 -1</clus>
</clustering>
</event>
<event>
10    4  0.5389768E-005  0.1032900E+03  0.7546771E-02  0.1278741E+00
          2   -1    0    0  503    0 -0.00000000000E+00  0.00000000000E+00  0.24321457088E+03  0.24321457088E+03  0.00000000000E+00 0. -1.
         21   -1    0    0  501  502  0.00000000000E+00 -0.00000000000E+00 -0.20679476363E+03  0.20679476363E+03  0.00000000000E+00 0.  1.
         24    2    1    2    0    0 -0.50714584207E+02  0.23418498015E+02  0.81942987003E+02  0.12733999746E+03  0.79877573403E+02 0.  0.
         23    2    1    2    0    0  0.16991143611E+02 -0.40064922160E+01 -0.53068930295E+02  0.10692558344E+03  0.91170269769E+02 0.  0.
        -13    1    3    3    0    0 -0.31123557515E+02  0.36850836504E+02  0.70223529901E+01  0.48743957830E+02  0.00000000000E+00 0.  1.
         14    1    3    3    0    0 -0.19591026692E+02 -0.13432338489E+02  0.74920634012E+02  0.78596039626E+02  0.00000000000E+00 0. -1.
        -11    1    4    4    0    0 -0.29482918416E+02  0.11033020507E+02  0.40829864498E+01  0.31743358332E+02  0.00000000000E+00 0.  1.
         11    1    4    4    0    0  0.46474062027E+02 -0.15039512723E+02 -0.57151916745E+02  0.75182225106E+02  0.00000000000E+00 0. -1.
         21    1    1    2  503  502 -0.92512373999E+01 -0.19059426096E+02  0.10611702601E+03  0.10821123013E+03  0.00000000000E+00 0. -1.
          1    1    1    2  501    0  0.42974677995E+02 -0.35257970305E+00 -0.98571275471E+02  0.10753252350E+03  0.00000000000E+00 0. -1.
<scales pt_clust_5="13000.00000" pt_clust_6="13000.00000" pt_clust_7="13000.00000" pt_clust_8="13000.00000" pt_clust_9="21.18601" pt_clust_10="42.68126"></scales>
<clustering>
<clus scale="   21.186">  1  9  2 -1</clus>
<clus scale="   42.681">  2 10  1 -1</clus>
<clus scale="   79.878">  5  6 -1 -1</clus>
<clus scale="   91.170">  7  8 -1 -1</clus>
<clus scale="   93.473">  1  5  2 -1</clus>
<clus scale="   42.681">  2  5  1 -1</clus>
</clustering>
</event>
<event>
10    4  0.5389768E-005  0.1052096E+03  0.7546771E-02  0.1276174E+00
         21   -1    0    0  501  502  0.00000000000E+00  0.00000000000E+00  0.50510190264E+02  0.50510190264E+02  0.00000000000E+00 0. -1.
         -1   -1    0    0    0  501 -0.00000000000E+00 -0.00000000000E+00 -0.73687063467E+03  0.73687063467E+03  0.00000000000E+00 0.  1.
         24    2    1    2    0    0  0.10280591880E+02  0.50818672242E+02 -0.37346365726E+03  0.38585165332E+03  0.81964425545E+02 0.  0.
         23    2    1    2    0    0  0.19314849980E+02  0.27475979840E+01 -0.25058546262E+02  0.10082652093E+03  0.95694534103E+02 0.  0.
        -13    1    3    3    0    0 -0.26429367156E+02  0.60679703221E+01 -0.46707249843E+02  0.54008322507E+02  0.00000000000E+00 0.  1.
         14    1    3    3    0    0  0.36709959035E+02  0.44750701920E+02 -0.32675640742E+03  0.33184333081E+03  0.00000000000E+00 0. -1.
        -13    1    4    4    0    0  0.55562601790E+02  0.16846678196E+02 -0.90234357961E+01  0.58757430828E+02  0.00000000000E+00 0. -1.
         13    1    4    4    0    0 -0.36247751811E+02 -0.14099080212E+02 -0.16035110466E+02  0.42069090100E+02  0.00000000000E+00 0.  1.
         21    1    1    2  503  502 -0.19191481804E+02 -0.21548858232E+02 -0.33794503095E+02  0.44437987177E+02  0.00000000000E+00 0. -1.
         -2    1    1    2    0  503 -0.10403960055E+02 -0.32017411995E+02 -0.25404373778E+03  0.25626466351E+03  0.00000000000E+00 0.  1.
<scales pt_clust_5="13000.00000" pt_clust_6="13000.00000" pt_clust_7="13000.00000" pt_clust_8="13000.00000" pt_clust_9="28.85596" pt_clust_10="34.31594"></scales>
<clustering>
<clus scale="   28.856">  1  9  2 -1</clus>
<clus scale="   34.316">  1 10  2 -1</clus>
<clus scale="   81.964">  5  6 -1 -1</clus>
<clus scale="   92.897">  2  5  1 -1</clus>
<clus scale="   95.695">  7  8 -1 -1</clus>
<clus scale="   28.856">  1  5  2 -1</clus>
</clustering>
</event>
<event>
10    4  0.5389768E-005  0.1126400E+03  0.7546771E-02  0.1262646E+00
         21   -1    0    0  501  502  0.00000000000E+00  0.00000000000E+00  0.10696968844E+03  0.10696968844E+03  0.00000000000E+00 0.  1.
          2   -1    0    0  503    0 -0.00000000000E+00 -0.00000000000E+00 -0.26467768923E+03  0.26467768923E+03  0.00000000000E+00 0. -1.
         24    2    1    2    0    0 -0.77248248880E+02 -0.38662264592E+02 -0.54788475183E+02  0.12495515416E+03  0.71763158238E+02 0.  0.
         23    2    1    2    0    0  0.25416454293E+02  0.34838020432E+02  0.20219794105E+02  0.10213488994E+03  0.90349387678E+02 0.  0.
        -13    1    3    3    0    0 -0.36825586380E+02 -0.43471964967E+02 -0.34315752003E+00  0.56974145956E+02  0.00000000000E+00 0.  1.
         14    1    3    3    0    0 -0.40422662500E+02  0.48097003748E+01 -0.54445317663E+02  0.67981008206E+02  0.00000000000E+00 0. -1.
        -11    1    4    4    0    0 -0.20453451137E+01  0.59545234840E+02  0.25520622765E+02  0.64816052141E+02  0.00000000000E+00 0.  1.
         11    1    4    4    0    0  0.27461799407E+02 -0.24707214408E+02 -0.53008286604E+01  0.37318837803E+02  0.00000000000E+00 0. -1.
         21    1    1    2  503  502  0.29804577923E+01  0.22485469404E+02 -0.28427719345E+02  0.36367769937E+02  0.00000000000E+00 0. -1.
          1    1    1    2  501    0  0.48851336794E+02 -0.18661225244E+02 -0.94711600362E+02  0.10818956362E+03  0.00000000000E+00 0. -1.
<scales pt_clust_5="13000.00000" pt_clust_6="13000.00000" pt_clust_7="13000.00000" pt_clust_8="13000.00000" pt_clust_9="22.68214" pt_clust_10="50.92630"></scales>
<clustering>
<clus scale="   22.682">  2  9  1 -1</clus>
<clus scale="   50.926">  1 10  2 -1</clus>
<clus scale="   71.763">  5  6 -1 -1</clus>
<clus scale="   90.349">  7  8 -1 -1</clus>
<clus scale="   98.360">  2  5  1 -1</clus>
<clus scale="   50.926">  1  5  2 -1</clus>
</clustering>
</event>
<event>
10    4  0.5389768E-005  0.1084795E+03  0.7546771E-02  0.1268765E+00
         21   -1    0    0  501  502  0.00000000000E+00  0.00000000000E+00  0.23956029211E+03  0.23956029211E+03  0.00000000000E+00 0. -1.
          2   -1    0    0  503    0 -0.00000000000E+00 -0.00000000000E+00 -0.22655149022E+03  0.22655149022E+03  0.00000000000E+00 0. -1.
         23    2    1    2    0    0  0.94682093153E+02 -0.27852094473E+02 -0.29974181568E+02  0.13694123171E+03  0.90077807760E+02 0.  0.
         24    2    1    2    0    0 -0.55957492550E+02  0.10574061457E+02  0.42809832833E+01  0.95719319958E+02  0.76816727652E+02 0.  0.
        -13    1    4    4    0    0 -0.27207883272E+02  0.43832290099E+02  0.46625178818E+00  0.51592208309E+02  0.00000000000E+00 0.  1.
         14    1    4    4    0    0 -0.28749609279E+02 -0.33258228643E+02  0.38147314951E+01  0.44127111649E+02  0.00000000000E+00 0. -1.
        -13    1    3    3    0    0  0.22162517848E+02 -0.84778142442E+01 -0.53295215389E+02  0.58338927956E+02  0.00000000000E+00 0. -1.
         13    1    3    3    0    0  0.72519575305E+02 -0.19374280229E+02  0.23321033820E+02  0.78602303753E+02  0.00000000000E+00 0.  1.
         21    1    1    2  503  502 -0.86024193090E+02  0.28694227101E+02 -0.69867349840E+02  0.11447692798E+03  0.00000000000E+00 0.  1.
          1    1    1    2  501    0  0.47299592487E+02 -0.11416194084E+02  0.10856935001E+03  0.11897430268E+03  0.00000000000E+00 0. -1.
<scales pt_clust_5="13000.00000" pt_clust_6="13000.00000" pt_clust_7="13000.00000" pt_clust_8="13000.00000" pt_clust_9="82.09016" pt_clust_10="48.65779"></scales>
<clustering>
<clus scale="   48.658">  1 10  2 -1</clus>
<clus scale="   76.817">  5  6 -1 -1</clus>
<clus scale="   82.090">  2  9  1 -1</clus>
<clus scale="   90.078">  7  8 -1 -1</clus>
<clus scale="   97.748">  1  5  2 -1</clus>
<clus scale="   48.658">  1  5  2 -1</clus>
</clustering>
</event>
<event>
10    4  0.5389768E-005  0.1112830E+03  0.7546771E-02  0.1263612E+00
          2   -1    0    0  503    0 -0.00000000000E+00  0.00000000000E+00  0.55570976517E+03  0.55570976517E+03  0.00000000000E+00 0. -1.
         21   -1    0    0  501  502  0.00000000000E+00 -0.00000000000E+00 -0.13082190621E+03  0.13082190621E+03  0.00000000000E+00 0.  1.
         24    2    1    2    0    0  0.51218364605E+01  0.73699172261E+02  0.42807729074E+03  0.44148488639E+03  0.78746027562E+02 0.  0.
         23    2    1    2    0    0 -0.25710699357E+02 -0.83988423047E+02 -0.60402390253E+02  0.14117188243E+03  0.92552452010E+02 0.  0.
        -13    1    3    3    0    0  0.13163118119E+02  0.37262117360E+02  0.62084917655E+02  0.73595312820E+02  0.00000000000E+00 0.  1.
         14    1    3    3    0    0 -0.80412816585E+01  0.36437054902E+02  0.36599237309E+03  0.36788957357E+03  0.00000000000E+00 0. -1.
        -13    1    4    4    0    0  0.55973229394E+01 -0.31777979907E+02 -0.72271612687E+02  0.79147684941E+02  0.00000000000E+00 0.  1.
         13    1    4    4    0    0 -0.31308022296E+02 -0.52210443140E+02  0.11869222434E+02  0.62024197489E+02  0.00000000000E+00 0. -1.
         21    1    1    2  503  502  0.24761121730E+02 -0.23715568368E+02  0.60414845772E+02  0.69465782383E+02  0.00000000000E+00 0. -1.
          1    1    1    2  501    0 -0.41722588342E+01  0.34004819154E+02 -0.32018873002E+01  0.34409120183E+02  0.00000000000E+00 0. -1.
<scales pt_clust_5="13000.00000" pt_clust_6="13000.00000" pt_clust_7="13000.00000" pt_clust_8="13000.00000" pt_clust_9="33.22573" pt_clust_10="34.25982"></scales>
<clustering>
<clus scale="   34.260">  2 10  1 -1</clus>
<clus scale="   33.226">  1  9  2 -1</clus>
<clus scale="   78.746">  5  6 -1 -1</clus>
<clus scale="   92.552">  7  8 -1 -1</clus>
<clus scale="  100.094">  1  5  2 -1</clus>
<clus scale="   34.260">  2  5  1 -1</clus>
</clustering>
</event>
<event>
10    4  0.5389768E-005  0.1870284E+03  0.7546771E-02  0.1162782E+00
         21   -1    0    0  503  502  0.00000000000E+00  0.00000000000E+00  0.87893739029E+03  0.87893739029E+03  0.00000000000E+00 0. -1.
         -1   -1    0    0    0  501 -0.00000000000E+00 -0.00000000000E+00 -0.65304140175E+02  0.65304140175E+02  0.00000000000E+00 0.  1.
         23    2    1    2    0    0  0.68852426875E+02  0.15535662159E+03  0.18249883366E+03  0.26497487123E+03  0.89607597537E+02 0.  0.
         24    2    1    2    0    0 -0.69771399795E+02 -0.16165539062E+03  0.48559010486E+03  0.52182996744E+03  0.74217595184E+02 0.  0.
        -11    1    4    4    0    0 -0.23323451891E+01 -0.50959782945E+02  0.70837501802E+02  0.87294278011E+02  0.00000000000E+00 0.  1.
         12    1    4    4    0    0 -0.67439054606E+02 -0.11069560768E+03  0.41475260305E+03  0.43453568943E+03  0.00000000000E+00 0. -1.
        -11    1    3    3    0    0  0.18450157938E+02  0.13201014360E+03  0.10529483433E+03  0.16986491244E+03  0.00000000000E+00 0.  1.
         11    1    3    3    0    0  0.50402268937E+02  0.23346477992E+02  0.77203999323E+02  0.95109958785E+02  0.00000000000E+00 0. -1.
         21    1    1    2  503  501 -0.19862248412E+02 -0.12534736558E+02  0.27775652481E+02  0.36374653309E+02  0.00000000000E+00 0.  1.
         -2    1    1    2    0  502  0.20781221332E+02  0.18833505587E+02  0.11776865912E+03  0.12106203849E+03  0.00000000000E+00 0.  1.
<scales pt_clust_5="13000.00000" pt_clust_6="13000.00000" pt_clust_7="13000.00000" pt_clust_8="13000.00000" pt_clust_9="23.48677" pt_clust_10="27.42142"></scales>
<clustering>
<clus scale="   23.487">  2  9  1 -1</clus>
<clus scale="   27.421">  1 10  2 -1</clus>
<clus scale="   74.218">  5  6 -1 -1</clus>
<clus scale="   89.608">  7  8 -1 -1</clus>
<clus scale="  180.162">  1  5  2 -1</clus>
<clus scale="   27.421">  1  5  2 -1</clus>
</clustering>
</event>
<event>
10    4  0.5389768E-005  0.1252657E+03  0.7546771E-02  0.1237509E+00
         -1   -1    0    0    0  501 -0.00000000000E+00  0.00000000000E+00  0.68829785297E+02  0.68829785297E+02  0.00000000000E+00 0.  1.
         21   -1    0    0  503  502  0.00000000000E+00 -0.00000000000E+00 -0.64214388359E+03  0.64214388359E+03  0.00000000000E+00 0.  1.
         24    2    1    2    0    0 -0.90701036493E+01  0.10668013978E+03 -0.10560091943E+03  0.17087380954E+03  0.81138065033E+02 0.  0.
         23    2    1    2    0    0 -0.51908810922E+02 -0.58715105946E+02 -0.34670428772E+03  0.36695757224E+03  0.91170216541E+02 0.  0.
        -11    1    3    3    0    0 -0.36160489947E+02  0.76256044581E+02 -0.39391284929E+02  0.93135593071E+02  0.00000000000E+00 0.  1.
         12    1    3    3    0    0  0.27090386297E+02  0.30424095198E+02 -0.66209634502E+02  0.77738216465E+02  0.00000000000E+00 0. -1.
        -11    1    4    4    0    0  0.25922164956E+02 -0.73257994579E+01 -0.74838664629E+02  0.79538994821E+02  0.00000000000E+00 0. -1.
         11    1    4    4    0    0 -0.77830975878E+02 -0.51389306488E+02 -0.27186562309E+03  0.28741857742E+03  0.00000000000E+00 0.  1.
         21    1    1    2  503  501  0.13578983594E+01 -0.20885070623E+02  0.12543450421E+02  0.24400168264E+02  0.00000000000E+00 0.  1.
         -2    1    1    2    0  502  0.59621016212E+02 -0.27079963210E+02 -0.13355234157E+03  0.14874211885E+03  0.00000000000E+00 0.  1.
<scales pt_clust_5="13000.00000" pt_clust_6="13000.00000" pt_clust_7="13000.00000" pt_clust_8="13000.00000" pt_clust_9="20.92917" pt_clust_10="67.02961"></scales>
<clustering>
<clus scale="   20.929">  1  9  2 -1</clus>
<clus scale="   67.030">  2 10  1 -1</clus>
<clus scale="   81.138">  5  6 -1 -1</clus>
<clus scale="   91.170">  7  8 -1 -1</clus>
<clus scale="  118.165">  1  5  2 -1</clus>
<clus scale="   67.030">  2  5  1 -1</clus>
</clustering>
</event>
<event>
10    4  0.5412621E-005  0.3604568E+03  0.7546771E-02  0.1073726E+00
          2   -1    0    0  503    0 -0.00000000000E+00  0.00000000000E+00  0.16536974069E+04  0.16536974069E+04  0.00000000000E+00 0. -1.
         21   -1    0    0  501  502  0.00000000000E+00 -0.00000000000E+00 -0.26459159631E+03  0.26459159631E+03  0.00000000000E+00 0. -1.
         23    2    1    2    0    0  0.33353451328E+02 -0.20964307759E+03  0.12634019605E+03  0.26355448649E+03  0.91850147081E+02 0.  0.
         24    2    1    2    0    0 -0.12032693388E+03  0.54348473457E+03  0.91775909891E+03  0.10764911774E+04  0.81836810861E+02 0.  0.
        -11    1    4    4    0    0 -0.34809413009E+02  0.46491543882E+02  0.10494243315E+03  0.11994195747E+03  0.00000000000E+00 0.  1.
         12    1    4    4    0    0 -0.85517520876E+02  0.49699319069E+03  0.81281666576E+03  0.95654921990E+03  0.00000000000E+00 0. -1.
        -11    1    3    3    0    0 -0.11710040318E+02 -0.96160402144E+02  0.98835912200E+02  0.13839250531E+03  0.00000000000E+00 0. -1.
         11    1    3    3    0    0  0.45063491646E+02 -0.11348267544E+03  0.27504283848E+02  0.12516198119E+03  0.00000000000E+00 0.  1.
         21    1    1    2  503  502  0.11406877755E+02 -0.34711624954E+02  0.25394242503E+03  0.25655753545E+03  0.00000000000E+00 0. -1.
          1    1    1    2  501    0  0.75566604801E+02 -0.29913003203E+03  0.91064090604E+02  0.32168580388E+03  0.00000000000E+00 0. -1.
<scales pt_clust_5="13000.00000" pt_clust_6="13000.00000" pt_clust_7="13000.00000" pt_clust_8="13000.00000" pt_clust_9="36.53784" pt_clust_10="351.04398"></scales>
<clustering>
<clus scale="   36.538">  1  9  2 -1</clus>
<clus scale="   81.837">  5  6 -1 -1</clus>
<clus scale="   91.850">  7  8 -1 -1</clus>
<clus scale="  235.924">  1  7  2 -1</clus>
<clus scale="  351.044">  2 10  1 -1</clus>
<clus scale="  351.044">  2  5  1 -1</clus>
</clustering>
</event>
<event>
10    4  0.5389768E-005  0.1319201E+03  0.7546771E-02  0.1227837E+00
          2   -1    0    0  503    0 -0.00000000000E+00  0.00000000000E+00  0.19610639183E+03  0.19610639183E+03  0.00000000000E+00 0. -1.
         21   -1    0    0  501  502  0.00000000000E+00 -0.00000000000E+00 -0.26963701964E+03  0.26963701964E+03  0.00000000000E+00 0. -1.
         24    2    1    2    0    0 -0.10425257144E+03 -0.31910602071E+01  0.11121235875E+03  0.17237543180E+03  0.80413426946E+02 0.  0.
         23    2    1    2    0    0  0.89476962333E+02  0.37883162657E+01 -0.10369339606E+03  0.16555385788E+03  0.92926214520E+02 0.  0.
        -11    1    3    3    0    0 -0.29867749072E+02  0.36662481176E+02  0.41513229308E+02  0.62925099668E+02  0.00000000000E+00 0.  1.
         12    1    3    3    0    0 -0.74384822366E+02 -0.39853541383E+02  0.69699129444E+02  0.10945033214E+03  0.00000000000E+00 0. -1.
        -11    1    4    4    0    0  0.10497506371E+03  0.19739758604E+02 -0.85492213161E+02  0.13681498668E+03  0.00000000000E+00 0.  1.
         11    1    4    4    0    0 -0.15498101374E+02 -0.15951442339E+02 -0.18201182900E+02  0.28738871200E+02  0.00000000000E+00 0. -1.
         21    1    1    2  503  502  0.13472335066E+02  0.22898709640E+02  0.13905235773E+02  0.29986835399E+02  0.00000000000E+00 0.  1.
          1    1    1    2  501    0  0.13032740387E+01 -0.23495965699E+02 -0.94954826281E+02  0.97827286385E+02  0.00000000000E+00 0. -1.
<scales pt_clust_5="13000.00000" pt_clust_6="13000.00000" pt_clust_7="13000.00000" pt_clust_8="13000.00000" pt_clust_9="25.66583" pt_clust_10="23.53208"></scales>
<clustering>
<clus scale="   23.532">  2 10  1 -1</clus>
<clus scale="   25.666">  1  9  2 -1</clus>
<clus scale="   80.413">  5  6 -1 -1</clus>
<clus scale="   92.926">  7  8 -1 -1</clus>
<clus scale="  123.426">  1  5  2 -1</clus>
<clus scale="   23.532">  2  5  1 -1</clus>
</clustering>
</event>
<event>
10    4  0.5389768E-005  0.1040097E+03  0.7546771E-02  0.1275297E+00
         21   -1    0    0  501  502  0.00000000000E+00  0.00000000000E+00  0.35264602886E+02  0.35264602886E+02  0.00000000000E+00 0.  1.
          2   -1    0    0  503    0 -0.00000000000E+00 -0.00000000000E+00 -0.61904230604E+03  0.61904230604E+03  0.00000000000E+00 0. -1.
         23    2    1    2    0    0 -0.69426096616E+01  0.52564015549E+02 -0.26181023409E+03  0.28130259679E+03  0.88178096645E+02 0.  0.
         24    2    1    2    0    0 -0.80875360138E+01 -0.42913015927E+02 -0.75890656112E+02  0.11909677405E+03  0.80732364817E+02 0.  0.
        -13    1    4    4    0    0  0.11211152294E+02  0.21517172020E+02 -0.16228112452E+02  0.29189557401E+02  0.00000000000E+00 0.  1.
         14    1    4    4    0    0 -0.19298688308E+02 -0.64430187948E+02 -0.59662543660E+02  0.89907216648E+02  0.00000000000E+00 0. -1.
        -13    1    3    3    0    0 -0.33622395838E+02  0.26020970291E+02 -0.22383897195E+03  0.22784082549E+03  0.00000000000E+00 0.  1.
         13    1    3    3    0    0  0.26679786177E+02  0.26543045258E+02 -0.37971262136E+02  0.53461771297E+02  0.00000000000E+00 0. -1.
         21    1    1    2  503  502 -0.81864865071E+01  0.21605695323E+02 -0.10814768006E+03  0.11058817899E+03  0.00000000000E+00 0. -1.
          1    1    1    2  501    0  0.23216632182E+02 -0.31256694945E+02 -0.13792913290E+03  0.14331935909E+03  0.00000000000E+00 0. -1.
<scales pt_clust_5="13000.00000" pt_clust_6="13000.00000" pt_clust_7="13000.00000" pt_clust_8="13000.00000" pt_clust_9="23.10465" pt_clust_10="32.84959"></scales>
<clustering>
<clus scale="   23.105">  2  9  1 -1</clus>
<clus scale="   32.850">  1 10  2 -1</clus>
<clus scale="   80.732">  5  6 -1 -1</clus>
<clus scale="   88.178">  7  8 -1 -1</clus>
<clus scale="   97.777">  1  5  2 -1</clus>
<clus scale="   32.850">  1  5  2 -1</clus>
</clustering>
</event>
<event>
10    4  0.5389768E-005  0.1859801E+03  0.7546771E-02  0.1188348E+00
         -1   -1    0    0    0  501 -0.00000000000E+00  0.00000000000E+00  0.98854980175E+02  0.98854980175E+02  0.00000000000E+00 0.  1.
         21   -1    0    0  503  502  0.00000000000E+00 -0.00000000000E+00 -0.72836602315E+03  0.72836602315E+03  0.00000000000E+00 0.  1.
         24    2    1    2    0    0 -0.12330848085E+02  0.59772969479E+02 -0.74954777471E+02  0.12540387583E+03  0.79894028015E+02 0.  0.
         23    2    1    2    0    0 -0.27831818261E+02 -0.21118302990E+03 -0.31933337855E+03  0.39432096909E+03  0.90234903338E+02 0.  0.
        -11    1    3    3    0    0 -0.28100451733E+02  0.97605609735E+01  0.46200401483E+01  0.30103965006E+02  0.00000000000E+00 0.  1.
         12    1    3    3    0    0  0.15769603648E+02  0.50012408506E+02 -0.79574817619E+02  0.95299910823E+02  0.00000000000E+00 0. -1.
        -13    1    4    4    0    0 -0.23164423443E+02 -0.94950427677E+02 -0.22230394739E+03  0.24283990458E+03  0.00000000000E+00 0.  1.
         13    1    4    4    0    0 -0.46673948175E+01 -0.11623260222E+03 -0.97029431158E+02  0.15148106451E+03  0.00000000000E+00 0. -1.
         21    1    1    2  503  501  0.22729593994E+02  0.14417611923E+02  0.77590562532E+01  0.28012585219E+02  0.00000000000E+00 0.  1.
         -2    1    1    2    0  502  0.17433072351E+02  0.13699244850E+03 -0.24298194321E+03  0.27948357319E+03  0.00000000000E+00 0.  1.
<scales pt_clust_5="13000.00000" pt_clust_6="13000.00000" pt_clust_7="13000.00000" pt_clust_8="13000.00000" pt_clust_9="26.91657" pt_clust_10="162.62302"></scales>
<clustering>
<clus scale="   26.917">  1  9  2 -1</clus>
<clus scale="   79.894">  5  6 -1 -1</clus>
<clus scale="   90.235">  7  8 -1 -1</clus>
<clus scale="  102.667">  1  5  2 -1</clus>
<clus scale="  162.623">  2 10  1 -1</clus>
<clus scale="  162.623">  2  5  1 -1</clus>
</clustering>
</event>
<event>
10    4  0.5389768E-005  0.1910110E+03  0.7546771E-02  0.1158126E+00
         21   -1    0    0  501  502  0.00000000000E+00  0.00000000000E+00  0.53879555748E+02  0.53879555748E+02  0.00000000000E+00 0. -1.
          2   -1    0    0  503    0 -0.00000000000E+00 -0.00000000000E+00 -0.11586842105E+04  0.11586842105E+04  0.00000000000E+00 0. -1.
         24    2    1    2    0    0  0.14753121033E+03  0.79852382347E+02 -0.77233399573E+03  0.79484306165E+03  0.84462007434E+02 0.  0.
         23    2    1    2    0    0 -0.11277468791E+03 -0.81767247924E+02 -0.16051552462E+03  0.23079900478E+03  0.89994077004E+02 0.  0.
        -13    1    3    3    0    0  0.28334420035E+02  0.15705344417E+02 -0.47611757505E+02  0.57587990542E+02  0.00000000000E+00 0.  1.
         14    1    3    3    0    0  0.11919679030E+03  0.64147037930E+02 -0.72472223822E+03  0.73725507110E+03  0.00000000000E+00 0. -1.
        -13    1    4    4    0    0 -0.61624894733E+02 -0.24915282877E+02 -0.17684776359E+02  0.68783357628E+02  0.00000000000E+00 0. -1.
         13    1    4    4    0    0 -0.51149793172E+02 -0.56851965047E+02 -0.14283074827E+03  0.16201564715E+03  0.00000000000E+00 0.  1.
         21    1    1    2  503  502  0.16675387582E+02  0.11655670495E+02 -0.59450194652E+02  0.62835092503E+02  0.00000000000E+00 0. -1.
          1    1    1    2  501    0 -0.51431910011E+02 -0.97408049180E+01 -0.11250493970E+03  0.12408660727E+03  0.00000000000E+00 0. -1.
<scales pt_clust_5="13000.00000" pt_clust_6="13000.00000" pt_clust_7="13000.00000" pt_clust_8="13000.00000" pt_clust_9="20.34510" pt_clust_10="50.35457"></scales>
<clustering>
<clus scale="   20.345">  2  9  1 -1</clus>
<clus scale="   50.355">  1 10  2 -1</clus>
<clus scale="   84.462">  5  6 -1 -1</clus>
<clus scale="   89.994">  7  8 -1 -1</clus>
<clus scale="  188.468">  2  5  1 -1</clus>
<clus scale="   50.355">  1  5  2 -1</clus>
</clustering>
</event>
<event>
10    4  0.5389768E-005  0.1063097E+03  0.7546771E-02  0.1273249E+00
         21   -1    0    0  503  502  0.00000000000E+00  0.00000000000E+00  0.15360700096E+03  0.15360700096E+03  0.00000000000E+00 0. -1.
         -1   -1    0    0    0  501 -0.00000000000E+00 -0.00000000000E+00 -0.19067147940E+03  0.19067147940E+03  0.00000000000E+00 0.  1.
         23    2    1    2    0    0  0.34670122468E+02  0.77017487071E+02 -0.46952216210E+02  0.13467836257E+03  0.93808528562E+02 0.  0.
         24    2    1    2    0    0 -0.15983139390E+02 -0.24109016954E+02  0.20001944344E+02  0.88350841578E+02  0.81049910467E+02 0.  0.
        -11    1    4    4    0    0 -0.23112737968E+02  0.12383398216E+02 -0.20563564267E+02  0.33322775741E+02  0.00000000000E+00 0.  1.
         12    1    4    4    0    0  0.71295985786E+01 -0.36492415170E+02  0.40565508611E+02  0.55028065836E+02  0.00000000000E+00 0. -1.
        -13    1    3    3    0    0 -0.40339582150E+01  0.81022611903E+02 -0.50578896039E+02  0.95598960157E+02  0.00000000000E+00 0.  1.
         13    1    3    3    0    0  0.38704080683E+02 -0.40051248322E+01  0.36266798293E+01  0.39079402414E+02  0.00000000000E+00 0. -1.
         21    1    1    2  503  501 -0.47304921701E+02 -0.23949701183E+02 -0.43511639133E+02  0.68590134451E+02  0.00000000000E+00 0. -1.
         -2    1    1    2    0  502  0.28617938623E+02 -0.28958768934E+02  0.33397432561E+02  0.52659141760E+02  0.00000000000E+00 0.  1.
<scales pt_clust_5="13000.00000" pt_clust_6="13000.00000" pt_clust_7="13000.00000" pt_clust_8="13000.00000" pt_clust_9="51.79697" pt_clust_10="40.71359"></scales>
<clustering>
<clus scale="   40.714">  1 10  2 -1</clus>
<clus scale="   51.797">  2  9  1 -1</clus>
<clus scale="   81.050">  5  6 -1 -1</clus>
<clus scale="   93.809">  7  8 -1 -1</clus>
<clus scale="   95.241">  1  5  2 -1</clus>
<clus scale="   40.714">  1  5  2 -1</clus>
</clustering>
</event>
<event>
10    4  0.5389768E-005  0.9588958E+02  0.7546771E-02  0.1297345E+00
         21   -1    0    0  501  502  0.00000000000E+00  0.00000000000E+00  0.10328790054E+03  0.10328790054E+03  0.00000000000E+00 0. -1.
          2   -1    0    0  503    0 -0.00000000000E+00 -0.00000000000E+00 -0.58605798931E+03  0.58605798931E+03  0.00000000000E+00 0. -1.
         24    2    1    2    0    0 -0.28445646027E+02 -0.27812544527E+02 -0.34997548631E+03  0.36080465822E+03  0.78195063532E+02 0.  0.
         23    2    1    2    0    0  0.65012983636E+02 -0.18466881659E+02 -0.10742782758E+03  0.15695155566E+03  0.92332761941E+02 0.  0.
        -13    1    3    3    0    0 -0.47704234212E+02 -0.36698078671E+01 -0.12723643877E+03  0.13593481085E+03  0.00000000000E+00 0.  1.
         14    1    3    3    0    0  0.19258588185E+02 -0.24142736660E+02 -0.22273904754E+03  0.22486984736E+03  0.00000000000E+00 0. -1.
        -13    1    4    4    0    0  0.28612510412E+02 -0.41772041854E+02 -0.10136465791E+03  0.11330654485E+03  0.00000000000E+00 0. -1.
         13    1    4    4    0    0  0.36400473224E+02  0.23305160195E+02 -0.60631696706E+01  0.43645010816E+02  0.00000000000E+00 0.  1.
         21    1    1    2  503  502  0.38036272374E+02  0.45310958061E+02 -0.64348234592E+02  0.87410160918E+02  0.00000000000E+00 0.  1.
          1    1    1    2  501    0 -0.74603609983E+02  0.96846812538E+00  0.38981459715E+02  0.84179515053E+02  0.00000000000E+00 0. -1.
<scales pt_clust_5="13000.00000" pt_clust_6="13000.00000" pt_clust_7="13000.00000" pt_clust_8="13000.00000" pt_clust_9="59.15945" pt_clust_10="72.97943"></scales>
<clustering>
<clus scale="   59.159">  2  9  1 -1</clus>
<clus scale="   72.979">  1 10  2 -1</clus>
<clus scale="   78.195">  5  6 -1 -1</clus>
<clus scale="   82.365">  2  5  1 -1</clus>
<clus scale="   92.333">  7  8 -1 -1</clus>
<clus scale="   72.979">  1  5  2 -1</clus>
</clustering>
</event>
<event>
10    4  0.5389768E-005  0.1436041E+03  0.7546771E-02  0.1228984E+00
          2   -1    0    0  503    0 -0.00000000000E+00  0.00000000000E+00  0.84260193756E+02  0.84260193756E+02  0.00000000000E+00 0. -1.
         21   -1    0    0  501  502  0.00000000000E+00 -0.00000000000E+00 -0.80237820908E+03  0.80237820908E+03  0.00000000000E+00 0.  1.
         23    2    1    2    0    0 -0.18498112980E+02  0.13474397854E+02 -0.22865102886E+03  0.24721870653E+03  0.91170479190E+02 0.  0.
         24    2    1    2    0    0 -0.63768664652E+02 -0.82757167850E+02 -0.30163140288E+03  0.32906900356E+03  0.79935689626E+02 0.  0.
        -11    1    4    4    0    0 -0.45017681413E+02 -0.75459323833E+02 -0.29511640886E+03  0.30791946345E+03  0.00000000000E+00 0.  1.
         12    1    4    4    0    0 -0.18750983239E+02 -0.72978440170E+01 -0.65149940244E+01  0.21149540110E+02  0.00000000000E+00 0. -1.
        -11    1    3    3    0    0  0.17915937182E+02  0.32284162282E+02 -0.17932794748E+03  0.18308948819E+03  0.00000000000E+00 0.  1.
         11    1    3    3    0    0 -0.36414050162E+02 -0.18809764428E+02 -0.49323081380E+02  0.64129218332E+02  0.00000000000E+00 0. -1.
         21    1    1    2  503  502 -0.12034640325E+02 -0.72564831955E+02 -0.80374889984E+02  0.10895233061E+03  0.00000000000E+00 0.  1.
          1    1    1    2  501    0  0.94301417957E+02  0.14184760195E+03 -0.10746069360E+03  0.20139836215E+03  0.00000000000E+00 0. -1.
<scales pt_clust_5="13000.00000" pt_clust_6="13000.00000" pt_clust_7="13000.00000" pt_clust_8="13000.00000" pt_clust_9="73.55602" pt_clust_10="119.29983"></scales>
<clustering>
<clus scale="   73.556">  1  9  2 -1</clus>
<clus scale="   79.936">  5  6 -1 -1</clus>
<clus scale="   91.170">  7  8 -1 -1</clus>
<clus scale="   93.438">  1  7  2 -1</clus>
<clus scale="  119.300">  2 10  1 -1</clus>
<clus scale="  119.300">  2  5  1 -1</clus>
</clustering>
</event>
<event>
10    4  0.5389768E-005  0.1033646E+03  0.7546771E-02  0.1276975E+00
         21   -1    0    0  501  502  0.00000000000E+00  0.00000000000E+00  0.51423478373E+02  0.51423478373E+02  0.00000000000E+00 0.  1.
          2   -1    0    0  503    0 -0.00000000000E+00 -0.00000000000E+00 -0.54351763808E+03  0.54351763808E+03  0.00000000000E+00 0. -1.
         23    2    1    2    0    0 -0.31631218081E+02 -0.86109448698E+02 -0.22347817662E+03  0.25754479580E+03  0.89283006819E+02 0.  0.
         24    2    1    2    0    0  0.12843978295E+02  0.12878574620E+02 -0.54330157682E+02  0.99379204282E+02  0.81201199174E+02 0.  0.
        -13    1    4    4    0    0  0.44218883569E+02 -0.23957907366E+01 -0.14895048930E+02  0.46721643379E+02  0.00000000000E+00 0.  1.
         14    1    4    4    0    0 -0.31374905274E+02  0.15274365357E+02 -0.39435108752E+02  0.52657560904E+02  0.00000000000E+00 0. -1.
        -13    1    3    3    0    0 -0.54257367699E+02 -0.81054483085E+02 -0.13807986796E+03  0.16905543799E+03  0.00000000000E+00 0. -1.
         13    1    3    3    0    0  0.22626149619E+02 -0.50549656138E+01 -0.85398308667E+02  0.88489357818E+02  0.00000000000E+00 0.  1.
         21    1    1    2  503  502  0.30249506889E+02  0.25883904717E+02 -0.16087138729E+03  0.16572450766E+03  0.00000000000E+00 0.  1.
          1    1    1    2  501    0 -0.11462267103E+02  0.47346969361E+02 -0.53414438107E+02  0.72292608703E+02  0.00000000000E+00 0. -1.
<scales pt_clust_5="13000.00000" pt_clust_6="13000.00000" pt_clust_7="13000.00000" pt_clust_8="13000.00000" pt_clust_9="39.81217" pt_clust_10="52.02862"></scales>
<clustering>
<clus scale="   39.812">  2  9  1 -1</clus>
<clus scale="   52.029">  1 10  2 -1</clus>
<clus scale="   81.201">  5  6 -1 -1</clus>
<clus scale="   89.283">  7  8 -1 -1</clus>
<clus scale="   96.470">  1  5  2 -1</clus>
<clus scale="   52.029">  1  5  2 -1</clus>
</clustering>
</event>
<event>
10    4  0.5389768E-005  0.1155921E+03  0.7546771E-02  0.1253826E+00
         21   -1    0    0  501  502  0.00000000000E+00  0.00000000000E+00  0.42295461284E+02  0.42295461284E+02  0.00000000000E+00 0. -1.
          2   -1    0    0  503    0 -0.00000000000E+00 -0.00000000000E+00 -0.10522311417E+04  0.10522311417E+04  0.00000000000E+00 0. -1.
         24    2    1    2    0    0 -0.39493318696E+02 -0.87058355784E+02 -0.42977485237E+03  0.44764069920E+03  0.80851050201E+02 0.  0.
         23    2    1    2    0    0  0.72998647666E+02 -0.21328209243E+02 -0.19420534256E+03  0.22733975668E+03  0.90465213295E+02 0.  0.
        -13    1    3    3    0    0 -0.29066719034E+02 -0.43540939789E+02 -0.83971960297E+02  0.98954422384E+02  0.00000000000E+00 0.  1.
         14    1    3    3    0    0 -0.10426599662E+02 -0.43517415995E+02 -0.34580289207E+03  0.34868627682E+03  0.00000000000E+00 0. -1.
        -11    1    4    4    0    0  0.32855344148E+02 -0.83243174669E+01 -0.59482398674E+01  0.34411472766E+02  0.00000000000E+00 0. -1.
         11    1    4    4    0    0  0.40143303517E+02 -0.13003891776E+02 -0.18825710269E+03  0.19292828391E+03  0.00000000000E+00 0.  1.
         21    1    1    2  503  502 -0.74844348694E+02  0.79902597307E+02 -0.30745432988E+03  0.32636523490E+03  0.00000000000E+00 0. -1.
          1    1    1    2  501    0  0.41339019724E+02  0.28483967720E+02 -0.78501155615E+02  0.93180912217E+02  0.00000000000E+00 0. -1.
<scales pt_clust_5="13000.00000" pt_clust_6="13000.00000" pt_clust_7="13000.00000" pt_clust_8="13000.00000" pt_clust_9="108.29564" pt_clust_10="50.20210"></scales>
<clustering>
<clus scale="   50.202">  1 10  2 -1</clus>
<clus scale="   80.851">  5  6 -1 -1</clus>
<clus scale="   90.465">  7  8 -1 -1</clus>
<clus scale="  108.296">  2  9  1 -1</clus>
<clus scale="  108.296">  2  5  1 -1</clus>
<clus scale="   50.202">  1  5  2 -1</clus>
</clustering>
</event>
<event>
10    4  0.5389768E-005  0.9763365E+02  0.7546771E-02  0.1292405E+00
          2   -1    0    0  503    0 -0.00000000000E+00  0.00000000000E+00  0.60510806818E+03  0.60510806818E+03  0.00000000000E+00 0. -1.
         21   -1    0    0  501  502  0.00000000000E+00 -0.00000000000E+00 -0.32821411698E+02  0.32821411698E+02  0.00000000000E+00 0.  1.
         24    2    1    2    0    0 -0.24293135890E+02  0.13659388988E+02  0.39505083652E+03  0.40423923900E+03  0.81039888691E+02 0.  0.
         23    2    1    2    0    0  0.17999202426E+02 -0.18899101744E+02  0.10112152942E+03  0.14032381475E+03  0.93723326557E+02 0.  0.
        -13    1    3    3    0    0 -0.43813923991E+02  0.35508488154E+02  0.26159551652E+03  0.26760554354E+03  0.00000000000E+00 0.  1.
         14    1    3    3    0    0  0.19520788101E+02 -0.21849099166E+02  0.13345531999E+03  0.13663369547E+03  0.00000000000E+00 0. -1.
        -11    1    4    4    0    0  0.23215706561E+02 -0.39128820710E+02  0.96667677888E+01  0.46513224365E+02  0.00000000000E+00 0. -1.
         11    1    4    4    0    0 -0.52165041355E+01  0.20229718966E+02  0.91454761628E+02  0.93810590390E+02  0.00000000000E+00 0.  1.
         21    1    1    2  503  502  0.26183780012E+02 -0.48629820261E+01  0.60599800544E+02  0.66193464601E+02  0.00000000000E+00 0.  1.
          1    1    1    2  501    0 -0.19889846549E+02  0.10102694782E+02  0.15514490005E+02  0.27172961519E+02  0.00000000000E+00 0. -1.
<scales pt_clust_5="13000.00000" pt_clust_6="13000.00000" pt_clust_7="13000.00000" pt_clust_8="13000.00000" pt_clust_9="24.42286" pt_clust_10="22.30853"></scales>
<clustering>
<clus scale="   22.309">  2 10  1 -1</clus>
<clus scale="   24.423">  2  9  1 -1</clus>
<clus scale="   81.040">  5  6 -1 -1</clus>
<clus scale="   85.532">  1  5  2 -1</clus>
<clus scale="   93.723">  7  8 -1 -1</clus>
<clus scale="   22.309">  2  5  1 -1</clus>
</clustering>
</event>
<event>
10    4  0.6420017E-005  0.3513190E+03  0.7546771E-02  0.1105467E+00
          4   -1    0    0  503    0 -0.00000000000E+00  0.00000000000E+00  0.35638061917E+03  0.35638061917E+03  0.00000000000E+00 0. -1.
         21   -1    0    0  501  502  0.00000000000E+00 -0.00000000000E+00 -0.59679679635E+03  0.59679679635E+03  0.00000000000E+00 0.  1.
         23    2    1    2    0    0 -0.78592548181E+01  0.61661048448E+02 -0.52072453853E+02  0.12189081767E+03  0.91005374563E+02 0.  0.
         24    2    1    2    0    0  0.33328882225E+02  0.29343323405E+03  0.12260084255E+03  0.33004560525E+03  0.81763425296E+02 0.  0.
        -11    1    4    4    0    0  0.40747079534E+02  0.58410263490E+02  0.25513023208E+02  0.75650497187E+02  0.00000000000E+00 0.  1.
         12    1    4    4    0    0 -0.74181973083E+01  0.23502297056E+03  0.97087819342E+02  0.25439510806E+03  0.00000000000E+00 0. -1.
        -11    1    3    3    0    0 -0.12456387140E+01  0.81897633135E+02 -0.57310126813E+02  0.99966117081E+02  0.00000000000E+00 0.  1.
         11    1    3    3    0    0 -0.66136161042E+01 -0.20236584687E+02  0.52376729600E+01  0.21924700586E+02  0.00000000000E+00 0. -1.
         21    1    1    2  503  502  0.27385210740E+02 -0.49292788583E+00 -0.11434455519E+01  0.27413504207E+02  0.00000000000E+00 0.  1.
          3    1    1    2  501    0 -0.52854838147E+02 -0.35460135461E+03 -0.30980112032E+03  0.47382748839E+03  0.00000000000E+00 0. -1.
<scales pt_clust_5="13000.00000" pt_clust_6="13000.00000" pt_clust_7="13000.00000" pt_clust_8="13000.00000" pt_clust_9="27.38965" pt_clust_10="341.67204"></scales>
<clustering>
<clus scale="   27.390">  1  9  2 -1</clus>
<clus scale="   81.763">  5  6 -1 -1</clus>
<clus scale="   91.005">  7  8 -1 -1</clus>
<clus scale="  110.017">  1  7  2 -1</clus>
<clus scale="  341.672">  2 10  1 -1</clus>
<clus scale="  341.672">  2  5  1 -1</clus>
</clustering>
</event>
<event>
10    4  0.5389768E-005  0.1040830E+03  0.7546771E-02  0.1275227E+00
         21   -1    0    0  501  502  0.00000000000E+00  0.00000000000E+00  0.91738730835E+02  0.91738730835E+02  0.00000000000E+00 0. -1.
          2   -1    0    0  503    0 -0.00000000000E+00 -0.00000000000E+00 -0.44402914943E+03  0.44402914943E+03  0.00000000000E+00 0. -1.
         24    2    1    2    0    0 -0.46380725826E+02 -0.21859401874E+02 -0.34726536384E+03  0.36104777343E+03  0.84458608785E+02 0.  0.
         23    2    1    2    0    0  0.42101578616E+02 -0.88549214219E+01 -0.13466795677E+02  0.10223993820E+03  0.91764360302E+02 0.  0.
        -13    1    3    3    0    0 -0.55029067855E+02  0.12212741235E+02 -0.27460702499E+03  0.28033260162E+03  0.00000000000E+00 0.  1.
         14    1    3    3    0    0  0.86483420294E+01 -0.34072143109E+02 -0.72658338851E+02  0.80715171811E+02  0.00000000000E+00 0. -1.
        -13    1    4    4    0    0  0.45470561694E+02 -0.29423287752E+02 -0.40841999877E+02  0.67833404727E+02  0.00000000000E+00 0. -1.
         13    1    4    4    0    0 -0.33689830783E+01  0.20568366330E+02  0.27375204200E+02  0.34406533471E+02  0.00000000000E+00 0.  1.
         21    1    1    2  503  502 -0.18963576804E+02  0.20290659041E+02 -0.20055801791E+02  0.34257309804E+02  0.00000000000E+00 0.  1.
          1    1    1    2  501    0  0.23242724014E+02  0.10423664255E+02  0.28497542717E+02  0.38222858828E+02  0.00000000000E+00 0. -1.
<scales pt_clust_5="13000.00000" pt_clust_6="13000.00000" pt_clust_7="13000.00000" pt_clust_8="13000.00000" pt_clust_9="26.92873" pt_clust_10="25.47306"></scales>
<clustering>
<clus scale="   25.473">  1 10  2 -1</clus>
<clus scale="   26.929">  1  9  2 -1</clus>
<clus scale="   84.459">  5  6 -1 -1</clus>
<clus scale="   91.764">  7  8 -1 -1</clus>
<clus scale="   97.703">  2  5  1 -1</clus>
<clus scale="   25.473">  1  5  2 -1</clus>
</clustering>
</event>
<event>
10    4  0.5389768E-005  0.1408465E+03  0.7546771E-02  0.1214506E+00
         21   -1    0    0  503  502  0.00000000000E+00  0.00000000000E+00  0.56087191939E+03  0.56087191939E+03  0.00000000000E+00 0.  1.
         -1   -1    0    0    0  501 -0.00000000000E+00 -0.00000000000E+00 -0.29386689798E+03  0.29386689798E+03  0.00000000000E+00 0.  1.
         24    2    1    2    0    0  0.80654772604E+02  0.17091835325E+02 -0.16618870018E+03  0.20231029395E+03  0.80705934056E+02 0.  0.
         23    2    1    2    0    0 -0.16343213739E+03  0.10444142316E+03  0.41171532507E+03  0.46421547430E+03  0.91479086569E+02 0.  0.
        -13    1    3    3    0    0  0.63934050142E+02  0.32206573341E+02 -0.16485920738E+03  0.17973142294E+03  0.00000000000E+00 0.  1.
         14    1    3    3    0    0  0.16720722461E+02 -0.15114738016E+02 -0.13294927991E+01  0.22578871009E+02  0.00000000000E+00 0. -1.
        -13    1    4    4    0    0 -0.10580810653E+03  0.10772014934E+03  0.34101247401E+03  0.37294569767E+03  0.00000000000E+00 0.  1.
         13    1    4    4    0    0 -0.57624030861E+02 -0.32787261786E+01  0.70702851056E+02  0.91269776627E+02  0.00000000000E+00 0. -1.
         21    1    1    2  503  501  0.30836549976E+02 -0.95609604819E+01 -0.39108277480E+02  0.50712544279E+02  0.00000000000E+00 0.  1.
         -2    1    1    2    0  502  0.51940814811E+02 -0.11197229800E+03  0.60586674006E+02  0.13750050484E+03  0.00000000000E+00 0.  1.
<scales pt_clust_5="13000.00000" pt_clust_6="13000.00000" pt_clust_7="13000.00000" pt_clust_8="13000.00000" pt_clust_9="32.28475" pt_clust_10="126.83095"></scales>
<clustering>
<clus scale="   32.285">  2  9  1 -1</clus>
<clus scale="   80.706">  5  6 -1 -1</clus>
<clus scale="   91.479">  7  8 -1 -1</clus>
<clus scale="  126.831">  1 10  2 -1</clus>
<clus scale="  134.100">  2  5  1 -1</clus>
<clus scale="  126.831">  1  5  2 -1</clus>
</clustering>
</event>
<event>
10    4  0.5389768E-005  0.1371123E+03  0.7546771E-02  0.1234596E+00
         21   -1    0    0  501  502  0.00000000000E+00  0.00000000000E+00  0.29626453783E+03  0.29626453783E+03  0.00000000000E+00 0. -1.
          2   -1    0    0  503    0 -0.00000000000E+00 -0.00000000000E+00 -0.18400756088E+03  0.18400756088E+03  0.00000000000E+00 0. -1.
         23    2    1    2    0    0  0.24652223753E+02  0.17108446765E+02  0.98468392339E+02  0.13757159776E+03  0.91266034940E+02 0.  0.
         24    2    1    2    0    0  0.10771284834E+03  0.81747473322E+01 -0.78131606013E+02  0.15546878427E+03  0.79981940664E+02 0.  0.
        -13    1    4    4    0    0  0.53858633582E+02 -0.25318400366E+02 -0.66096292570E+01  0.59878719152E+02  0.00000000000E+00 0.  1.
         14    1    4    4    0    0  0.53854214759E+02  0.33493147698E+02 -0.71521976756E+02  0.95590065117E+02  0.00000000000E+00 0. -1.
        -13    1    3    3    0    0  0.54412974384E+02 -0.10144584012E+02  0.50948198550E+02  0.75229005719E+02  0.00000000000E+00 0. -1.
         13    1    3    3    0    0 -0.29760750630E+02  0.27253030777E+02  0.47520193790E+02  0.62342592041E+02  0.00000000000E+00 0.  1.
         21    1    1    2  503  502 -0.27087836306E+02  0.15470784797E+02 -0.12354789045E+02  0.33552002478E+02  0.00000000000E+00 0. -1.
          1    1    1    2  501    0 -0.10527723579E+03 -0.40753978894E+02  0.10427497967E+03  0.15367971420E+03  0.00000000000E+00 0. -1.
<scales pt_clust_5="13000.00000" pt_clust_6="13000.00000" pt_clust_7="13000.00000" pt_clust_8="13000.00000" pt_clust_9="31.19449" pt_clust_10="111.36726"></scales>
<clustering>
<clus scale="   31.194">  2  9  1 -1</clus>
<clus scale="   79.982">  5  6 -1 -1</clus>
<clus scale="   91.266">  7  8 -1 -1</clus>
<clus scale="   95.637">  2  7  1 -1</clus>
<clus scale="  111.367">  1 10  2 -1</clus>
<clus scale="  111.367">  1  5  2 -1</clus>
</clustering>
</event>
<event>
10    4  0.5389768E-005  0.2518854E+03  0.7546771E-02  0.1112397E+00
         -3   -1    0    0    0  501 -0.00000000000E+00  0.00000000000E+00  0.19616264947E+03  0.19616264947E+03  0.00000000000E+00 0.  1.
         21   -1    0    0  503  502  0.00000000000E+00 -0.00000000000E+00 -0.57547262354E+03  0.57547262354E+03  0.00000000000E+00 0.  1.
         23    2    1    2    0    0 -0.79801320129E+02 -0.23155724913E+03 -0.71075065379E+02  0.26925772315E+03  0.86377347948E+02 0.  0.
         24    2    1    2    0    0  0.12955727241E+03  0.21414304073E+03 -0.25394363843E+03  0.36565531716E+03  0.81080890094E+02 0.  0.
        -11    1    4    4    0    0  0.12732792063E+03  0.20001585673E+03 -0.20107287012E+03  0.31088428943E+03  0.00000000000E+00 0.  1.
         12    1    4    4    0    0  0.22293517862E+01  0.14127184004E+02 -0.52870768307E+02  0.54771027731E+02  0.00000000000E+00 0. -1.
        -11    1    3    3    0    0 -0.70332903106E+02 -0.17375996386E+03 -0.14804145736E+02  0.18803830735E+03  0.00000000000E+00 0.  1.
         11    1    3    3    0    0 -0.94684170236E+01 -0.57797285268E+02 -0.56270919643E+02  0.81219415799E+02  0.00000000000E+00 0. -1.
         21    1    1    2  503  501  0.25113619317E+02  0.22596824356E+02  0.12731188543E+02  0.36102541570E+02  0.00000000000E+00 0.  1.
         -4    1    1    2    0  502 -0.74869571600E+02 -0.51826159590E+01 -0.67022458801E+02  0.10061969113E+03  0.00000000000E+00 0.  1.
<scales pt_clust_5="13000.00000" pt_clust_6="13000.00000" pt_clust_7="13000.00000" pt_clust_8="13000.00000" pt_clust_9="33.78329" pt_clust_10="72.47416"></scales>
<clustering>
<clus scale="   33.783">  1  9  2 -1</clus>
<clus scale="   72.474">  2 10  1 -1</clus>
<clus scale="   81.081">  5  6 -1 -1</clus>
<clus scale="   86.377">  7  8 -1 -1</clus>
<clus scale="  250.119">  2  5  1 -1</clus>
<clus scale="   72.474">  2  5  1 -1</clus>
</clustering>
</event>
<event>
10    4  0.5389768E-005  0.1002779E+03  0.7546771E-02  0.1287239E+00
          2   -1    0    0  503    0 -0.00000000000E+00  0.00000000000E+00  0.72245901564E+03  0.72245901564E+03  0.00000000000E+00 0. -1.
         21   -1    0    0  501  502  0.00000000000E+00 -0.00000000000E+00 -0.13053563157E+03  0.13053563157E+03  0.00000000000E+00 0.  1.
         24    2    1    2    0    0 -0.61885116640E+01 -0.53608490433E+02  0.59547630504E+03  0.60303517341E+03  0.78404225559E+02 0.  0.
         23    2    1    2    0    0 -0.54279034463E+02  0.27069177664E+02 -0.40925258463E+02  0.11829533471E+03  0.92951360785E+02 0.  0.
        -13    1    3    3    0    0  0.48242453864E+01 -0.28565769242E+02  0.57709186350E+02  0.64572646725E+02  0.00000000000E+00 0.  1.
         14    1    3    3    0    0 -0.11012757050E+02 -0.25042721192E+02  0.53776711869E+03  0.53846252669E+03  0.00000000000E+00 0. -1.
        -13    1    4    4    0    0 -0.21330111908E+01  0.52797055894E+02 -0.19052707684E+02  0.56170139024E+02  0.00000000000E+00 0. -1.
         13    1    4    4    0    0 -0.52146023273E+02 -0.25727878230E+02 -0.21872550779E+02  0.62125195685E+02  0.00000000000E+00 0.  1.
         21    1    1    2  503  502  0.14136567639E+02  0.18130477961E+02  0.70458502158E+02  0.74114487802E+02  0.00000000000E+00 0.  1.
          1    1    1    2  501    0  0.46330978488E+02  0.84088348075E+01 -0.33086164665E+02  0.57549651283E+02  0.00000000000E+00 0. -1.
<scales pt_clust_5="13000.00000" pt_clust_6="13000.00000" pt_clust_7="13000.00000" pt_clust_8="13000.00000" pt_clust_9="22.99036" pt_clust_10="47.41134"></scales>
<clustering>
<clus scale="   22.990">  1  9  2 -1</clus>
<clus scale="   47.411">  2 10  1 -1</clus>
<clus scale="   78.404">  5  6 -1 -1</clus>
<clus scale="   86.965">  1  5  2 -1</clus>
<clus scale="   92.951">  7  8 -1 -1</clus>
<clus scale="   47.411">  2  5  1 -1</clus>
</clustering>
</event>
<event>
10    4  0.5389768E-005  0.1256016E+03  0.7546771E-02  0.1237971E+00
         21   -1    0    0  503  502  0.00000000000E+00  0.00000000000E+00  0.48336601694E+03  0.48336601694E+03  0.00000000000E+00 0. -1.
          2   -1    0    0  502    0 -0.00000000000E+00 -0.00000000000E+00 -0.53337283730E+02  0.53337283730E+02  0.00000000000E+00 0. -1.
         24    2    1    2    0    0 -0.55727540517E+02  0.20957851045E+02  0.17138454099E+03  0.19690058379E+03  0.76500906631E+02 0.  0.
         23    2    1    2    0    0  0.99422226739E+02 -0.68344208541E+02  0.18504944058E+03  0.23862766973E+03  0.90244995931E+02 0.  0.
        -11    1    3    3    0    0 -0.12535619969E+02 -0.27439502339E+02  0.73749088731E+02  0.79680588259E+02  0.00000000000E+00 0.  1.
         12    1    3    3    0    0 -0.43191920548E+02  0.48397353385E+02  0.97635452257E+02  0.11721999553E+03  0.00000000000E+00 0. -1.
        -11    1    4    4    0    0  0.54558971929E+02  0.13097363789E+02  0.86801016609E+02  0.10335685193E+03  0.00000000000E+00 0.  1.
         11    1    4    4    0    0  0.44863254810E+02 -0.81441572331E+02  0.98248423971E+02  0.13527081780E+03  0.00000000000E+00 0. -1.
         21    1    1    2  503  501 -0.74911482228E+01  0.26378079017E+02  0.25921398805E+02  0.37733794804E+02  0.00000000000E+00 0. -1.
          1    1    1    2  501    0 -0.36203537999E+02  0.21008278479E+02  0.47673352837E+02  0.63441252345E+02  0.00000000000E+00 0. -1.
<scales pt_clust_5="13000.00000" pt_clust_6="13000.00000" pt_clust_7="13000.00000" pt_clust_8="13000.00000" pt_clust_9="20.88017" pt_clust_10="69.42771"></scales>
<clustering>
<clus scale="   20.880">  9 10 -1 -1</clus>
<clus scale="   69.428">  1  9  2 -1</clus>
<clus scale="   76.501">  5  6 -1 -1</clus>
<clus scale="   90.245">  7  8 -1 -1</clus>
<clus scale="  116.121">  2  5  1 -1</clus>
<clus scale="   69.428">  1  5  2 -1</clus>
</clustering>
</event>
<event>
10    4  0.5389768E-005  0.9294773E+02  0.7546771E-02  0.1302654E+00
         21   -1    0    0  503  502  0.00000000000E+00  0.00000000000E+00  0.24698492442E+02  0.24698492442E+02  0.00000000000E+00 0.  1.
         -1   -1    0    0    0  501 -0.00000000000E+00 -0.00000000000E+00 -0.59502276664E+03  0.59502276664E+03  0.00000000000E+00 0.  1.
         23    2    1    2    0    0  0.86640603703E+01 -0.60462601629E+01 -0.30965155614E+03  0.32289020556E+03  0.90897609568E+02 0.  0.
         24    2    1    2    0    0 -0.27706138233E+02 -0.17544566275E+02 -0.13112861911E+03  0.15690022886E+03  0.79671357241E+02 0.  0.
        -13    1    4    4    0    0  0.12729749207E+02 -0.27516361433E+02 -0.10112147440E+03  0.10556869445E+03  0.00000000000E+00 0.  1.
         14    1    4    4    0    0 -0.40435887440E+02  0.99717951581E+01 -0.30007144705E+02  0.51331534412E+02  0.00000000000E+00 0. -1.
        -13    1    3    3    0    0 -0.18905041049E+02 -0.39125568961E+02 -0.20805930106E+03  0.21254854382E+03  0.00000000000E+00 0.  1.
         13    1    3    3    0    0  0.27569101419E+02  0.33079308798E+02 -0.10159225508E+03  0.11034166174E+03  0.00000000000E+00 0. -1.
         21    1    1    2  503  501 -0.15468967842E+01  0.30413024674E+02 -0.87021910371E+02  0.92196300599E+02  0.00000000000E+00 0.  1.
         -2    1    1    2    0  502  0.20588974647E+02 -0.68221982362E+01 -0.42522188575E+02  0.47734524058E+02  0.00000000000E+00 0.  1.
<scales pt_clust_5="13000.00000" pt_clust_6="13000.00000" pt_clust_7="13000.00000" pt_clust_8="13000.00000" pt_clust_9="29.62670" pt_clust_10="21.68982"></scales>
<clustering>
<clus scale="   21.690">  1 10  2 -1</clus>
<clus scale="   29.627">  2  9  1 -1</clus>
<clus scale="   79.671">  5  6 -1 -1</clus>
<clus scale="   82.003">  1  5  2 -1</clus>
<clus scale="   90.898">  7  8 -1 -1</clus>
<clus scale="   21.690">  1  5  2 -1</clus>
</clustering>
</event>
<event>
10    4  0.5389768E-005  0.3528789E+03  0.7546771E-02  0.1111922E+00
         21   -1    0    0  501  502  0.00000000000E+00  0.00000000000E+00  0.55832787650E+03  0.55832787650E+03  0.00000000000E+00 0. -1.
          2   -1    0    0  503    0 -0.00000000000E+00 -0.00000000000E+00 -0.38845739009E+03  0.38845739009E+03  0.00000000000E+00 0. -1.
         23    2    1    2    0    0  0.19165225086E+02 -0.17320108305E+02 -0.11824051797E+03  0.15109369854E+03  0.90449951058E+02 0.  0.
         24    2    1    2    0    0 -0.21214492942E+03  0.26543386217E+03  0.67079087104E+02  0.36014641821E+03  0.98717943463E+02 0.  0.
        -13    1    4    4    0    0 -0.10810658349E+03  0.18446615705E+03  0.36321162264E+01  0.21384103619E+03  0.00000000000E+00 0.  1.
         14    1    4    4    0    0 -0.10403834592E+03  0.80967705120E+02  0.63446970878E+02  0.14630538202E+03  0.00000000000E+00 0. -1.
        -13    1    3    3    0    0  0.27885978353E+02 -0.51289608468E+02 -0.65317796413E+02  0.87605172529E+02  0.00000000000E+00 0.  1.
         13    1    3    3    0    0 -0.87207532672E+01  0.33969500164E+02 -0.52922721553E+02  0.63488526014E+02  0.00000000000E+00 0. -1.
         21    1    1    2  503  502 -0.29964739111E+02  0.63276651352E+01 -0.14276957593E+01  0.30658820121E+02  0.00000000000E+00 0.  1.
          1    1    1    2  501    0  0.22294444344E+03 -0.25444141900E+03  0.22245961303E+03  0.40488632972E+03  0.00000000000E+00 0. -1.
<scales pt_clust_5="13000.00000" pt_clust_6="13000.00000" pt_clust_7="13000.00000" pt_clust_8="13000.00000" pt_clust_9="30.62556" pt_clust_10="338.78944"></scales>
<clustering>
<clus scale="   30.626">  2  9  1 -1</clus>
<clus scale="   90.450">  7  8 -1 -1</clus>
<clus scale="   92.068">  2  7  1 -1</clus>
<clus scale="   98.718">  5  6 -1 -1</clus>
<clus scale="  338.789">  1 10  2 -1</clus>
<clus scale="  338.789">  1  5  2 -1</clus>
</clustering>
</event>
<event>
10    4  0.5389768E-005  0.1184316E+03  0.7546771E-02  0.1250706E+00
          2   -1    0    0  503    0 -0.00000000000E+00  0.00000000000E+00  0.92137107229E+03  0.92137107229E+03  0.00000000000E+00 0. -1.
         21   -1    0    0  501  502  0.00000000000E+00 -0.00000000000E+00 -0.28950910583E+03  0.28950910583E+03  0.00000000000E+00 0.  1.
         24    2    1    2    0    0 -0.26834634278E+02 -0.64385490532E+02  0.78214210411E+03  0.78924532232E+03  0.79349346583E+02 0.  0.
         23    2    1    2    0    0  0.87529345501E+01  0.13675080843E+03 -0.17012988696E+02  0.16706119169E+03  0.94035113191E+02 0.  0.
        -13    1    3    3    0    0 -0.22208188269E+02  0.11997695590E+01  0.57894502438E+02  0.62019484726E+02  0.00000000000E+00 0.  1.
         14    1    3    3    0    0 -0.46264460084E+01 -0.65585260091E+02  0.72424760167E+03  0.72722583760E+03  0.00000000000E+00 0. -1.
        -13    1    4    4    0    0  0.42441903098E+02  0.10033797996E+03 -0.34790271049E+02  0.11436515344E+03  0.00000000000E+00 0.  1.
         13    1    4    4    0    0 -0.33688968548E+02  0.36412828471E+02  0.17777282353E+02  0.52696038247E+02  0.00000000000E+00 0. -1.
         21    1    1    2  503  502 -0.50185448032E+01 -0.81987922670E+02  0.31457571551E+02  0.87958990806E+02  0.00000000000E+00 0. -1.
          1    1    1    2  501    0  0.23100244531E+02  0.96226047683E+01 -0.16472472049E+03  0.16661467331E+03  0.00000000000E+00 0. -1.
<scales pt_clust_5="13000.00000" pt_clust_6="13000.00000" pt_clust_7="13000.00000" pt_clust_8="13000.00000" pt_clust_9="79.79317" pt_clust_10="25.02430"></scales>
<clustering>
<clus scale="   25.024">  2 10  1 -1</clus>
<clus scale="   79.349">  5  6 -1 -1</clus>
<clus scale="   79.793">  2  9  1 -1</clus>
<clus scale="   94.035">  7  8 -1 -1</clus>
<clus scale="  107.144">  1  5  2 -1</clus>
<clus scale="   25.024">  2  5  1 -1</clus>
</clustering>
</event>
<event>
10    4  0.5389768E-005  0.1053908E+03  0.7546771E-02  0.1269499E+00
         21   -1    0    0  501  502  0.00000000000E+00  0.00000000000E+00  0.95198577651E+02  0.95198577651E+02  0.00000000000E+00 0. -1.
          2   -1    0    0  503    0 -0.00000000000E+00 -0.00000000000E+00 -0.23159745557E+04  0.23159745557E+04  0.00000000000E+00 0. -1.
         24    2    1    2    0    0 -0.98016061961E+02 -0.16092000046E+02 -0.19465596829E+04  0.19511874626E+04  0.90398087608E+02 0.  0.
         23    2    1    2    0    0  0.27521713583E+02 -0.11671741269E+01  0.42848716492E+02  0.10406638791E+03  0.90746865368E+02 0.  0.
        -13    1    3    3    0    0 -0.30542969564E+02 -0.19070731561E+02 -0.19316181158E+03  0.19648931586E+03  0.00000000000E+00 0.  1.
         14    1    3    3    0    0 -0.67473092397E+02  0.29787315143E+01 -0.17533978713E+04  0.17546981467E+04  0.00000000000E+00 0. -1.
        -13    1    4    4    0    0 -0.34303682970E+01  0.26131061459E+02 -0.17003912495E+02  0.31364515615E+02  0.00000000000E+00 0. -1.
         13    1    4    4    0    0  0.30952081880E+02 -0.27298235586E+02  0.59852628987E+02  0.72701872297E+02  0.00000000000E+00 0.  1.
         21    1    1    2  503  502  0.54199305426E+02  0.50771521494E+02 -0.30899125470E+03  0.31779066630E+03  0.00000000000E+00 0.  1.
          1    1    1    2  501    0  0.16295042952E+02 -0.33512347321E+02 -0.80737569293E+01  0.38128616533E+02  0.00000000000E+00 0. -1.
<scales pt_clust_5="13000.00000" pt_clust_6="13000.00000" pt_clust_7="13000.00000" pt_clust_8="13000.00000" pt_clust_9="73.68636" pt_clust_10="37.26400"></scales>
<clustering>
<clus scale="   37.264">  1 10  2 -1</clus>
<clus scale="   73.686">  2  9  1 -1</clus>
<clus scale="   90.398">  5  6 -1 -1</clus>
<clus scale="   90.747">  7  8 -1 -1</clus>
<clus scale="  105.091">  2  5  1 -1</clus>
<clus scale="   37.264">  1  5  2 -1</clus>
</clustering>
</event>
<event>
10    4  0.5389768E-005  0.1254662E+03  0.7546771E-02  0.1249341E+00
          2   -1    0    0  503    0 -0.00000000000E+00  0.00000000000E+00  0.53439917445E+03  0.53439917445E+03  0.00000000000E+00 0. -1.
         21   -1    0    0  501  502  0.00000000000E+00 -0.00000000000E+00 -0.21739373559E+03  0.21739373559E+03  0.00000000000E+00 0. -1.
         23    2    1    2    0    0  0.76887232051E+01  0.16210738499E+02 -0.34068310914E+02  0.98409834048E+02  0.90564568798E+02 0.  0.
         24    2    1    2    0    0 -0.60732060593E+01  0.52104056132E+02  0.41587978519E+03  0.42599634910E+03  0.75928764119E+02 0.  0.
        -11    1    4    4    0    0 -0.99530296201E+01  0.38926598836E+02  0.77125881453E+02  0.86964041335E+02  0.00000000000E+00 0.  1.
         12    1    4    4    0    0  0.38798235608E+01  0.13177457296E+02  0.33875390373E+03  0.33903230776E+03  0.00000000000E+00 0. -1.
        -11    1    3    3    0    0 -0.28834029156E+02  0.24481134753E+02  0.11400307388E+02  0.39505622445E+02  0.00000000000E+00 0. -1.
         11    1    3    3    0    0  0.36522752361E+02 -0.82703962546E+01 -0.45468618302E+02  0.58904211603E+02  0.00000000000E+00 0.  1.
         21    1    1    2  503  502 -0.23370677836E+02  0.31324357944E+02  0.56629343093E+02  0.68806151485E+02  0.00000000000E+00 0. -1.
          1    1    1    2  501    0  0.21755160690E+02 -0.99639152575E+02 -0.12143537851E+03  0.15858057541E+03  0.00000000000E+00 0. -1.
<scales pt_clust_5="13000.00000" pt_clust_6="13000.00000" pt_clust_7="13000.00000" pt_clust_8="13000.00000" pt_clust_9="39.08202" pt_clust_10="99.88291"></scales>
<clustering>
<clus scale="   39.082">  1  9  2 -1</clus>
<clus scale="   75.929">  5  6 -1 -1</clus>
<clus scale="   90.565">  7  8 -1 -1</clus>
<clus scale="   92.605">  1  7  2 -1</clus>
<clus scale="   99.883">  2 10  1 -1</clus>
<clus scale="   99.883">  2  5  1 -1</clus>
</clustering>
</event>
<event>
10    4  0.5389768E-005  0.2869885E+03  0.7546771E-02  0.1138299E+00
         21   -1    0    0  503  502  0.00000000000E+00  0.00000000000E+00  0.36229479512E+03  0.36229479512E+03  0.00000000000E+00 0.  1.
         -1   -1    0    0    0  501 -0.00000000000E+00 -0.00000000000E+00 -0.81778553152E+03  0.81778553152E+03  0.00000000000E+00 0.  1.
         23    2    1    2    0    0 -0.50036591318E+01 -0.23387498192E+00 -0.15239223423E+02  0.89700812012E+02  0.88254804078E+02 0.  0.
         24    2    1    2    0    0 -0.26375291304E+03  0.97597388442E+01  0.14911963756E+03  0.31308270894E+03  0.78251291939E+02 0.  0.
        -13    1    4    4    0    0 -0.16757496438E+03 -0.30311281868E+02  0.10401137095E+03  0.19954575361E+03  0.00000000000E+00 0.  1.
         14    1    4    4    0    0 -0.96177948660E+02  0.40071020712E+02  0.45108266617E+02  0.11353695533E+03  0.00000000000E+00 0. -1.
        -11    1    3    3    0    0  0.22191270868E+02 -0.34780196685E+02  0.45107237872E+01  0.41502544660E+02  0.00000000000E+00 0. -1.
         11    1    3    3    0    0 -0.27194930000E+02  0.34546321703E+02 -0.19749947210E+02  0.48198267352E+02  0.00000000000E+00 0.  1.
         21    1    1    2  503  501 -0.48405566208E+02 -0.23100511280E+02 -0.40835348882E+03  0.41186078266E+03  0.00000000000E+00 0.  1.
         -2    1    1    2    0  502  0.31716213838E+03  0.13574647418E+02 -0.18101766173E+03  0.36543602303E+03  0.00000000000E+00 0.  1.
<scales pt_clust_5="13000.00000" pt_clust_6="13000.00000" pt_clust_7="13000.00000" pt_clust_8="13000.00000" pt_clust_9="53.63518" pt_clust_10="276.11447"></scales>
<clustering>
<clus scale="   53.635">  2  9  1 -1</clus>
<clus scale="   78.251">  5  6 -1 -1</clus>
<clus scale="   88.255">  7  8 -1 -1</clus>
<clus scale="   89.025">  2  7  1 -1</clus>
<clus scale="  276.114">  1 10  2 -1</clus>
<clus scale="  276.114">  1  5  2 -1</clus>
</clustering>
</event>
<event>
10    4  0.5389768E-005  0.1482046E+03  0.7546771E-02  0.1204726E+00
         21   -1    0    0  503  502  0.00000000000E+00  0.00000000000E+00  0.22254668776E+03  0.22254668776E+03  0.00000000000E+00 0.  1.
         -1   -1    0    0    0  501 -0.00000000000E+00 -0.00000000000E+00 -0.22078651837E+03  0.22078651837E+03  0.00000000000E+00 0.  1.
         24    2    1    2    0    0  0.94369203058E+02 -0.39159073525E+02 -0.27965888628E+02  0.13309867676E+03  0.80586520612E+02 0.  0.
         23    2    1    2    0    0 -0.15081637243E+03  0.56806832288E+02  0.13764774153E+02  0.18573830410E+03  0.91305280333E+02 0.  0.
        -13    1    3    3    0    0  0.71565813005E+02 -0.51566885538E+01 -0.49179894750E+02  0.86988039842E+02  0.00000000000E+00 0.  1.
         14    1    3    3    0    0  0.22803390054E+02 -0.34002384971E+02  0.21214006122E+02  0.46110636923E+02  0.00000000000E+00 0. -1.
        -11    1    4    4    0    0 -0.88454296740E+02  0.76546219769E+02  0.24327639725E+02  0.11947937239E+03  0.00000000000E+00 0.  1.
         11    1    4    4    0    0 -0.62362075690E+02 -0.19739387481E+02 -0.10562865572E+02  0.66258931712E+02  0.00000000000E+00 0. -1.
         21    1    1    2  503  501 -0.30224413017E+02 -0.14954416708E+01 -0.11162291125E+02  0.32254429636E+02  0.00000000000E+00 0. -1.
         -2    1    1    2    0  502  0.86671582388E+02 -0.16152317092E+02  0.27123574989E+02  0.92241795631E+02  0.00000000000E+00 0.  1.
<scales pt_clust_5="13000.00000" pt_clust_6="13000.00000" pt_clust_7="13000.00000" pt_clust_8="13000.00000" pt_clust_9="30.26139" pt_clust_10="83.35700"></scales>
<clustering>
<clus scale="   30.261">  2  9  1 -1</clus>
<clus scale="   80.587">  5  6 -1 -1</clus>
<clus scale="   83.357">  1 10  2 -1</clus>
<clus scale="   91.305">  7  8 -1 -1</clus>
<clus scale="  141.853">  2  5  1 -1</clus>
<clus scale="   83.357">  1  5  2 -1</clus>
</clustering>
</event>
<event>
10    4  0.5389768E-005  0.1062237E+03  0.7546771E-02  0.1273457E+00
         -3   -1    0    0    0  501 -0.00000000000E+00  0.00000000000E+00  0.64248642609E+03  0.64248642609E+03  0.00000000000E+00 0.  1.
         21   -1    0    0  503  502  0.00000000000E+00 -0.00000000000E+00 -0.86533715461E+02  0.86533715461E+02  0.00000000000E+00 0.  1.
         24    2    1    2    0    0 -0.45766414038E+02 -0.12029409718E+02  0.25674196435E+03  0.27314455755E+03  0.80325847053E+02 0.  0.
         23    2    1    2    0    0  0.79989204856E+02 -0.71451955526E+02  0.80156834390E+01  0.14234198124E+03  0.93238048026E+02 0.  0.
        -11    1    3    3    0    0 -0.27124041538E+02 -0.43790978312E+02  0.19062906198E+03  0.19746595322E+03  0.00000000000E+00 0.  1.
         12    1    3    3    0    0 -0.18642372500E+02  0.31761568594E+02  0.66112902372E+02  0.75678604322E+02  0.00000000000E+00 0. -1.
        -11    1    4    4    0    0  0.18796094211E+02 -0.71070692827E+02  0.26929616664E+02  0.78291383882E+02  0.00000000000E+00 0.  1.
         11    1    4    4    0    0  0.61193110645E+02 -0.38126269976E+00 -0.18913933225E+02  0.64050597356E+02  0.00000000000E+00 0. -1.
         21    1    1    2  503  501  0.80612924183E+01  0.43462567585E+02  0.20368723683E+03  0.20842857209E+03  0.00000000000E+00 0. -1.
         -4    1    1    2    0  502 -0.42284083236E+02  0.40018797659E+02  0.87507826009E+02  0.10510503068E+03  0.00000000000E+00 0.  1.
<scales pt_clust_5="13000.00000" pt_clust_6="13000.00000" pt_clust_7="13000.00000" pt_clust_8="13000.00000" pt_clust_9="44.20384" pt_clust_10="64.04525"></scales>
<clustering>
<clus scale="   44.204">  1  9  2 -1</clus>
<clus scale="   64.045">  2 10  1 -1</clus>
<clus scale="   80.326">  5  6 -1 -1</clus>
<clus scale="   93.238">  7  8 -1 -1</clus>
<clus scale="   95.091">  1  5  2 -1</clus>
<clus scale="   64.045">  2  5  1 -1</clus>
</clustering>
</event>
<event>
10    4  0.5389768E-005  0.1277676E+03  0.7546771E-02  0.1232613E+00
          2   -1    0    0  503    0 -0.00000000000E+00  0.00000000000E+00  0.76817226082E+03  0.76817226082E+03  0.00000000000E+00 0. -1.
         21   -1    0    0  501  502  0.00000000000E+00 -0.00000000000E+00 -0.73128330706E+02  0.73128330706E+02  0.00000000000E+00 0. -1.
         24    2    1    2    0    0  0.82073952172E+02  0.65915553402E+02  0.28177492331E+03  0.31112263498E+03  0.79493350574E+02 0.  0.
         23    2    1    2    0    0 -0.79012409079E+02 -0.35063707024E+02  0.25358708440E+02  0.11516911498E+03  0.71752607012E+02 0.  0.
        -13    1    3    3    0    0  0.11128217354E+01  0.37382948260E+02  0.14413483417E+03  0.14890793671E+03  0.00000000000E+00 0.  1.
         14    1    3    3    0    0  0.80961130437E+02  0.28532605142E+02  0.13764008913E+03  0.16221469827E+03  0.00000000000E+00 0. -1.
        -11    1    4    4    0    0 -0.10704961656E+02 -0.30098727156E+02  0.33391845605E+02  0.46211956606E+02  0.00000000000E+00 0.  1.
         11    1    4    4    0    0 -0.68307447422E+02 -0.49649798687E+01 -0.80331371644E+01  0.68957158375E+02  0.00000000000E+00 0. -1.
         21    1    1    2  503  502  0.27809307141E+02 -0.51530394253E+02  0.36843231851E+03  0.37305644669E+03  0.00000000000E+00 0. -1.
          1    1    1    2  501    0 -0.30870850234E+02  0.20678547875E+02  0.19477979855E+02  0.41952394874E+02  0.00000000000E+00 0. -1.
<scales pt_clust_5="13000.00000" pt_clust_6="13000.00000" pt_clust_7="13000.00000" pt_clust_8="13000.00000" pt_clust_9="57.33159" pt_clust_10="37.15658"></scales>
<clustering>
<clus scale="   37.157">  2 10  1 -1</clus>
<clus scale="   57.332">  1  9  2 -1</clus>
<clus scale="   71.753">  7  8 -1 -1</clus>
<clus scale="   79.493">  5  6 -1 -1</clus>
<clus scale="  123.101">  2  7  1 -1</clus>
<clus scale="   37.157">  2  5  1 -1</clus>
</clustering>
</event>
<event>
10    4  0.5389768E-005  0.1509702E+03  0.7546771E-02  0.1200270E+00
         21   -1    0    0  503  502  0.00000000000E+00  0.00000000000E+00  0.39453150514E+03  0.39453150514E+03  0.00000000000E+00 0. -1.
         -1   -1    0    0    0  501 -0.00000000000E+00 -0.00000000000E+00 -0.18448681416E+03  0.18448681416E+03  0.00000000000E+00 0.  1.
         23    2    1    2    0    0 -0.30257736643E+02 -0.16087047824E+03  0.85786338524E+02  0.20445411206E+03  0.87449109005E+02 0.  0.
         24    2    1    2    0    0  0.99485483820E+01  0.75755612548E+02  0.15588051607E+03  0.19191195605E+03  0.81814284434E+02 0.  0.
        -13    1    4    4    0    0 -0.22262534215E+02  0.46623973823E+01  0.79564433705E+02  0.82751782396E+02  0.00000000000E+00 0.  1.
         14    1    4    4    0    0  0.32211082597E+02  0.71093215166E+02  0.76316082366E+02  0.10916017365E+03  0.00000000000E+00 0. -1.
        -11    1    3    3    0    0 -0.60899644126E+01 -0.16121589376E+03  0.72496277145E+02  0.17687103287E+03  0.00000000000E+00 0.  1.
         11    1    3    3    0    0 -0.24167772230E+02  0.34541551942E+00  0.13290061379E+02  0.27583079195E+02  0.00000000000E+00 0. -1.
         21    1    1    2  503  501  0.28962779779E+02  0.49120273014E+01 -0.82300330047E+02  0.87386011183E+02  0.00000000000E+00 0. -1.
         -2    1    1    2    0  502 -0.86535915185E+01  0.80202838394E+02  0.50678166430E+02  0.95266240009E+02  0.00000000000E+00 0.  1.
<scales pt_clust_5="13000.00000" pt_clust_6="13000.00000" pt_clust_7="13000.00000" pt_clust_8="13000.00000" pt_clust_9="29.37636" pt_clust_10="81.33093"></scales>
<clustering>
<clus scale="   29.376">  2  9  1 -1</clus>
<clus scale="   81.331">  1 10  2 -1</clus>
<clus scale="   81.814">  5  6 -1 -1</clus>
<clus scale="   87.449">  7  8 -1 -1</clus>
<clus scale="  147.778">  1  5  2 -1</clus>
<clus scale="   81.331">  1  5  2 -1</clus>
</clustering>
</event>
<event>
10    4  0.5389768E-005  0.2746966E+03  0.7546771E-02  0.1129146E+00
         21   -1    0    0  501  502  0.00000000000E+00  0.00000000000E+00  0.26742083823E+03  0.26742083823E+03  0.00000000000E+00 0.  1.
          2   -1    0    0  503    0 -0.00000000000E+00 -0.00000000000E+00 -0.17987503660E+04  0.17987503660E+04  0.00000000000E+00 0. -1.
         23    2    1    2    0    0 -0.53566300056E+01  0.71269408879E+02 -0.37428546242E+03  0.39147074017E+03  0.89731326190E+02 0.  0.
         24    2    1    2    0    0  0.87713490431E+01  0.24968826309E+03  0.12962301200E+03  0.29422485387E+03  0.85702824352E+02 0.  0.
        -11    1    4    4    0    0  0.96563553541E+01  0.14142994664E+03  0.11965066140E+03  0.18550459773E+03  0.00000000000E+00 0.  1.
         12    1    4    4    0    0 -0.88500631092E+00  0.10825831645E+03  0.99723505983E+01  0.10872025613E+03  0.00000000000E+00 0. -1.
        -13    1    3    3    0    0 -0.14463092790E+02  0.91382072773E+02 -0.30894903927E+03  0.32250484205E+03  0.00000000000E+00 0.  1.
         13    1    3    3    0    0  0.91064627839E+01 -0.20112663894E+02 -0.65336423149E+02  0.68965898119E+02  0.00000000000E+00 0. -1.
         21    1    1    2  503  502  0.72718379825E+02  0.63075858779E+02 -0.39648327639E+03  0.40800185684E+03  0.00000000000E+00 0. -1.
          1    1    1    2  501    0 -0.76133098862E+02 -0.38403353075E+03 -0.89018380091E+03  0.97247375331E+03  0.00000000000E+00 0. -1.
<scales pt_clust_5="13000.00000" pt_clust_6="13000.00000" pt_clust_7="13000.00000" pt_clust_8="13000.00000" pt_clust_9="96.26280" pt_clust_10="260.98527"></scales>
<clustering>
<clus scale="   85.703">  5  6 -1 -1</clus>
<clus scale="   89.731">  7  8 -1 -1</clus>
<clus scale="   96.263">  2  9  1 -1</clus>
<clus scale="  126.916">  2  7  1 -1</clus>
<clus scale="  260.985">  1 10  2 -1</clus>
<clus scale="  260.985">  1  5  2 -1</clus>
</clustering>
</event>
<event>
10    4  0.5389768E-005  0.1218399E+03  0.7546771E-02  0.1243201E+00
          2   -1    0    0  503    0 -0.00000000000E+00  0.00000000000E+00  0.68757505668E+03  0.68757505668E+03  0.00000000000E+00 0. -1.
         21   -1    0    0  501  502  0.00000000000E+00 -0.00000000000E+00 -0.22665418196E+03  0.22665418196E+03  0.00000000000E+00 0.  1.
         23    2    1    2    0    0 -0.48515050629E+02  0.99934790772E+02  0.31497226222E+03  0.34618074665E+03  0.91065420660E+02 0.  0.
         24    2    1    2    0    0 -0.26598726199E+02 -0.77205976876E+02 -0.26308224882E+01  0.11494103004E+03  0.80847164815E+02 0.  0.
        -11    1    4    4    0    0 -0.51438659697E+02 -0.28411382811E+02 -0.10280180164E+02  0.59655883941E+02  0.00000000000E+00 0.  1.
         12    1    4    4    0    0  0.24839933497E+02 -0.48794594065E+02  0.76493576760E+01  0.55285146097E+02  0.00000000000E+00 0. -1.
        -13    1    3    3    0    0 -0.72101702914E+02  0.48262808259E+02  0.18468980651E+03  0.20405459772E+03  0.00000000000E+00 0.  1.
         13    1    3    3    0    0  0.23586652285E+02  0.51671982513E+02  0.13028245571E+03  0.14212614892E+03  0.00000000000E+00 0. -1.
         21    1    1    2  503  502  0.51902785327E+02 -0.22110283059E+02  0.29728974782E+03  0.30259536993E+03  0.00000000000E+00 0. -1.
          1    1    1    2  501    0  0.23210991501E+02 -0.61853083644E+00 -0.14871031282E+03  0.15051209203E+03  0.00000000000E+00 0. -1.
<scales pt_clust_5="13000.00000" pt_clust_6="13000.00000" pt_clust_7="13000.00000" pt_clust_8="13000.00000" pt_clust_9="57.16037" pt_clust_10="23.21923"></scales>
<clustering>
<clus scale="   23.219">  2 10  1 -1</clus>
<clus scale="   57.160">  1  9  2 -1</clus>
<clus scale="   80.847">  5  6 -1 -1</clus>
<clus scale="   91.065">  7  8 -1 -1</clus>
<clus scale="  114.404">  2  5  1 -1</clus>
<clus scale="   23.219">  2  5  1 -1</clus>
</clustering>
</event>
<event>
10    4  0.5389768E-005  0.6308332E+03  0.7546771E-02  0.1031427E+00
         21   -1    0    0  503  502  0.00000000000E+00  0.00000000000E+00  0.57435642140E+03  0.57435642140E+03  0.00000000000E+00 0.  1.
         -3   -1    0    0    0  501 -0.00000000000E+00 -0.00000000000E+00 -0.14584879083E+04  0.14584879083E+04  0.00000000000E+00 0.  1.
         23    2    1    2    0    0 -0.12461099851E+03 -0.49825021867E+01  0.23449722722E+02  0.14819381059E+03  0.76542731346E+02 0.  0.
         24    2    1    2    0    0  0.63282807067E+03 -0.80380566897E+02 -0.71475886820E+03  0.96147580958E+03  0.81382370165E+02 0.  0.
        -11    1    4    4    0    0  0.50642852204E+03 -0.92541548659E+02 -0.59671002298E+03  0.78809684538E+03  0.00000000000E+00 0.  1.
         12    1    4    4    0    0  0.12639954863E+03  0.12160981762E+02 -0.11804884522E+03  0.17337896421E+03  0.00000000000E+00 0. -1.
        -13    1    3    3    0    0 -0.46275103714E+02 -0.60615415039E+01  0.47152152861E+02  0.66343447518E+02  0.00000000000E+00 0.  1.
         13    1    3    3    0    0 -0.78335894800E+02  0.10790393172E+01 -0.23702430140E+02  0.81850363069E+02  0.00000000000E+00 0. -1.
         21    1    1    2  503  501  0.63479948482E+02 -0.17647736528E+03 -0.22576867321E+03  0.29350546523E+03  0.00000000000E+00 0.  1.
         -4    1    1    2    0  502 -0.57169702064E+03  0.26184043437E+03  0.32946331749E+02  0.62966924433E+03  0.00000000000E+00 0.  1.
<scales pt_clust_5="13000.00000" pt_clust_6="13000.00000" pt_clust_7="13000.00000" pt_clust_8="13000.00000" pt_clust_9="181.92508" pt_clust_10="625.56172"></scales>
<clustering>
<clus scale="   76.543">  7  8 -1 -1</clus>
<clus scale="   81.382">  5  6 -1 -1</clus>
<clus scale="  146.327">  2  7  1 -1</clus>
<clus scale="  181.925">  2  9  1 -1</clus>
<clus scale="  625.562">  1 10  2 -1</clus>
<clus scale="  625.562">  1  5  2 -1</clus>
</clustering>
</event>
<event>
10    4  0.5389768E-005  0.2415530E+03  0.7546771E-02  0.1121576E+00
          2   -1    0    0  503    0 -0.00000000000E+00  0.00000000000E+00  0.59052078524E+03  0.59052078524E+03  0.00000000000E+00 0. -1.
         21   -1    0    0  501  502  0.00000000000E+00 -0.00000000000E+00 -0.13273160275E+03  0.13273160275E+03  0.00000000000E+00 0.  1.
         23    2    1    2    0    0 -0.50630486568E+02 -0.21284142670E+03  0.29819571119E+03  0.38782208513E+03  0.11670633424E+03 0.  0.
         24    2    1    2    0    0  0.55712848836E+02  0.19217852069E+03  0.75905472408E+02  0.22751251115E+03  0.77225621708E+02 0.  0.
        -11    1    4    4    0    0  0.64193009770E+02  0.18743744209E+03  0.56844794038E+02  0.20611857706E+03  0.00000000000E+00 0.  1.
         12    1    4    4    0    0 -0.84801609341E+01  0.47410785962E+01  0.19060678370E+02  0.21393934085E+02  0.00000000000E+00 0. -1.
        -11    1    3    3    0    0 -0.38571337242E+02 -0.27312740864E+02  0.16021668034E+02  0.49904185363E+02  0.00000000000E+00 0.  1.
         11    1    3    3    0    0 -0.12059149326E+02 -0.18552868583E+03  0.28217404316E+03  0.33791789977E+03  0.00000000000E+00 0. -1.
         21    1    1    2  503  502 -0.25973739852E+02  0.78716558046E+01  0.78252943878E+02  0.82825849543E+02  0.00000000000E+00 0.  1.
          1    1    1    2  501    0  0.20891377584E+02  0.12791250206E+02  0.54350550034E+01  0.25091942174E+02  0.00000000000E+00 0. -1.
<scales pt_clust_5="13000.00000" pt_clust_6="13000.00000" pt_clust_7="13000.00000" pt_clust_8="13000.00000" pt_clust_9="26.83957" pt_clust_10="24.49624"></scales>
<clustering>
<clus scale="   24.496">  2 10  1 -1</clus>
<clus scale="   26.840">  1  9  2 -1</clus>
<clus scale="   77.226">  5  6 -1 -1</clus>
<clus scale="  116.706">  7  8 -1 -1</clus>
<clus scale="  225.147">  2  5  1 -1</clus>
<clus scale="   24.496">  2  5  1 -1</clus>
</clustering>
</event>
<event>
10    4  0.5389768E-005  0.1765871E+03  0.7546771E-02  0.1187353E+00
         21   -1    0    0  501  502  0.00000000000E+00  0.00000000000E+00  0.82201453837E+02  0.82201453837E+02  0.00000000000E+00 0. -1.
          2   -1    0    0  503    0 -0.00000000000E+00 -0.00000000000E+00 -0.84886913243E+03  0.84886913243E+03  0.00000000000E+00 0. -1.
         24    2    1    2    0    0 -0.85136064618E+02 -0.33512977621E+02 -0.69999975905E+02  0.13944312064E+03  0.78569193075E+02 0.  0.
         23    2    1    2    0    0 -0.63807020068E+02  0.94368011190E+02 -0.36964765807E+03  0.39841886880E+03  0.95506788011E+02 0.  0.
        -13    1    3    3    0    0 -0.42824114774E+02  0.77181666556E+01 -0.67501551996E+02  0.80311483765E+02  0.00000000000E+00 0.  1.
         14    1    3    3    0    0 -0.42311949844E+02 -0.41231144276E+02 -0.24984239093E+01  0.59131636879E+02  0.00000000000E+00 0. -1.
        -13    1    4    4    0    0 -0.86882142852E+02  0.79050346634E+02 -0.25957415952E+03  0.28491438773E+03  0.00000000000E+00 0. -1.
         13    1    4    4    0    0  0.23075122783E+02  0.15317664556E+02 -0.11007349855E+03  0.11350448107E+03  0.00000000000E+00 0.  1.
         21    1    1    2  503  502 -0.21482153073E+02  0.32981295381E+01 -0.99205752894E+02  0.10155856422E+03  0.00000000000E+00 0.  1.
          1    1    1    2  501    0  0.17042523776E+03 -0.64153163108E+02 -0.22781429172E+03  0.29165003260E+03  0.00000000000E+00 0. -1.
<scales pt_clust_5="13000.00000" pt_clust_6="13000.00000" pt_clust_7="13000.00000" pt_clust_8="13000.00000" pt_clust_9="21.73386" pt_clust_10="148.53104"></scales>
<clustering>
<clus scale="   21.734">  2  9  1 -1</clus>
<clus scale="   78.569">  5  6 -1 -1</clus>
<clus scale="   95.507">  7  8 -1 -1</clus>
<clus scale="  122.615">  2  5  1 -1</clus>
<clus scale="  148.531">  1 10  2 -1</clus>
<clus scale="  148.531">  1  5  2 -1</clus>
</clustering>
</event>
<event>
10    4  0.5389768E-005  0.1633916E+03  0.7546771E-02  0.1186558E+00
         -1   -1    0    0    0  501 -0.00000000000E+00  0.00000000000E+00  0.48241242353E+03  0.48241242353E+03  0.00000000000E+00 0.  1.
         21   -1    0    0  503  502  0.00000000000E+00 -0.00000000000E+00 -0.99539945723E+02  0.99539945723E+02  0.00000000000E+00 0. -1.
         23    2    1    2    0    0  0.28043884284E+02 -0.14524958062E+03  0.26557737282E+03  0.31781643726E+03  0.92693293805E+02 0.  0.
         24    2    1    2    0    0 -0.29036441614E+02  0.11902308844E+03  0.11130641057E+03  0.18469791554E+03  0.81942616795E+02 0.  0.
        -11    1    4    4    0    0 -0.39790619902E+02  0.28520879764E+02  0.68009022267E+02  0.83797142699E+02  0.00000000000E+00 0.  1.
         12    1    4    4    0    0  0.10754178288E+02  0.90502208677E+02  0.43297388299E+02  0.10090077284E+03  0.00000000000E+00 0. -1.
        -13    1    3    3    0    0 -0.21760336549E+02 -0.10595295284E+03  0.19443689955E+03  0.22249774913E+03  0.00000000000E+00 0.  1.
         13    1    3    3    0    0  0.49804220833E+02 -0.39296627785E+02  0.71140473279E+02  0.95318688128E+02  0.00000000000E+00 0. -1.
         21    1    1    2  503  501 -0.18127180574E+02  0.90566650907E+01  0.35148147546E+02  0.40571050443E+02  0.00000000000E+00 0.  1.
         -2    1    1    2    0  502  0.19119737904E+02  0.17169827093E+02 -0.29159453133E+02  0.38866966012E+02  0.00000000000E+00 0.  1.
<scales pt_clust_5="13000.00000" pt_clust_6="13000.00000" pt_clust_7="13000.00000" pt_clust_8="13000.00000" pt_clust_9="20.26371" pt_clust_10="25.61725"></scales>
<clustering>
<clus scale="   20.264">  1  9  2 -1</clus>
<clus scale="   25.617">  2 10  1 -1</clus>
<clus scale="   81.943">  5  6 -1 -1</clus>
<clus scale="   92.693">  7  8 -1 -1</clus>
<clus scale="  157.542">  2  5  1 -1</clus>
<clus scale="   25.617">  2  5  1 -1</clus>
</clustering>
</event>
<event>
10    4  0.5389768E-005  0.3349089E+03  0.7546771E-02  0.1068985E+00
         21   -1    0    0  501  502  0.00000000000E+00  0.00000000000E+00  0.11142254013E+04  0.11142254013E+04  0.00000000000E+00 0.  1.
          4   -1    0    0  503    0 -0.00000000000E+00 -0.00000000000E+00 -0.15763415584E+03  0.15763415584E+03  0.00000000000E+00 0. -1.
         24    2    1    2    0    0  0.10070899477E+03 -0.49061003917E+01  0.15978226029E+03  0.20484469978E+03  0.79149282226E+02 0.  0.
         23    2    1    2    0    0  0.14351996931E+03 -0.39099309932E+02  0.49137686487E+03  0.52135554731E+03  0.90739438822E+02 0.  0.
        -11    1    3    3    0    0  0.10421595960E+03  0.17304518111E+02  0.13397506729E+03  0.17061574147E+03  0.00000000000E+00 0.  1.
         12    1    3    3    0    0 -0.35069648280E+01 -0.22210618502E+02  0.25807193001E+02  0.34228958313E+02  0.00000000000E+00 0. -1.
        -11    1    4    4    0    0  0.77876406676E+02  0.75881702190E+01  0.35000818295E+03  0.35864751940E+03  0.00000000000E+00 0. -1.
         11    1    4    4    0    0  0.65643562632E+02 -0.46687480151E+02  0.14136868192E+03  0.16270802791E+03  0.00000000000E+00 0.  1.
         21    1    1    2  503  502  0.24053977053E+02 -0.80313821635E+02 -0.38363298462E+02  0.92198950247E+02  0.00000000000E+00 0. -1.
          3    1    1    2  501    0 -0.26828294114E+03  0.12431923196E+03  0.34379541878E+03  0.45346035980E+03  0.00000000000E+00 0. -1.
<scales pt_clust_5="13000.00000" pt_clust_6="13000.00000" pt_clust_7="13000.00000" pt_clust_8="13000.00000" pt_clust_9="83.83856" pt_clust_10="265.31056"></scales>
<clustering>
<clus scale="   79.149">  5  6 -1 -1</clus>
<clus scale="   83.839">  2  9  1 -1</clus>
<clus scale="   90.739">  7  8 -1 -1</clus>
<clus scale="  128.984">  5  7 -1 -1</clus>
<clus scale="  265.311">  1 10  2 -1</clus>
<clus scale="  265.311">  1  5  2 -1</clus>
</clustering>
</event>
<event>
10    4  0.5389768E-005  0.1387535E+03  0.7546771E-02  0.1237416E+00
         21   -1    0    0  503  502  0.00000000000E+00  0.00000000000E+00  0.21103676759E+03  0.21103676759E+03  0.00000000000E+00 0.  1.
         -3   -1    0    0    0  501 -0.00000000000E+00 -0.00000000000E+00 -0.32170801174E+03  0.32170801174E+03  0.00000000000E+00 0.  1.
         24    2    1    2    0    0 -0.19748575558E+02 -0.74984173842E+00 -0.18300471998E+03  0.20099251633E+03  0.80726052710E+02 0.  0.
         23    2    1    2    0    0 -0.48679777957E+02 -0.87469728605E+02  0.91359508033E+02  0.16369233843E+03  0.91803854763E+02 0.  0.
        -13    1    3    3    0    0 -0.46397549567E+02 -0.12646702338E+02 -0.74832559064E+02  0.88952704185E+02  0.00000000000E+00 0.  1.
         14    1    3    3    0    0  0.26648974010E+02  0.11896860600E+02 -0.10817216092E+03  0.11203981215E+03  0.00000000000E+00 0. -1.
        -13    1    4    4    0    0 -0.28194169000E+02 -0.95800178282E+02  0.39638908212E+02  0.10744220944E+03  0.00000000000E+00 0. -1.
         13    1    4    4    0    0 -0.20485608958E+02  0.83304496767E+01  0.51720599822E+02  0.56250128996E+02  0.00000000000E+00 0.  1.
         21    1    1    2  503  501 -0.16383579984E+02  0.14577378351E+02 -0.47384639242E+02  0.52213271194E+02  0.00000000000E+00 0.  1.
         -4    1    1    2    0  502  0.84811933499E+02  0.73642191993E+02  0.28358607041E+02  0.11584665338E+03  0.00000000000E+00 0.  1.
<scales pt_clust_5="13000.00000" pt_clust_6="13000.00000" pt_clust_7="13000.00000" pt_clust_8="13000.00000" pt_clust_9="21.92993" pt_clust_10="104.04126"></scales>
<clustering>
<clus scale="   21.930">  2  9  1 -1</clus>
<clus scale="   80.726">  5  6 -1 -1</clus>
<clus scale="   87.112">  2  5  1 -1</clus>
<clus scale="   91.804">  7  8 -1 -1</clus>
<clus scale="  104.041">  1 10  2 -1</clus>
<clus scale="  104.041">  1  5  2 -1</clus>
</clustering>
</event>
<event>
10    4  0.5389768E-005  0.4128068E+03  0.7546771E-02  0.1089611E+00
          2   -1    0    0  503    0 -0.00000000000E+00  0.00000000000E+00  0.20575058451E+04  0.20575058451E+04  0.00000000000E+00 0. -1.
         21   -1    0    0  501  502  0.00000000000E+00 -0.00000000000E+00 -0.62329291377E+03  0.62329291377E+03  0.00000000000E+00 0.  1.
         23    2    1    2    0    0 -0.82035500137E+02  0.40180792963E+03  0.18257177731E+04  0.18734559493E+04  0.91718979513E+02 0.  0.
         24    2    1    2    0    0 -0.45876865831E+02 -0.47841945272E+02 -0.32567783565E+03  0.34121076822E+03  0.77234688901E+02 0.  0.
        -11    1    4    4    0    0 -0.63681782255E+02 -0.21574544922E+02 -0.25537206504E+03  0.26407522031E+03  0.00000000000E+00 0.  1.
         12    1    4    4    0    0  0.17804916424E+02 -0.26267400350E+02 -0.70305770604E+02  0.77135547903E+02  0.00000000000E+00 0. -1.
        -11    1    3    3    0    0 -0.14570952860E+02  0.23965827317E+03  0.11865625866E+04  0.12106110740E+04  0.00000000000E+00 0. -1.
         11    1    3    3    0    0 -0.67464547276E+02  0.16214965647E+03  0.63915518648E+03  0.66284487524E+03  0.00000000000E+00 0.  1.
         21    1    1    2  503  502  0.10816204683E+03 -0.33712511866E+03  0.40797179159E+02  0.35639414113E+03  0.00000000000E+00 0.  1.
          1    1    1    2  501    0  0.19750319138E+02 -0.16840865706E+02 -0.10662418529E+03  0.10973790025E+03  0.00000000000E+00 0. -1.
<scales pt_clust_5="13000.00000" pt_clust_6="13000.00000" pt_clust_7="13000.00000" pt_clust_8="13000.00000" pt_clust_9="402.48857" pt_clust_10="25.95554"></scales>
<clustering>
<clus scale="   25.956">  2 10  1 -1</clus>
<clus scale="   77.235">  5  6 -1 -1</clus>
<clus scale="   91.719">  7  8 -1 -1</clus>
<clus scale="  102.524">  2  5  1 -1</clus>
<clus scale="  402.489">  2  9  1 -1</clus>
<clus scale="   25.956">  2  5  1 -1</clus>
</clustering>
</event>
<event>
10    4  0.5389768E-005  0.9694859E+02  0.7546771E-02  0.1290547E+00
         21   -1    0    0  501  502  0.00000000000E+00  0.00000000000E+00  0.42044750390E+02  0.42044750390E+02  0.00000000000E+00 0. -1.
          2   -1    0    0  503    0 -0.00000000000E+00 -0.00000000000E+00 -0.63668117344E+03  0.63668117344E+03  0.00000000000E+00 0. -1.
         24    2    1    2    0    0  0.42743972975E+02 -0.19649728437E+01 -0.21630377912E+03  0.23541186170E+03  0.82465213419E+02 0.  0.
         23    2    1    2    0    0 -0.48748533586E+02  0.39831136053E+02 -0.94979082732E+02  0.14492581654E+03  0.89551813030E+02 0.  0.
        -13    1    3    3    0    0 -0.19760766911E+02 -0.13043806560E+02 -0.27853620088E+02  0.36557529327E+02  0.00000000000E+00 0.  1.
         14    1    3    3    0    0  0.62504739887E+02  0.11078833716E+02 -0.18845015904E+03  0.19885433238E+03  0.00000000000E+00 0. -1.
        -13    1    4    4    0    0 -0.51609587892E+02  0.92680155782E+01 -0.84481393237E+01  0.53111361621E+02  0.00000000000E+00 0. -1.
         13    1    4    4    0    0  0.28610543063E+01  0.30563120475E+02 -0.86530943408E+02  0.91814454919E+02  0.00000000000E+00 0.  1.
         21    1    1    2  503  502 -0.32959972084E+02 -0.83839639064E+01 -0.19000882664E+03  0.19302850777E+03  0.00000000000E+00 0. -1.
          1    1    1    2  501    0  0.38964532695E+02 -0.29482199303E+02 -0.93344734556E+02  0.10535973782E+03  0.00000000000E+00 0. -1.
<scales pt_clust_5="13000.00000" pt_clust_6="13000.00000" pt_clust_7="13000.00000" pt_clust_8="13000.00000" pt_clust_9="34.00957" pt_clust_10="44.52111"></scales>
<clustering>
<clus scale="   34.010">  2  9  1 -1</clus>
<clus scale="   44.521">  1 10  2 -1</clus>
<clus scale="   82.465">  5  6 -1 -1</clus>
<clus scale="   89.552">  7  8 -1 -1</clus>
<clus scale="   90.443">  2  5  1 -1</clus>
<clus scale="   44.521">  1  5  2 -1</clus>
</clustering>
</event>
<event>
10    4  0.5389768E-005  0.1088070E+03  0.7546771E-02  0.1271343E+00
         21   -1    0    0  501  502  0.00000000000E+00  0.00000000000E+00  0.21141372788E+03  0.21141372788E+03  0.00000000000E+00 0.  1.
          2   -1    0    0  503    0 -0.00000000000E+00 -0.00000000000E+00 -0.26400207824E+03  0.26400207824E+03  0.00000000000E+00 0. -1.
         23    2    1    2    0    0  0.43664665103E+02 -0.55203490155E+01 -0.57737017185E+02  0.12132138117E+03  0.97202042904E+02 0.  0.
         24    2    1    2    0    0 -0.23941581162E+02  0.34456547785E+02  0.54092743692E+02  0.10386738347E+03  0.78115014150E+02 0.  0.
        -13    1    4    4    0    0  0.33970434204E+01  0.38041739412E+02  0.64032432451E+02  0.74557804737E+02  0.00000000000E+00 0.  1.
         14    1    4    4    0    0 -0.27338624582E+02 -0.35851916272E+01 -0.99396887597E+01  0.29309578736E+02  0.00000000000E+00 0. -1.
        -11    1    3    3    0    0 -0.16498207359E+02 -0.33617120779E+02 -0.34658801923E+02  0.51024839111E+02  0.00000000000E+00 0.  1.
         11    1    3    3    0    0  0.60162872462E+02  0.28096771764E+02 -0.23078215262E+02  0.70296542063E+02  0.00000000000E+00 0. -1.
         21    1    1    2  503  502  0.24477020903E+01 -0.35096613684E+02 -0.14615500415E+03  0.15032980003E+03  0.00000000000E+00 0.  1.
          1    1    1    2  501    0 -0.22170786032E+02  0.61604149148E+01  0.97210927280E+02  0.99897241443E+02  0.00000000000E+00 0. -1.
<scales pt_clust_5="13000.00000" pt_clust_6="13000.00000" pt_clust_7="13000.00000" pt_clust_8="13000.00000" pt_clust_9="35.04197" pt_clust_10="23.01075"></scales>
<clustering>
<clus scale="   23.011">  1 10  2 -1</clus>
<clus scale="   35.042">  2  9  1 -1</clus>
<clus scale="   78.115">  5  6 -1 -1</clus>
<clus scale="   92.156">  1  5  2 -1</clus>
<clus scale="   97.202">  7  8 -1 -1</clus>
<clus scale="   23.011">  1  5  2 -1</clus>
</clustering>
</event>
<event>
10    4  0.5389768E-005  0.2740328E+03  0.7546771E-02  0.1100294E+00
          2   -1    0    0  502    0 -0.00000000000E+00  0.00000000000E+00  0.17446228051E+04  0.17446228051E+04  0.00000000000E+00 0. -1.
         21   -1    0    0  503  502  0.00000000000E+00 -0.00000000000E+00 -0.13287585996E+03  0.13287585996E+03  0.00000000000E+00 0. -1.
         23    2    1    2    0    0  0.86437022041E+02  0.21939969230E+03  0.30507794754E+03  0.39617375741E+03  0.90958827098E+02 0.  0.
         24    2    1    2    0    0  0.14950388556E+03 -0.28152227000E+03  0.87038367219E+03  0.93046230444E+03  0.81155177719E+02 0.  0.
        -11    1    4    4    0    0  0.41299369916E+02 -0.52173596267E+02  0.10643507696E+03  0.12552349465E+03  0.00000000000E+00 0.  1.
         12    1    4    4    0    0  0.10820451564E+03 -0.22934867373E+03  0.76394859523E+03  0.80493880979E+03  0.00000000000E+00 0. -1.
        -13    1    3    3    0    0  0.68101068850E+02  0.16382281121E+03  0.28220425422E+03  0.33333903184E+03  0.00000000000E+00 0. -1.
         13    1    3    3    0    0  0.18335953190E+02  0.55576881092E+02  0.22873693321E+02  0.62834725570E+02  0.00000000000E+00 0.  1.
         21    1    1    2  503  501  0.46722018705E+02  0.18728577630E+02  0.65448665710E+02  0.82566545859E+02  0.00000000000E+00 0.  1.
          1    1    1    2  501    0 -0.28266292630E+03  0.43394000068E+02  0.37083665969E+03  0.46829605734E+03  0.00000000000E+00 0. -1.
<scales pt_clust_5="13000.00000" pt_clust_6="13000.00000" pt_clust_7="13000.00000" pt_clust_8="13000.00000" pt_clust_9="50.33594" pt_clust_10="261.73995"></scales>
<clustering>
<clus scale="   50.336">  2  9  1 -1</clus>
<clus scale="   81.155">  5  6 -1 -1</clus>
<clus scale="   90.959">  7  8 -1 -1</clus>
<clus scale="  264.937">  1  7  2 -1</clus>
<clus scale="  261.740">  2 10  1 -1</clus>
<clus scale="   50.336">  2  5  1 -1</clus>
</clustering>
</event>
<event>
10    4  0.5389768E-005  0.9591960E+02  0.7546771E-02  0.1292031E+00
         -3   -1    0    0    0  501 -0.00000000000E+00  0.00000000000E+00  0.41430749590E+02  0.41430749590E+02  0.00000000000E+00 0.  1.
         21   -1    0    0  503  502  0.00000000000E+00 -0.00000000000E+00 -0.70623645396E+03  0.70623645396E+03  0.00000000000E+00 0.  1.
         23    2    1    2    0    0 -0.91789353999E+01  0.92232970245E+01 -0.65839539897E+02  0.11351222933E+03  0.91547032337E+02 0.  0.
         24    2    1    2    0    0  0.84826754649E+01 -0.14355153013E+02 -0.52961804072E+03  0.53684629754E+03  0.86201229263E+02 0.  0.
        -11    1    4    4    0    0 -0.38505587659E+02 -0.52236747223E+01 -0.19634442163E+03  0.20015268913E+03  0.00000000000E+00 0.  1.
         12    1    4    4    0    0  0.46988263124E+02 -0.91314782904E+01 -0.33327361909E+03  0.33669360842E+03  0.00000000000E+00 0. -1.
        -11    1    3    3    0    0 -0.42430332253E+02  0.17985430092E+02 -0.88120942355E+01  0.46919737803E+02  0.00000000000E+00 0.  1.
         11    1    3    3    0    0  0.33251396853E+02 -0.87621330671E+01 -0.57027445662E+02  0.66592491523E+02  0.00000000000E+00 0. -1.
         21    1    1    2  503  501 -0.17703026067E+02  0.14576612735E+02  0.20042591327E+01  0.23019379345E+02  0.00000000000E+00 0.  1.
         -4    1    1    2    0  502  0.18399286002E+02 -0.94447567471E+01 -0.71352382886E+02  0.74289297338E+02  0.00000000000E+00 0.  1.
<scales pt_clust_5="13000.00000" pt_clust_6="13000.00000" pt_clust_7="13000.00000" pt_clust_8="13000.00000" pt_clust_9="22.59686" pt_clust_10="20.68181"></scales>
<clustering>
<clus scale="   20.682">  2 10  1 -1</clus>
<clus scale="   22.597">  1  9  2 -1</clus>
<clus scale="   86.201">  5  6 -1 -1</clus>
<clus scale="   90.832">  2  5  1 -1</clus>
<clus scale="   91.547">  7  8 -1 -1</clus>
<clus scale="   20.682">  2  5  1 -1</clus>
</clustering>
</event>
<event>
10    4  0.5389768E-005  0.2017931E+03  0.7546771E-02  0.1149227E+00
         21   -1    0    0  501  502  0.00000000000E+00  0.00000000000E+00  0.19540255608E+03  0.19540255608E+03  0.00000000000E+00 0.  1.
          2   -1    0    0  503    0 -0.00000000000E+00 -0.00000000000E+00 -0.58022279098E+03  0.58022279098E+03  0.00000000000E+00 0. -1.
         23    2    1    2    0    0 -0.21843009124E+03 -0.60785133600E+02 -0.34326270193E+03  0.42124534761E+03  0.90619110127E+02 0.  0.
         24    2    1    2    0    0  0.13778138321E+03  0.42775374449E+02  0.83713170278E+02  0.18482270872E+03  0.79612163414E+02 0.  0.
        -13    1    4    4    0    0  0.13399967613E+03  0.37060748215E+02  0.97238388405E+02  0.16966059189E+03  0.00000000000E+00 0.  1.
         14    1    4    4    0    0  0.37817070796E+01  0.57146262338E+01 -0.13525218128E+02  0.15162116832E+02  0.00000000000E+00 0. -1.
        -13    1    3    3    0    0 -0.20380538204E+03 -0.28481272243E+02 -0.31320410514E+03  0.37475942696E+03  0.00000000000E+00 0. -1.
         13    1    3    3    0    0 -0.14624709196E+02 -0.32303861357E+02 -0.30058596790E+02  0.46485920650E+02  0.00000000000E+00 0.  1.
         21    1    1    2  503  502  0.59995414391E+02 -0.24979760224E+02 -0.85895783164E+02  0.10771036967E+03  0.00000000000E+00 0. -1.
          1    1    1    2  501    0  0.20653293641E+02  0.42989519376E+02 -0.39374920084E+02  0.61846921071E+02  0.00000000000E+00 0. -1.
<scales pt_clust_5="13000.00000" pt_clust_6="13000.00000" pt_clust_7="13000.00000" pt_clust_8="13000.00000" pt_clust_9="65.19961" pt_clust_10="47.69339"></scales>
<clustering>
<clus scale="   47.693">  1 10  2 -1</clus>
<clus scale="   65.200">  2  9  1 -1</clus>
<clus scale="   79.612">  5  6 -1 -1</clus>
<clus scale="   90.619">  7  8 -1 -1</clus>
<clus scale="  197.096">  1  5  2 -1</clus>
<clus scale="   47.693">  1  5  2 -1</clus>
</clustering>
</event>
<event>
10    4  0.5389768E-005  0.1354988E+03  0.7546771E-02  0.1223057E+00
          2   -1    0    0  503    0 -0.00000000000E+00  0.00000000000E+00  0.20379023147E+04  0.20379023147E+04  0.00000000000E+00 0. -1.
         21   -1    0    0  501  502  0.00000000000E+00 -0.00000000000E+00 -0.33358817569E+02  0.33358817569E+02  0.00000000000E+00 0. -1.
         23    2    1    2    0    0 -0.58143696456E+01 -0.85782622809E+02  0.46160818122E+03  0.47918151455E+03  0.95605154891E+02 0.  0.
         24    2    1    2    0    0  0.29031517539E+02  0.10339945303E+03  0.49170204289E+03  0.50981816091E+03  0.81298107674E+02 0.  0.
        -13    1    4    4    0    0 -0.76800385888E+01  0.64925580945E+02  0.38594857815E+03  0.39144682784E+03  0.00000000000E+00 0.  1.
         14    1    4    4    0    0  0.36711556128E+02  0.38473872087E+02  0.10575346474E+03  0.11837133307E+03  0.00000000000E+00 0. -1.
        -13    1    3    3    0    0  0.41813747570E+02 -0.32510269043E+02  0.25847357855E+03  0.26384445776E+03  0.00000000000E+00 0. -1.
         13    1    3    3    0    0 -0.47628117216E+02 -0.53272353767E+02  0.20313460267E+03  0.21533705679E+03  0.00000000000E+00 0.  1.
         21    1    1    2  503  502 -0.91501291828E+02  0.86517205204E+02  0.40448277997E+03  0.42363195406E+03  0.00000000000E+00 0. -1.
          1    1    1    2  501    0  0.68284143935E+02 -0.10413403543E+03  0.64675049299E+03  0.65862950271E+03  0.00000000000E+00 0. -1.
<scales pt_clust_5="13000.00000" pt_clust_6="13000.00000" pt_clust_7="13000.00000" pt_clust_8="13000.00000" pt_clust_9="84.21966" pt_clust_10="124.52565"></scales>
<clustering>
<clus scale="   81.298">  5  6 -1 -1</clus>
<clus scale="   95.605">  7  8 -1 -1</clus>
<clus scale="  124.526">  2 10  1 -1</clus>
<clus scale="   84.220">  2  9  1 -1</clus>
<clus scale="  125.813">  2  5  1 -1</clus>
<clus scale="  124.526">  2  5  1 -1</clus>
</clustering>
</event>
<event>
10    4  0.5389768E-005  0.1229565E+03  0.7546771E-02  0.1240758E+00
         21   -1    0    0  501  502  0.00000000000E+00  0.00000000000E+00  0.60625360732E+02  0.60625360732E+02  0.00000000000E+00 0. -1.
          2   -1    0    0  503    0 -0.00000000000E+00 -0.00000000000E+00 -0.54930106933E+03  0.54930106933E+03  0.00000000000E+00 0. -1.
         24    2    1    2    0    0 -0.42361414170E+01 -0.60596814401E+02 -0.95636505643E+02  0.13931788102E+03  0.81075347362E+02 0.  0.
         23    2    1    2    0    0  0.29927517466E+02  0.11168385787E+03 -0.18198954680E+03  0.23345411897E+03  0.89508044926E+02 0.  0.
        -13    1    3    3    0    0 -0.97042955303E+01 -0.51091334203E+02 -0.99693816753E+01  0.52951736076E+02  0.00000000000E+00 0.  1.
         14    1    3    3    0    0  0.54681541133E+01 -0.95054801974E+01 -0.85667123968E+02  0.86366144942E+02  0.00000000000E+00 0. -1.
        -11    1    4    4    0    0 -0.27206811784E+02  0.61146322595E+02 -0.61753909210E+02  0.91063871415E+02  0.00000000000E+00 0.  1.
         11    1    4    4    0    0  0.57134329250E+02  0.50537535276E+02 -0.12023563759E+03  0.14239024755E+03  0.00000000000E+00 0. -1.
         21    1    1    2  503  502 -0.58453402061E+01  0.24457133999E+02 -0.87014561597E+02  0.90575125368E+02  0.00000000000E+00 0.  1.
          1    1    1    2  501    0 -0.19846035843E+02 -0.75544177469E+02 -0.12403509456E+03  0.14657930471E+03  0.00000000000E+00 0. -1.
<scales pt_clust_5="13000.00000" pt_clust_6="13000.00000" pt_clust_7="13000.00000" pt_clust_8="13000.00000" pt_clust_9="25.14596" pt_clust_10="71.67861"></scales>
<clustering>
<clus scale="   25.146">  2  9  1 -1</clus>
<clus scale="   71.679">  1 10  2 -1</clus>
<clus scale="   81.075">  5  6 -1 -1</clus>
<clus scale="   89.508">  7  8 -1 -1</clus>
<clus scale="  116.961">  2  5  1 -1</clus>
<clus scale="   71.679">  1  5  2 -1</clus>
</clustering>
</event>
<event>
10    4  0.5389768E-005  0.3410797E+03  0.7546771E-02  0.1066641E+00
         21   -1    0    0  503  502  0.00000000000E+00  0.00000000000E+00  0.50166099135E+03  0.50166099135E+03  0.00000000000E+00 0. -1.
          2   -1    0    0  502    0 -0.00000000000E+00 -0.00000000000E+00 -0.55057099270E+03  0.55057099270E+03  0.00000000000E+00 0. -1.
         24    2    1    2    0    0 -0.16438479395E+03 -0.31289685022E+03 -0.24941502329E+03  0.44010854468E+03  0.80999246286E+02 0.  0.
         23    2    1    2    0    0 -0.49988862684E+02  0.29562424207E+03  0.21188909271E+03  0.37853191242E+03  0.92178317479E+02 0.  0.
        -13    1    3    3    0    0 -0.31789973274E+02 -0.14614770073E+03 -0.10167127826E+03  0.18085021883E+03  0.00000000000E+00 0.  1.
         14    1    3    3    0    0 -0.13259482067E+03 -0.16674914949E+03 -0.14774374503E+03  0.25925832585E+03  0.00000000000E+00 0. -1.
        -11    1    4    4    0    0 -0.63756138254E+02  0.16483724239E+03  0.15563424833E+03  0.23549560696E+03  0.00000000000E+00 0. -1.
         11    1    4    4    0    0  0.13767275570E+02  0.13078699968E+03  0.56254844384E+02  0.14303630546E+03  0.00000000000E+00 0.  1.
         21    1    1    2  503  501  0.52038310265E+02 -0.20692751573E+02 -0.33745259589E+02  0.65382858974E+02  0.00000000000E+00 0. -1.
          1    1    1    2  501    0  0.16233534636E+03  0.37965359719E+02  0.22361188814E+02  0.16820866798E+03  0.00000000000E+00 0. -1.
<scales pt_clust_5="13000.00000" pt_clust_6="13000.00000" pt_clust_7="13000.00000" pt_clust_8="13000.00000" pt_clust_9="52.42216" pt_clust_10="233.31408"></scales>
<clustering>
<clus scale="   52.422">  9 10 -1 -1</clus>
<clus scale="   80.999">  5  6 -1 -1</clus>
<clus scale="   92.178">  7  8 -1 -1</clus>
<clus scale="  233.314">  1  9  2 -1</clus>
<clus scale="  338.230">  2  5  1 -1</clus>
<clus scale="  233.314">  1  5  2 -1</clus>
</clustering>
</event>
<event>
10    4  0.5389768E-005  0.1591608E+03  0.7546771E-02  0.1205047E+00
         21   -1    0    0  501  502  0.00000000000E+00  0.00000000000E+00  0.87267512671E+02  0.87267512671E+02  0.00000000000E+00 0. -1.
          2   -1    0    0  503    0 -0.00000000000E+00 -0.00000000000E+00 -0.13532226587E+04  0.13532226587E+04  0.00000000000E+00 0. -1.
         23    2    1    2    0    0  0.42846144567E+02  0.41827889522E+02 -0.52775343852E+02  0.12538815562E+03  0.96703610088E+02 0.  0.
         24    2    1    2    0    0  0.83373036637E+02 -0.50625541208E+02 -0.14320423661E+03  0.19101117311E+03  0.80397799781E+02 0.  0.
        -11    1    4    4    0    0  0.55752975546E+01  0.20197432644E+02 -0.19544936475E+02  0.28653529800E+02  0.00000000000E+00 0.  1.
         12    1    4    4    0    0  0.77797739082E+02 -0.70822973852E+02 -0.12365930013E+03  0.16235764331E+03  0.00000000000E+00 0. -1.
        -11    1    3    3    0    0  0.64697641030E+02  0.56278312738E+02 -0.30537779588E+02  0.91025212011E+02  0.00000000000E+00 0. -1.
         11    1    3    3    0    0 -0.21851496463E+02 -0.14450423216E+02 -0.22237564263E+02  0.34362943605E+02  0.00000000000E+00 0.  1.
         21    1    1    2  503  502  0.51074990237E+02  0.10767472208E+03 -0.60664496103E+03  0.61823992846E+03  0.00000000000E+00 0. -1.
          1    1    1    2  501    0 -0.17729417144E+03 -0.98877070396E+02 -0.46333060457E+03  0.50585091421E+03  0.00000000000E+00 0. -1.
<scales pt_clust_5="13000.00000" pt_clust_6="13000.00000" pt_clust_7="13000.00000" pt_clust_8="13000.00000" pt_clust_9="13000.00000" pt_clust_10="159.16077"></scales>
<clustering>
<clus scale="   80.398">  5  6 -1 -1</clus>
<clus scale="   96.704">  7  8 -1 -1</clus>
<clus scale="  113.741">  2  7  1 -1</clus>
<clus scale="  128.160">  2  5  1 -1</clus>
<clus scale="  159.161">  1 10  2 -1</clus>
<clus scale="  159.161">  1  5  2 -1</clus>
</clustering>
</event>
<event>
10    4  0.5389768E-005  0.1560082E+03  0.7546771E-02  0.1194941E+00
          2   -1    0    0  503    0 -0.00000000000E+00  0.00000000000E+00  0.22716370542E+04  0.22716370542E+04  0.00000000000E+00 0. -1.
         21   -1    0    0  501  502  0.00000000000E+00 -0.00000000000E+00 -0.40040958714E+02  0.40040958714E+02  0.00000000000E+00 0.  1.
         24    2    1    2    0    0 -0.69009797168E+02 -0.10061592355E+03  0.19573806816E+04  0.19637318242E+04  0.10008810337E+03 0.  0.
         23    2    1    2    0    0  0.63254627613E+02  0.76068727634E+02  0.12891813345E+03  0.18631363809E+03  0.91133349371E+02 0.  0.
        -13    1    3    3    0    0 -0.39825250173E+02 -0.10801703560E+02  0.22323945064E+03  0.22702109962E+03  0.00000000000E+00 0.  1.
         14    1    3    3    0    0 -0.29184546995E+02 -0.89814219995E+02  0.17341412310E+04  0.17367107246E+04  0.00000000000E+00 0. -1.
        -11    1    4    4    0    0  0.59184128586E+02  0.31628940579E+02  0.12454635954E+03  0.14147419069E+03  0.00000000000E+00 0.  1.
         11    1    4    4    0    0  0.40704990274E+01  0.44439787055E+02  0.43717739168E+01  0.44839447398E+02  0.00000000000E+00 0. -1.
         21    1    1    2  503  502  0.26486442905E+02  0.23323060016E+02  0.13276773928E+03  0.13737819834E+03  0.00000000000E+00 0. -1.
          1    1    1    2  501    0 -0.20731273350E+02  0.12241359043E+01  0.12529541138E+02  0.24254352281E+02  0.00000000000E+00 0. -1.
<scales pt_clust_5="13000.00000" pt_clust_6="13000.00000" pt_clust_7="13000.00000" pt_clust_8="13000.00000" pt_clust_9="34.31094" pt_clust_10="20.76738"></scales>
<clustering>
<clus scale="   20.767">  2 10  1 -1</clus>
<clus scale="   34.311">  2  9  1 -1</clus>
<clus scale="   91.133">  7  8 -1 -1</clus>
<clus scale="  100.088">  5  6 -1 -1</clus>
<clus scale="  150.420">  2  7  1 -1</clus>
<clus scale="   20.767">  2  5  1 -1</clus>
</clustering>
</event>
<event>
10    4  0.5389768E-005  0.1161922E+03  0.7546771E-02  0.1252723E+00
         21   -1    0    0  501  502  0.00000000000E+00  0.00000000000E+00  0.16746038315E+03  0.16746038315E+03  0.00000000000E+00 0.  1.
          2   -1    0    0  503    0 -0.00000000000E+00 -0.00000000000E+00 -0.29514334167E+03  0.29514334167E+03  0.00000000000E+00 0. -1.
         24    2    1    2    0    0  0.10290331398E+01 -0.61749641436E+02 -0.11660242624E+03  0.15465401129E+03  0.80670070502E+02 0.  0.
         23    2    1    2    0    0 -0.97690283922E+02  0.63062004635E+02  0.56886689919E+02  0.15775250360E+03  0.90164011110E+02 0.  0.
        -11    1    3    3    0    0 -0.27287645177E+02 -0.38074035511E+02 -0.19439086610E+02  0.50716130053E+02  0.00000000000E+00 0.  1.
         12    1    3    3    0    0  0.28316678317E+02 -0.23675605925E+02 -0.97163339631E+02  0.10393788123E+03  0.00000000000E+00 0. -1.
        -13    1    4    4    0    0 -0.29956402555E+02  0.18135567704E+02  0.67244486772E+02  0.75816263896E+02  0.00000000000E+00 0.  1.
         13    1    4    4    0    0 -0.67733881367E+02  0.44926436931E+02 -0.10357796853E+02  0.81936239699E+02  0.00000000000E+00 0. -1.
         21    1    1    2  503  502  0.14496560563E+02 -0.15601980068E+02 -0.63167575890E+02  0.66661193314E+02  0.00000000000E+00 0.  1.
          1    1    1    2  501    0  0.82164690219E+02  0.14289616869E+02 -0.47996463051E+01  0.83536016626E+02  0.00000000000E+00 0. -1.
<scales pt_clust_5="13000.00000" pt_clust_6="13000.00000" pt_clust_7="13000.00000" pt_clust_8="13000.00000" pt_clust_9="21.29723" pt_clust_10="85.69359"></scales>
<clustering>
<clus scale="   21.297">  2  9  1 -1</clus>
<clus scale="   80.670">  5  6 -1 -1</clus>
<clus scale="   85.694">  1 10  2 -1</clus>
<clus scale="   90.164">  7  8 -1 -1</clus>
<clus scale="  108.990">  2  5  1 -1</clus>
<clus scale="   85.694">  1  5  2 -1</clus>
</clustering>
</event>
<event>
10    4  0.5389768E-005  0.1741839E+03  0.7546771E-02  0.1175027E+00
         -1   -1    0    0    0  501 -0.00000000000E+00  0.00000000000E+00  0.55819285669E+03  0.55819285669E+03  0.00000000000E+00 0.  1.
         21   -1    0    0  503  502  0.00000000000E+00 -0.00000000000E+00 -0.16392453055E+03  0.16392453055E+03  0.00000000000E+00 0.  1.
         23    2    1    2    0    0 -0.58895404829E+02 -0.14669730946E+03  0.18049865647E+03  0.25641485938E+03  0.90443605698E+02 0.  0.
         24    2    1    2    0    0 -0.46809721738E+02  0.15344519725E+03  0.14471276209E+03  0.22998985674E+03  0.78847777934E+02 0.  0.
        -11    1    4    4    0    0 -0.22742972294E+02  0.14784664606E+03  0.13990881544E+03  0.20481784634E+03  0.00000000000E+00 0.  1.
         12    1    4    4    0    0 -0.24066749444E+02  0.55985511812E+01  0.48039466449E+01  0.25172010398E+02  0.00000000000E+00 0. -1.
        -11    1    3    3    0    0 -0.25334832898E+01 -0.10136093137E+03  0.65996633778E+02  0.12097938922E+03  0.00000000000E+00 0. -1.
         11    1    3    3    0    0 -0.56361921539E+02 -0.45336378091E+02  0.11450202269E+03  0.13543547016E+03  0.00000000000E+00 0.  1.
         21    1    1    2  503  501 -0.12521687342E+02  0.16166250443E+02  0.10739975794E+03  0.10932908265E+03  0.00000000000E+00 0. -1.
         -2    1    1    2    0  502  0.11822681391E+03 -0.22914138231E+02 -0.38342850365E+02  0.12638358846E+03  0.00000000000E+00 0.  1.
<scales pt_clust_5="13000.00000" pt_clust_6="13000.00000" pt_clust_7="13000.00000" pt_clust_8="13000.00000" pt_clust_9="20.44848" pt_clust_10="118.93021"></scales>
<clustering>
<clus scale="   20.448">  1  9  2 -1</clus>
<clus scale="   78.848">  5  6 -1 -1</clus>
<clus scale="   90.444">  7  8 -1 -1</clus>
<clus scale="  118.930">  2 10  1 -1</clus>
<clus scale="  168.455">  2  5  1 -1</clus>
<clus scale="  118.930">  2  5  1 -1</clus>
</clustering>
</event>
<event>
10    4  0.5389768E-005  0.1344779E+03  0.7546771E-02  0.1240308E+00
          2   -1    0    0  502    0 -0.00000000000E+00  0.00000000000E+00  0.76683565322E+03  0.76683565322E+03  0.00000000000E+00 0. -1.
         21   -1    0    0  503  502  0.00000000000E+00 -0.00000000000E+00 -0.49956632451E+02  0.49956632451E+02  0.00000000000E+00 0. -1.
         24    2    1    2    0    0  0.46912996771E+02  0.91914993391E+01  0.29099219294E+03  0.30533281318E+03  0.79160327998E+02 0.  0.
         23    2    1    2    0    0 -0.56397530964E+02 -0.88793849769E+02  0.26609532361E+03  0.30037333660E+03  0.91391415552E+02 0.  0.
        -11    1    3    3    0    0  0.37446338500E+02  0.43201723017E+02  0.17954889690E+03  0.18843148229E+03  0.00000000000E+00 0.  1.
         12    1    3    3    0    0  0.94666582708E+01 -0.34010223677E+02  0.11144329604E+03  0.11690133089E+03  0.00000000000E+00 0. -1.
        -13    1    4    4    0    0 -0.64304487853E+02 -0.19190059724E+02  0.15678511454E+03  0.17054294970E+03  0.00000000000E+00 0.  1.
         13    1    4    4    0    0  0.79069568893E+01 -0.69603790045E+02  0.10931020907E+03  0.12983038690E+03  0.00000000000E+00 0. -1.
         21    1    1    2  503  501 -0.25293785835E+02 -0.19849239608E+02  0.44579460607E+02  0.54964499661E+02  0.00000000000E+00 0.  1.
          1    1    1    2  501    0  0.34778320029E+02  0.99451590038E+02  0.11521204361E+03  0.15612163623E+03  0.00000000000E+00 0. -1.
<scales pt_clust_5="13000.00000" pt_clust_6="13000.00000" pt_clust_7="13000.00000" pt_clust_8="13000.00000" pt_clust_9="32.15226" pt_clust_10="98.65048"></scales>
<clustering>
<clus scale="   32.152">  2  9  1 -1</clus>
<clus scale="   79.160">  5  6 -1 -1</clus>
<clus scale="   90.220">  1  5  2 -1</clus>
<clus scale="   91.391">  7  8 -1 -1</clus>
<clus scale="   98.650">  2 10  1 -1</clus>
<clus scale="   32.152">  2  5  1 -1</clus>
</clustering>
</event>
<event>
10    4  0.5389768E-005  0.1075999E+03  0.7546771E-02  0.1270338E+00
          2   -1    0    0  503    0 -0.00000000000E+00  0.00000000000E+00  0.24739819190E+03  0.24739819190E+03  0.00000000000E+00 0. -1.
         21   -1    0    0  501  502  0.00000000000E+00 -0.00000000000E+00 -0.15925195825E+03  0.15925195825E+03  0.00000000000E+00 0. -1.
         23    2    1    2    0    0 -0.49647122124E+02 -0.16204569956E+02  0.16307054383E+03  0.19480473512E+03  0.92894874644E+02 0.  0.
         24    2    1    2    0    0  0.59910867179E+02  0.22960824383E+02 -0.39606700132E+02  0.11034885800E+03  0.80570889934E+02 0.  0.
        -13    1    4    4    0    0  0.57523511458E+02 -0.49162427834E+01  0.47250077926E+01  0.57926241999E+02  0.00000000000E+00 0.  1.
         14    1    4    4    0    0  0.23873557211E+01  0.27877067166E+02 -0.44331707924E+02  0.52422616003E+02  0.00000000000E+00 0. -1.
        -13    1    3    3    0    0 -0.27262594942E+02 -0.55156735420E+02  0.89730293548E+02  0.10879816233E+03  0.00000000000E+00 0.  1.
         13    1    3    3    0    0 -0.22384527181E+02  0.38952165463E+02  0.73340250286E+02  0.86006572792E+02  0.00000000000E+00 0. -1.
         21    1    1    2  503  502  0.35251752869E+02  0.21302578606E+02 -0.10260012270E+02  0.42447070421E+02  0.00000000000E+00 0. -1.
          1    1    1    2  501    0 -0.45515497924E+02 -0.28058833033E+02 -0.25057597785E+02  0.59049486612E+02  0.00000000000E+00 0. -1.
<scales pt_clust_5="13000.00000" pt_clust_6="13000.00000" pt_clust_7="13000.00000" pt_clust_8="13000.00000" pt_clust_9="41.18842" pt_clust_10="40.43650"></scales>
<clustering>
<clus scale="   41.188">  2  9  1 -1</clus>
<clus scale="   40.437">  2 10  1 -1</clus>
<clus scale="   80.571">  5  6 -1 -1</clus>
<clus scale="   92.895">  7  8 -1 -1</clus>
<clus scale="   97.159">  2  5  1 -1</clus>
<clus scale="   41.188">  2  5  1 -1</clus>
</clustering>
</event>
<event>
10    4  0.5389768E-005  0.1623846E+03  0.7546771E-02  0.1187747E+00
          2   -1    0    0  503    0 -0.00000000000E+00  0.00000000000E+00  0.10955242254E+04  0.10955242254E+04  0.00000000000E+00 0. -1.
         21   -1    0    0  501  502  0.00000000000E+00 -0.00000000000E+00 -0.52988153483E+02  0.52988153483E+02  0.00000000000E+00 0.  1.
         24    2    1    2    0    0 -0.13103495189E+03  0.69483718873E+02  0.66940172464E+03  0.69053226711E+03  0.82085304160E+02 0.  0.
         23    2    1    2    0    0  0.58113089707E+02 -0.80603186890E+02  0.13093308711E+03  0.18892120066E+03  0.93132925578E+02 0.  0.
        -11    1    3    3    0    0 -0.61572992609E+02 -0.10338869982E+02  0.20893903378E+03  0.21806798363E+03  0.00000000000E+00 0.  1.
         12    1    3    3    0    0 -0.69461959284E+02  0.79822588855E+02  0.46046269086E+03  0.47246428347E+03  0.00000000000E+00 0. -1.
        -11    1    4    4    0    0  0.44714473549E+02 -0.24333419311E+02  0.60149044759E+01  0.51260886805E+02  0.00000000000E+00 0.  1.
         11    1    4    4    0    0  0.13398616158E+02 -0.56269767579E+02  0.12491818263E+03  0.13766031385E+03  0.00000000000E+00 0. -1.
         21    1    1    2  503  502  0.36802381534E+02  0.49703626783E+02  0.10273332417E+03  0.11991247516E+03  0.00000000000E+00 0. -1.
          1    1    1    2  501    0  0.36119480652E+02 -0.38584158765E+02  0.13946793603E+03  0.14914643600E+03  0.00000000000E+00 0. -1.
<scales pt_clust_5="13000.00000" pt_clust_6="13000.00000" pt_clust_7="13000.00000" pt_clust_8="13000.00000" pt_clust_9="60.85882" pt_clust_10="52.85222"></scales>
<clustering>
<clus scale="   52.852">  2 10  1 -1</clus>
<clus scale="   60.859">  2  9  1 -1</clus>
<clus scale="   82.085">  5  6 -1 -1</clus>
<clus scale="   93.133">  7  8 -1 -1</clus>
<clus scale="  156.311">  1  5  2 -1</clus>
<clus scale="   52.852">  2  5  1 -1</clus>
</clustering>
</event>
<event>
10    4  0.5389768E-005  0.1096726E+03  0.7546771E-02  0.1264302E+00
          2   -1    0    0  503    0 -0.00000000000E+00  0.00000000000E+00  0.49141889110E+03  0.49141889110E+03  0.00000000000E+00 0. -1.
         21   -1    0    0  501  502  0.00000000000E+00 -0.00000000000E+00 -0.80945761828E+02  0.80945761828E+02  0.00000000000E+00 0.  1.
         24    2    1    2    0    0  0.10069898188E+03  0.78361878789E+01  0.16180329974E+03  0.20772615471E+03  0.82268807905E+02 0.  0.
         23    2    1    2    0    0 -0.93862986135E+01  0.78585424717E+01  0.31606558415E+01  0.91173472072E+02  0.90292596445E+02 0.  0.
        -11    1    3    3    0    0  0.76458140604E+02  0.40262677740E+02  0.13065373549E+03  0.15664395641E+03  0.00000000000E+00 0.  1.
         12    1    3    3    0    0  0.24240841279E+02 -0.32426489861E+02  0.31149564250E+02  0.51082198304E+02  0.00000000000E+00 0. -1.
        -13    1    4    4    0    0 -0.35131355877E+02 -0.25026879043E+02  0.18154856843E+02  0.46799099002E+02  0.00000000000E+00 0. -1.
         13    1    4    4    0    0  0.25745057263E+02  0.32885421515E+02 -0.14994201001E+02  0.44374373070E+02  0.00000000000E+00 0.  1.
         21    1    1    2  503  502 -0.36444367976E+02  0.27103925503E+02  0.59414516446E+02  0.74785690472E+02  0.00000000000E+00 0.  1.
          1    1    1    2  501    0 -0.54868315294E+02 -0.42798655854E+02  0.18609465725E+03  0.19867933567E+03  0.00000000000E+00 0. -1.
<scales pt_clust_5="13000.00000" pt_clust_6="13000.00000" pt_clust_7="13000.00000" pt_clust_8="13000.00000" pt_clust_9="45.41822" pt_clust_10="77.63828"></scales>
<clustering>
<clus scale="   45.418">  1  9  2 -1</clus>
<clus scale="   77.638">  2 10  1 -1</clus>
<clus scale="   82.269">  5  6 -1 -1</clus>
<clus scale="   90.293">  7  8 -1 -1</clus>
<clus scale="  103.167">  1  5  2 -1</clus>
<clus scale="   77.638">  2  5  1 -1</clus>
</clustering>
</event>
<event>
10    4  0.5389768E-005  0.1069221E+03  0.7546771E-02  0.1269300E+00
          2   -1    0    0  503    0 -0.00000000000E+00  0.00000000000E+00  0.42491365971E+03  0.42491365971E+03  0.00000000000E+00 0. -1.
         21   -1    0    0  501  502  0.00000000000E+00 -0.00000000000E+00 -0.58778501344E+02  0.58778501344E+02  0.00000000000E+00 0. -1.
         24    2    1    2    0    0 -0.37847628476E+02 -0.33714907325E+02  0.15474237917E+03  0.18252217777E+03  0.82462133790E+02 0.  0.
         23    2    1    2    0    0  0.69466433387E+02  0.17648300704E+02  0.17456740878E+03  0.20889319755E+03  0.89585377657E+02 0.  0.
        -11    1    3    3    0    0 -0.52294349155E+02 -0.74646351869E+01  0.47052064967E+02  0.70741194150E+02  0.00000000000E+00 0.  1.
         12    1    3    3    0    0  0.14446720679E+02 -0.26250272138E+02  0.10769031421E+03  0.11178098362E+03  0.00000000000E+00 0. -1.
        -11    1    4    4    0    0  0.50864082882E+02 -0.18206966669E+02  0.15473204902E+03  0.16389220712E+03  0.00000000000E+00 0.  1.
         11    1    4    4    0    0  0.18602350505E+02  0.35855267373E+02  0.19835359765E+02  0.45000990430E+02  0.00000000000E+00 0. -1.
         21    1    1    2  503  502 -0.35394302261E+02 -0.15053735985E+02  0.45665958847E+02  0.59705539082E+02  0.00000000000E+00 0. -1.
          1    1    1    2  501    0  0.37754973504E+01  0.31120342606E+02 -0.88405884378E+01  0.32571246646E+02  0.00000000000E+00 0. -1.
<scales pt_clust_5="13000.00000" pt_clust_6="13000.00000" pt_clust_7="13000.00000" pt_clust_8="13000.00000" pt_clust_9="35.92698" pt_clust_10="31.34853"></scales>
<clustering>
<clus scale="   31.349">  2 10  1 -1</clus>
<clus scale="   35.927">  2  9  1 -1</clus>
<clus scale="   82.462">  5  6 -1 -1</clus>
<clus scale="   89.585">  7  8 -1 -1</clus>
<clus scale="  101.029">  1  5  2 -1</clus>
<clus scale="   31.349">  2  5  1 -1</clus>
</clustering>
</event>
<event>
10    4  0.5389768E-005  0.3404786E+03  0.7546771E-02  0.1066916E+00
         21   -1    0    0  503  502  0.00000000000E+00  0.00000000000E+00  0.34393333491E+03  0.34393333491E+03  0.00000000000E+00 0. -1.
         -1   -1    0    0    0  501 -0.00000000000E+00 -0.00000000000E+00 -0.73834958031E+03  0.73834958031E+03  0.00000000000E+00 0.  1.
         24    2    1    2    0    0 -0.81222736871E+02  0.33668609796E+03 -0.46938169971E+03  0.58898657425E+03  0.81433058919E+02 0.  0.
         23    2    1    2    0    0  0.14529330896E+03 -0.30002499191E+03  0.61476745060E+02  0.35155161984E+03  0.93188034784E+02 0.  0.
        -11    1    3    3    0    0 -0.59998644846E+02  0.11306060032E+03 -0.20923073619E+03  0.24527543231E+03  0.00000000000E+00 0.  1.
         12    1    3    3    0    0 -0.21224092025E+02  0.22362549764E+03 -0.26015096352E+03  0.34371114194E+03  0.00000000000E+00 0. -1.
        -11    1    4    4    0    0  0.14156723517E+03 -0.27128697266E+03  0.81083283592E+02  0.31656342569E+03  0.00000000000E+00 0. -1.
         11    1    4    4    0    0  0.37260737988E+01 -0.28738019252E+02 -0.19606538533E+02  0.34988194148E+02  0.00000000000E+00 0.  1.
         21    1    1    2  503  501 -0.36276035335E+02 -0.39782573517E+02 -0.49304790571E+02  0.73003878448E+02  0.00000000000E+00 0.  1.
         -2    1    1    2    0  502 -0.27794536758E+02  0.31214674701E+01  0.62793499821E+02  0.68740842681E+02  0.00000000000E+00 0.  1.
<scales pt_clust_5="13000.00000" pt_clust_6="13000.00000" pt_clust_7="13000.00000" pt_clust_8="13000.00000" pt_clust_9="54.54673" pt_clust_10="27.96927"></scales>
<clustering>
<clus scale="   27.969">  1 10  2 -1</clus>
<clus scale="   54.547">  2  9  1 -1</clus>
<clus scale="   81.433">  5  6 -1 -1</clus>
<clus scale="   93.188">  7  8 -1 -1</clus>
<clus scale="  337.451">  2  5  1 -1</clus>
<clus scale="   27.969">  1  5  2 -1</clus>
</clustering>
</event>
<event>
10    4  0.5389768E-005  0.1151520E+03  0.7546771E-02  0.1255890E+00
         -1   -1    0    0    0  501 -0.00000000000E+00  0.00000000000E+00  0.56043671418E+03  0.56043671418E+03  0.00000000000E+00 0.  1.
         21   -1    0    0  503  502  0.00000000000E+00 -0.00000000000E+00 -0.67349772758E+02  0.67349772758E+02  0.00000000000E+00 0. -1.
         24    2    1    2    0    0  0.42923203695E+02 -0.68946996969E+02  0.37424992438E+03  0.39115583368E+03  0.79647915935E+02 0.  0.
         23    2    1    2    0    0 -0.73554881581E+02  0.34292568111E+02  0.31395663976E+02  0.12695986739E+03  0.92449009620E+02 0.  0.
        -13    1    3    3    0    0  0.22051421954E+02 -0.84640479667E+02  0.29700624884E+03  0.30961748636E+03  0.00000000000E+00 0.  1.
         14    1    3    3    0    0  0.20871781741E+02  0.15693482698E+02  0.77243675540E+02  0.81538347317E+02  0.00000000000E+00 0. -1.
        -11    1    4    4    0    0 -0.37633546123E+02 -0.12124405113E+02  0.51492755143E+02  0.64921404986E+02  0.00000000000E+00 0.  1.
         11    1    4    4    0    0 -0.35921335458E+02  0.46416973224E+02 -0.20097091167E+02  0.62038462406E+02  0.00000000000E+00 0. -1.
         21    1    1    2  503  501  0.10491388436E+02  0.34391483217E+02  0.80838179809E+02  0.88474033841E+02  0.00000000000E+00 0.  1.
         -2    1    1    2    0  502  0.20140289450E+02  0.26294564082E+00  0.66031732560E+01  0.21196752029E+02  0.00000000000E+00 0.  1.
<scales pt_clust_5="13000.00000" pt_clust_6="13000.00000" pt_clust_7="13000.00000" pt_clust_8="13000.00000" pt_clust_9="36.36620" pt_clust_10="20.14201"></scales>
<clustering>
<clus scale="   20.142">  2 10  1 -1</clus>
<clus scale="   36.366">  1  9  2 -1</clus>
<clus scale="   79.648">  5  6 -1 -1</clus>
<clus scale="   92.449">  7  8 -1 -1</clus>
<clus scale="  105.152">  1  5  2 -1</clus>
<clus scale="   20.142">  2  5  1 -1</clus>
</clustering>
</event>
<event>
10    4  0.5389768E-005  0.1080708E+03  0.7546771E-02  0.1269154E+00
          2   -1    0    0  503    0 -0.00000000000E+00  0.00000000000E+00  0.17265015500E+03  0.17265015500E+03  0.00000000000E+00 0. -1.
         21   -1    0    0  501  502  0.00000000000E+00 -0.00000000000E+00 -0.20224301825E+03  0.20224301825E+03  0.00000000000E+00 0. -1.
         24    2    1    2    0    0  0.12535110797E+01 -0.34027085976E+02 -0.36860841910E+02  0.94279127424E+02  0.79814900435E+02 0.  0.
         23    2    1    2    0    0  0.11392684285E+02  0.94646333621E+02 -0.53301614958E+02  0.14265816331E+03  0.91774548094E+02 0.  0.
        -11    1    3    3    0    0 -0.32501357433E+02 -0.10795832746E+02 -0.40619694531E+02  0.53130479232E+02  0.00000000000E+00 0.  1.
         12    1    3    3    0    0  0.33754868513E+02 -0.23231253230E+02  0.37588526207E+01  0.41148648192E+02  0.00000000000E+00 0. -1.
        -13    1    4    4    0    0  0.37663265426E+02  0.98016261910E+02 -0.35915911772E+02  0.11097595181E+03  0.00000000000E+00 0.  1.
         13    1    4    4    0    0 -0.26270581141E+02 -0.33699282890E+01 -0.17385703187E+02  0.31682211499E+02  0.00000000000E+00 0. -1.
         21    1    1    2  503  502 -0.24298071324E+02  0.18790443021E+02  0.47606776481E+02  0.56655822171E+02  0.00000000000E+00 0. -1.
          1    1    1    2  501    0  0.11651875959E+02 -0.79409690666E+02  0.12962817141E+02  0.81300060352E+02  0.00000000000E+00 0. -1.
<scales pt_clust_5="13000.00000" pt_clust_6="13000.00000" pt_clust_7="13000.00000" pt_clust_8="13000.00000" pt_clust_9="30.71607" pt_clust_10="72.09338"></scales>
<clustering>
<clus scale="   30.716">  1  9  2 -1</clus>
<clus scale="   72.093">  2 10  1 -1</clus>
<clus scale="   79.815">  5  6 -1 -1</clus>
<clus scale="   91.775">  7  8 -1 -1</clus>
<clus scale="   98.118">  1  5  2 -1</clus>
<clus scale="   72.093">  2  5  1 -1</clus>
</clustering>
</event>
<event>
10    4  0.5389768E-005  0.1013684E+03  0.7546771E-02  0.1277465E+00
         21   -1    0    0  501  502  0.00000000000E+00  0.00000000000E+00  0.16918600670E+03  0.16918600670E+03  0.00000000000E+00 0. -1.
          4   -1    0    0  503    0 -0.00000000000E+00 -0.00000000000E+00 -0.15167095630E+03  0.15167095630E+03  0.00000000000E+00 0. -1.
         24    2    1    2    0    0  0.34818015327E+02  0.87617756906E+02 -0.79283035102E+01  0.12392710829E+03  0.80036895591E+02 0.  0.
         23    2    1    2    0    0  0.13025529115E+02 -0.39888047277E+02 -0.54014927065E+00  0.90415257552E+02  0.80086867293E+02 0.  0.
        -13    1    3    3    0    0  0.58587683357E+02  0.50203329478E+02 -0.16195067241E+02  0.78836356681E+02  0.00000000000E+00 0.  1.
         14    1    3    3    0    0 -0.23769668030E+02  0.37414427428E+02  0.82667637304E+01  0.45090751609E+02  0.00000000000E+00 0. -1.
        -11    1    4    4    0    0  0.36652043029E+02 -0.17080439092E+02  0.26100993608E+02  0.48128739077E+02  0.00000000000E+00 0.  1.
         11    1    4    4    0    0 -0.23626513915E+02 -0.22807608185E+02 -0.26641142879E+02  0.42286518475E+02  0.00000000000E+00 0. -1.
         21    1    1    2  503  502 -0.27428599988E+02 -0.29468530511E+02 -0.25882390889E+02  0.47860427765E+02  0.00000000000E+00 0. -1.
          3    1    1    2  501    0 -0.20414944454E+02 -0.18261179119E+02  0.51865894069E+02  0.58654169395E+02  0.00000000000E+00 0. -1.
<scales pt_clust_5="13000.00000" pt_clust_6="13000.00000" pt_clust_7="13000.00000" pt_clust_8="13000.00000" pt_clust_9="42.88985" pt_clust_10="27.39052"></scales>
<clustering>
<clus scale="   27.391">  1 10  2 -1</clus>
<clus scale="   42.890">  2  9  1 -1</clus>
<clus scale="   80.037">  5  6 -1 -1</clus>
<clus scale="   80.087">  7  8 -1 -1</clus>
<clus scale="  101.329">  2  5  1 -1</clus>
<clus scale="   27.391">  1  5  2 -1</clus>
</clustering>
</event>
<event>
10    4  0.5389768E-005  0.2152216E+03  0.7546771E-02  0.1138295E+00
         -1   -1    0    0    0  501 -0.00000000000E+00  0.00000000000E+00  0.26406728992E+03  0.26406728992E+03  0.00000000000E+00 0.  1.
         21   -1    0    0  503  502  0.00000000000E+00 -0.00000000000E+00 -0.85625241621E+03  0.85625241621E+03  0.00000000000E+00 0.  1.
         24    2    1    2    0    0  0.64542963595E+02  0.16863114494E+03  0.76324461593E+02  0.21203133736E+03  0.80805986108E+02 0.  0.
         23    2    1    2    0    0 -0.76145462896E+02 -0.11588182482E+03 -0.33355797934E+03  0.37252454534E+03  0.91032315436E+02 0.  0.
        -13    1    3    3    0    0  0.41595653383E+00  0.11229201167E+03  0.47638986870E+02  0.12198008844E+03  0.00000000000E+00 0.  1.
         14    1    3    3    0    0  0.64127007061E+02  0.56339133267E+02  0.28685474723E+02  0.90051248920E+02  0.00000000000E+00 0. -1.
        -11    1    4    4    0    0 -0.81907402251E+02 -0.71155394396E+02 -0.29079626107E+03  0.31037779906E+03  0.00000000000E+00 0.  1.
         11    1    4    4    0    0  0.57619393556E+01 -0.44726430425E+02 -0.42761718268E+02  0.62146746278E+02  0.00000000000E+00 0. -1.
         21    1    1    2  503  501  0.21309263137E+02  0.31327218435E+02  0.92529007789E+02  0.99985481910E+02  0.00000000000E+00 0. -1.
         -2    1    1    2    0  502 -0.97067638369E+01 -0.84076538554E+02 -0.42748061633E+03  0.43577834152E+03  0.00000000000E+00 0.  1.
<scales pt_clust_5="13000.00000" pt_clust_6="13000.00000" pt_clust_7="13000.00000" pt_clust_8="13000.00000" pt_clust_9="37.88772" pt_clust_10="83.80631"></scales>
<clustering>
<clus scale="   37.888">  1  9  2 -1</clus>
<clus scale="   80.806">  5  6 -1 -1</clus>
<clus scale="   83.806">  2 10  1 -1</clus>
<clus scale="   91.032">  7  8 -1 -1</clus>
<clus scale="  211.100">  1  5  2 -1</clus>
<clus scale="   83.806">  2  5  1 -1</clus>
</clustering>
</event>
<event>
10    4  0.5389768E-005  0.1092116E+03  0.7546771E-02  0.1266026E+00
          2   -1    0    0  503    0 -0.00000000000E+00  0.00000000000E+00  0.11399061405E+03  0.11399061405E+03  0.00000000000E+00 0. -1.
         21   -1    0    0  501  502  0.00000000000E+00 -0.00000000000E+00 -0.21097768700E+03  0.21097768700E+03  0.00000000000E+00 0.  1.
         24    2    1    2    0    0 -0.48586509703E+02  0.25662814352E+02  0.57531659228E+01  0.99120274484E+02  0.82295205997E+02 0.  0.
         23    2    1    2    0    0  0.68968344583E+02  0.10329391337E+02 -0.12670253715E+03  0.17149323323E+03  0.92157838752E+02 0.  0.
        -11    1    3    3    0    0 -0.32666875544E+01  0.47991008781E+02 -0.12333142788E+01  0.48117868152E+02  0.00000000000E+00 0.  1.
         12    1    3    3    0    0 -0.45319822149E+02 -0.22328194429E+02  0.69864802017E+01  0.51002406332E+02  0.00000000000E+00 0. -1.
        -11    1    4    4    0    0  0.38513815955E+02  0.89114054633E+01  0.16537142408E+01  0.39565918889E+02  0.00000000000E+00 0. -1.
         11    1    4    4    0    0  0.30454528627E+02  0.14179858741E+01 -0.12835625139E+03  0.13192731434E+03  0.00000000000E+00 0.  1.
         21    1    1    2  503  502 -0.10231953507E+02 -0.18691983194E+02  0.26645335600E+02  0.34118279815E+02  0.00000000000E+00 0. -1.
          1    1    1    2  501    0 -0.10149881373E+02 -0.17300222496E+02 -0.26830373243E+01  0.20236513523E+02  0.00000000000E+00 0. -1.
<scales pt_clust_5="13000.00000" pt_clust_6="13000.00000" pt_clust_7="13000.00000" pt_clust_8="13000.00000" pt_clust_9="21.68470" pt_clust_10="20.05787"></scales>
<clustering>
<clus scale="   20.058">  2 10  1 -1</clus>
<clus scale="   21.685">  1  9  2 -1</clus>
<clus scale="   82.295">  5  6 -1 -1</clus>
<clus scale="   92.158">  7  8 -1 -1</clus>
<clus scale="  101.028">  1  5  2 -1</clus>
<clus scale="   20.058">  2  5  1 -1</clus>
</clustering>
</event>
<event>
10    4  0.5389768E-005  0.1173596E+03  0.7546771E-02  0.1249547E+00
         21   -1    0    0  501  502  0.00000000000E+00  0.00000000000E+00  0.87563804348E+02  0.87563804348E+02  0.00000000000E+00 0.  1.
          2   -1    0    0  503    0 -0.00000000000E+00 -0.00000000000E+00 -0.23655330414E+03  0.23655330414E+03  0.00000000000E+00 0. -1.
         24    2    1    2    0    0 -0.48328680322E+01 -0.66962441790E+02 -0.67064988326E+02  0.12444225279E+03  0.80503642133E+02 0.  0.
         23    2    1    2    0    0  0.10449390439E+02  0.91478319050E+02 -0.57026931346E+02  0.13887192365E+03  0.86924494031E+02 0.  0.
        -13    1    3    3    0    0  0.59996808210E+01 -0.50992641199E+02  0.33280482090E+01  0.51452128540E+02  0.00000000000E+00 0.  1.
         14    1    3    3    0    0 -0.10832548853E+02 -0.15969800591E+02 -0.70393036535E+02  0.72990124251E+02  0.00000000000E+00 0. -1.
        -13    1    4    4    0    0 -0.34764862005E+02  0.15835503977E+02 -0.12941123532E+02  0.40333999240E+02  0.00000000000E+00 0.  1.
         13    1    4    4    0    0  0.45214252444E+02  0.75642815073E+02 -0.44085807814E+02  0.98537924409E+02  0.00000000000E+00 0. -1.
         21    1    1    2  503  502  0.21788335021E+02 -0.13939027755E+02 -0.14430566537E+02  0.29618732051E+02  0.00000000000E+00 0. -1.
          1    1    1    2  501    0 -0.27404857428E+02 -0.10576849505E+02 -0.10467013584E+02  0.31184199997E+02  0.00000000000E+00 0. -1.
<scales pt_clust_5="13000.00000" pt_clust_6="13000.00000" pt_clust_7="13000.00000" pt_clust_8="13000.00000" pt_clust_9="25.86558" pt_clust_10="27.96239"></scales>
<clustering>
<clus scale="   25.866">  2  9  1 -1</clus>
<clus scale="   27.962">  1 10  2 -1</clus>
<clus scale="   80.504">  5  6 -1 -1</clus>
<clus scale="   86.924">  7  8 -1 -1</clus>
<clus scale="  112.686">  2  5  1 -1</clus>
<clus scale="   27.962">  1  5  2 -1</clus>
</clustering>
</event>
<event>
10    4  0.5389768E-005  0.1273596E+03  0.7546771E-02  0.1232536E+00
         -3   -1    0    0    0  501 -0.00000000000E+00  0.00000000000E+00  0.41688521261E+03  0.41688521261E+03  0.00000000000E+00 0.  1.
         21   -1    0    0  503  502  0.00000000000E+00 -0.00000000000E+00 -0.12613397936E+03  0.12613397936E+03  0.00000000000E+00 0. -1.
         24    2    1    2    0    0  0.67114847010E+02 -0.10045686632E+03  0.22111039985E+03  0.26460165286E+03  0.80797531468E+02 0.  0.
         23    2    1    2    0    0 -0.45168602897E+02  0.89855662481E+02  0.93301128029E+01  0.13211183363E+03  0.85160101057E+02 0.  0.
        -13    1    3    3    0    0  0.39213284004E+02 -0.53864286802E+02  0.19147130770E+03  0.20273210083E+03  0.00000000000E+00 0.  1.
         14    1    3    3    0    0  0.27901563006E+02 -0.46592579519E+02  0.29639092156E+02  0.61869552029E+02  0.00000000000E+00 0. -1.
        -11    1    4    4    0    0 -0.54578262157E+02  0.66688639166E+02 -0.24919253173E+02  0.89705799548E+02  0.00000000000E+00 0. -1.
         11    1    4    4    0    0  0.94096592597E+01  0.23167023315E+02  0.34249365976E+02  0.42406034080E+02  0.00000000000E+00 0.  1.
         21    1    1    2  503  501 -0.21304575946E+02  0.32855594969E+02  0.96316697711E+02  0.10397250278E+03  0.00000000000E+00 0. -1.
         -4    1    1    2    0  502 -0.64166816716E+00 -0.22254391128E+02 -0.36005977118E+02  0.42333202699E+02  0.00000000000E+00 0.  1.
<scales pt_clust_5="13000.00000" pt_clust_6="13000.00000" pt_clust_7="13000.00000" pt_clust_8="13000.00000" pt_clust_9="38.35584" pt_clust_10="22.26364"></scales>
<clustering>
<clus scale="   22.264">  2 10  1 -1</clus>
<clus scale="   38.356">  1  9  2 -1</clus>
<clus scale="   80.798">  5  6 -1 -1</clus>
<clus scale="   85.160">  7  8 -1 -1</clus>
<clus scale="  124.485">  1  5  2 -1</clus>
<clus scale="   22.264">  2  5  1 -1</clus>
</clustering>
</event>
<event>
10    4  0.5389768E-005  0.1219437E+03  0.7546771E-02  0.1242511E+00
          2   -1    0    0  503    0 -0.00000000000E+00  0.00000000000E+00  0.43161213066E+03  0.43161213066E+03  0.00000000000E+00 0. -1.
         21   -1    0    0  501  502  0.00000000000E+00 -0.00000000000E+00 -0.16075671482E+03  0.16075671482E+03  0.00000000000E+00 0.  1.
         24    2    1    2    0    0  0.68013015814E+02 -0.12622651445E+02  0.24198379813E+03  0.26413645121E+03  0.80167354010E+02 0.  0.
         23    2    1    2    0    0 -0.83056162084E+02  0.34749685540E+02  0.95779238950E+01  0.12690443601E+03  0.88922058839E+02 0.  0.
        -11    1    3    3    0    0  0.30724796288E+02  0.16984605476E+02  0.19169634988E+03  0.19488453117E+03  0.00000000000E+00 0.  1.
         12    1    3    3    0    0  0.37288219526E+02 -0.29607256921E+02  0.50287448247E+02  0.69251920038E+02  0.00000000000E+00 0. -1.
        -13    1    4    4    0    0 -0.99130228934E+01 -0.18263072390E+02  0.27842676030E+02  0.34742228549E+02  0.00000000000E+00 0. -1.
         13    1    4    4    0    0 -0.73143139191E+02  0.53012757930E+02 -0.18264752135E+02  0.92162207464E+02  0.00000000000E+00 0.  1.
         21    1    1    2  503  502  0.21056416449E+02  0.18252806114E+02  0.10380080509E+03  0.10747625199E+03  0.00000000000E+00 0.  1.
          1    1    1    2  501    0 -0.60132701792E+01 -0.40379840209E+02 -0.84507111271E+02  0.93851706265E+02  0.00000000000E+00 0. -1.
<scales pt_clust_5="13000.00000" pt_clust_6="13000.00000" pt_clust_7="13000.00000" pt_clust_8="13000.00000" pt_clust_9="27.86642" pt_clust_10="40.52274"></scales>
<clustering>
<clus scale="   27.866">  1  9  2 -1</clus>
<clus scale="   40.523">  2 10  1 -1</clus>
<clus scale="   80.167">  5  6 -1 -1</clus>
<clus scale="   88.922">  7  8 -1 -1</clus>
<clus scale="  115.715">  1  5  2 -1</clus>
<clus scale="   40.523">  2  5  1 -1</clus>
</clustering>
</event>
<event>
10    4  0.5389768E-005  0.1319912E+03  0.7546771E-02  0.1240102E+00
         21   -1    0    0  503  502  0.00000000000E+00  0.00000000000E+00  0.17319135720E+03  0.17319135720E+03  0.00000000000E+00 0.  1.
         -3   -1    0    0    0  501 -0.00000000000E+00 -0.00000000000E+00 -0.33907882504E+03  0.33907882504E+03  0.00000000000E+00 0.  1.
         24    2    1    2    0    0 -0.40454679184E+02  0.10796430299E+01 -0.19184487371E+03  0.21092273480E+03  0.77757300553E+02 0.  0.
         23    2    1    2    0    0 -0.29695028961E+02  0.52620195773E+02  0.91262485352E+01  0.10965144278E+03  0.91046530651E+02 0.  0.
        -13    1    3    3    0    0 -0.56242632842E+02 -0.58311569700E+01 -0.81224829441E+02  0.98968222467E+02  0.00000000000E+00 0.  1.
         14    1    3    3    0    0  0.15787953658E+02  0.69107999999E+01 -0.11062004427E+03  0.11195451233E+03  0.00000000000E+00 0. -1.
        -13    1    4    4    0    0 -0.13739893912E+02  0.39457312086E+02 -0.39071086545E+02  0.57203268836E+02  0.00000000000E+00 0.  1.
         13    1    4    4    0    0 -0.15955135048E+02  0.13162883686E+02  0.48197335080E+02  0.52448173945E+02  0.00000000000E+00 0. -1.
         21    1    1    2  503  501 -0.81376809331E+01  0.45069576527E+02 -0.32705590776E+02  0.56277386642E+02  0.00000000000E+00 0.  1.
         -4    1    1    2    0  502  0.78287389078E+02 -0.98769415329E+02  0.49536748113E+02  0.13541861802E+03  0.00000000000E+00 0.  1.
<scales pt_clust_5="13000.00000" pt_clust_6="13000.00000" pt_clust_7="13000.00000" pt_clust_8="13000.00000" pt_clust_9="45.79835" pt_clust_10="95.56256"></scales>
<clustering>
<clus scale="   45.798">  2  9  1 -1</clus>
<clus scale="   77.757">  5  6 -1 -1</clus>
<clus scale="   91.047">  7  8 -1 -1</clus>
<clus scale="   95.816">  2  5  1 -1</clus>
<clus scale="   95.563">  1 10  2 -1</clus>
<clus scale="   95.563">  1  5  2 -1</clus>
</clustering>
</event>
<event>
10    4  0.5389768E-005  0.1551990E+03  0.7546771E-02  0.1207434E+00
         21   -1    0    0  501  502  0.00000000000E+00  0.00000000000E+00  0.12053648588E+04  0.12053648588E+04  0.00000000000E+00 0. -1.
          2   -1    0    0  503    0 -0.00000000000E+00 -0.00000000000E+00 -0.67338242110E+02  0.67338242110E+02  0.00000000000E+00 0. -1.
         24    2    1    2    0    0  0.58815991547E+02 -0.16750041729E+02  0.33067691902E+02  0.10690196337E+03  0.81207590566E+02 0.  0.
         23    2    1    2    0    0 -0.31016978554E+01 -0.98879038677E+02  0.45927917254E+03  0.47831533069E+03  0.89785925522E+02 0.  0.
        -13    1    3    3    0    0  0.22419963820E+02  0.89618774425E+01  0.52882046555E+02  0.58133302614E+02  0.00000000000E+00 0.  1.
         14    1    3    3    0    0  0.36396027727E+02 -0.25711919171E+02 -0.19814354653E+02  0.48768660758E+02  0.00000000000E+00 0. -1.
        -11    1    4    4    0    0 -0.43310520065E+02 -0.28304163298E+02  0.15652031646E+03  0.16485004177E+03  0.00000000000E+00 0.  1.
         11    1    4    4    0    0  0.40208822209E+02 -0.70574875379E+02  0.30275885608E+03  0.31346528892E+03  0.00000000000E+00 0. -1.
         21    1    1    2  503  502  0.24031823279E+02 -0.34599229489E+02  0.38971444262E+02  0.57388227706E+02  0.00000000000E+00 0. -1.
          1    1    1    2  501    0 -0.79746116971E+02  0.15022830990E+03  0.60670830802E+03  0.63009757917E+03  0.00000000000E+00 0. -1.
<scales pt_clust_5="13000.00000" pt_clust_6="13000.00000" pt_clust_7="13000.00000" pt_clust_8="13000.00000" pt_clust_9="42.12642" pt_clust_10="126.59077"></scales>
<clustering>
<clus scale="   42.126">  2  9  1 -1</clus>
<clus scale="   81.208">  5  6 -1 -1</clus>
<clus scale="   89.786">  7  8 -1 -1</clus>
<clus scale="  116.541">  2  5  1 -1</clus>
<clus scale="  126.591">  1 10  2 -1</clus>
<clus scale="  126.591">  1  5  2 -1</clus>
</clustering>
</event>
<event>
10    4  0.5389768E-005  0.1960714E+03  0.7546771E-02  0.1166167E+00
          2   -1    0    0  503    0 -0.00000000000E+00  0.00000000000E+00  0.22252805898E+03  0.22252805898E+03  0.00000000000E+00 0. -1.
         21   -1    0    0  501  502  0.00000000000E+00 -0.00000000000E+00 -0.75635361875E+03  0.75635361875E+03  0.00000000000E+00 0.  1.
         23    2    1    2    0    0 -0.12990077100E+03  0.42039204804E+02 -0.49191458017E+02  0.15900687098E+03  0.64975998884E+02 0.  0.
         24    2    1    2    0    0 -0.37220643983E+01 -0.18622232298E+03 -0.55927329154E+03  0.59489983888E+03  0.80166054761E+02 0.  0.
        -11    1    4    4    0    0  0.33136156616E+02 -0.12278363110E+03 -0.31057363391E+03  0.33560364572E+03  0.00000000000E+00 0.  1.
         12    1    4    4    0    0 -0.36858221014E+02 -0.63438691879E+02 -0.24869965763E+03  0.25929619316E+03  0.00000000000E+00 0. -1.
        -11    1    3    3    0    0 -0.20641086422E+02 -0.92214814994E+01 -0.28793739629E+02  0.36608327080E+02  0.00000000000E+00 0. -1.
         11    1    3    3    0    0 -0.10925968457E+03  0.51260686304E+02 -0.20397718388E+02  0.12239854390E+03  0.00000000000E+00 0.  1.
         21    1    1    2  503  502  0.29146754191E+02  0.12987733546E+02  0.44212395689E+02  0.54524769006E+02  0.00000000000E+00 0. -1.
          1    1    1    2  501    0  0.10447608120E+03  0.13119538463E+03  0.30426794092E+02  0.17045019886E+03  0.00000000000E+00 0. -1.
<scales pt_clust_5="13000.00000" pt_clust_6="13000.00000" pt_clust_7="13000.00000" pt_clust_8="13000.00000" pt_clust_9="31.90947" pt_clust_10="178.93414"></scales>
<clustering>
<clus scale="   31.909">  1  9  2 -1</clus>
<clus scale="   64.976">  7  8 -1 -1</clus>
<clus scale="   80.166">  5  6 -1 -1</clus>
<clus scale="  144.606">  1  7  2 -1</clus>
<clus scale="  178.934">  2 10  1 -1</clus>
<clus scale="  178.934">  2  5  1 -1</clus>
</clustering>
</event>
<event>
10    4  0.5389768E-005  0.1228629E+03  0.7546771E-02  0.1241812E+00
         -1   -1    0    0    0  501 -0.00000000000E+00  0.00000000000E+00  0.11468750762E+03  0.11468750762E+03  0.00000000000E+00 0.  1.
         21   -1    0    0  503  502  0.00000000000E+00 -0.00000000000E+00 -0.62240402674E+03  0.62240402674E+03  0.00000000000E+00 0. -1.
         23    2    1    2    0    0 -0.24493311849E+02 -0.68048345471E+02  0.31372980280E+01  0.11597892973E+03  0.90613298455E+02 0.  0.
         24    2    1    2    0    0  0.45433923675E+02  0.11648505620E+03 -0.12141703144E+03  0.19146310698E+03  0.79265478445E+02 0.  0.
        -11    1    4    4    0    0  0.34616893841E+02  0.82244123397E+02 -0.31480122127E+02  0.94622530412E+02  0.00000000000E+00 0.  1.
         12    1    4    4    0    0  0.10817029834E+02  0.34240932798E+02 -0.89936909308E+02  0.96840576564E+02  0.00000000000E+00 0. -1.
        -11    1    3    3    0    0 -0.53735202525E+02 -0.58906430057E+02 -0.13879793268E+02  0.80932614894E+02  0.00000000000E+00 0.  1.
         11    1    3    3    0    0  0.29241890676E+02 -0.91419154141E+01  0.17017091296E+02  0.35046314841E+02  0.00000000000E+00 0. -1.
         21    1    1    2  503  501 -0.26642280936E+02  0.27552890193E+02 -0.60971614174E+01  0.38809126102E+02  0.00000000000E+00 0. -1.
         -2    1    1    2    0  502  0.57016691104E+01 -0.75989600917E+02 -0.38333962429E+03  0.39084037155E+03  0.00000000000E+00 0.  1.
<scales pt_clust_5="13000.00000" pt_clust_6="13000.00000" pt_clust_7="13000.00000" pt_clust_8="13000.00000" pt_clust_9="38.32718" pt_clust_10="75.08507"></scales>
<clustering>
<clus scale="   38.327">  1  9  2 -1</clus>
<clus scale="   75.085">  2 10  1 -1</clus>
<clus scale="   79.265">  5  6 -1 -1</clus>
<clus scale="   90.613">  7  8 -1 -1</clus>
<clus scale="  114.750">  2  5  1 -1</clus>
<clus scale="   75.085">  2  5  1 -1</clus>
</clustering>
</event>
<event>
10    4  0.5389768E-005  0.1244441E+03  0.7546771E-02  0.1249307E+00
          2   -1    0    0  503    0 -0.00000000000E+00  0.00000000000E+00  0.14156614403E+04  0.14156614403E+04  0.00000000000E+00 0. -1.
         21   -1    0    0  501  502  0.00000000000E+00 -0.00000000000E+00 -0.11972634758E+03  0.11972634758E+03  0.00000000000E+00 0.  1.
         24    2    1    2    0    0  0.48985866618E+02 -0.20289370852E+02  0.10765715516E+04  0.10808006965E+04  0.79451658787E+02 0.  0.
         23    2    1    2    0    0  0.74532326310E+02  0.92702673900E+02  0.64909109465E+02  0.16284738383E+03  0.90317354449E+02 0.  0.
        -11    1    3    3    0    0  0.17541401996E+02 -0.10549453192E+02  0.54785930354E+02  0.58484954573E+02  0.00000000000E+00 0.  1.
         12    1    3    3    0    0  0.31444464622E+02 -0.97399176603E+01  0.10217856213E+04  0.10223157419E+04  0.00000000000E+00 0. -1.
        -11    1    4    4    0    0  0.50181358856E+02 -0.87551916577E+00  0.36525748054E+02  0.62073066473E+02  0.00000000000E+00 0. -1.
         11    1    4    4    0    0  0.24350967454E+02  0.93578193065E+02  0.28383361411E+02  0.10077431735E+03  0.00000000000E+00 0.  1.
         21    1    1    2  503  502 -0.81128152975E+02 -0.47082308312E+02  0.20229534510E+03  0.22298414206E+03  0.00000000000E+00 0.  1.
          1    1    1    2  501    0 -0.42390039954E+02 -0.25330994735E+02 -0.47840913485E+02  0.68755565482E+02  0.00000000000E+00 0. -1.
<scales pt_clust_5="13000.00000" pt_clust_6="13000.00000" pt_clust_7="13000.00000" pt_clust_8="13000.00000" pt_clust_9="85.61029" pt_clust_10="49.38193"></scales>
<clustering>
<clus scale="   49.382">  2 10  1 -1</clus>
<clus scale="   79.452">  5  6 -1 -1</clus>
<clus scale="   90.317">  7  8 -1 -1</clus>
<clus scale="   94.969">  1  5  2 -1</clus>
<clus scale="   85.610">  1  9  2 -1</clus>
<clus scale="   49.382">  2  5  1 -1</clus>
</clustering>
</event>
<event>
10    4  0.5389768E-005  0.2224768E+03  0.7546771E-02  0.1151735E+00
          2   -1    0    0  503    0 -0.00000000000E+00  0.00000000000E+00  0.23511768371E+03  0.23511768371E+03  0.00000000000E+00 0. -1.
         21   -1    0    0  501  502  0.00000000000E+00 -0.00000000000E+00 -0.74385001593E+03  0.74385001593E+03  0.00000000000E+00 0. -1.
         24    2    1    2    0    0 -0.73329598230E+02  0.11409877177E+03  0.11886594921E+03  0.19265606610E+03  0.67760506400E+02 0.  0.
         23    2    1    2    0    0 -0.75391589413E+02  0.11847944775E+03 -0.14601866387E+03  0.22238401863E+03  0.91716575655E+02 0.  0.
        -11    1    3    3    0    0 -0.62517759747E+02  0.36441645369E+02  0.46924324192E+02  0.86245904262E+02  0.00000000000E+00 0.  1.
         12    1    3    3    0    0 -0.10811838482E+02  0.77657126399E+02  0.71941625022E+02  0.10641016184E+03  0.00000000000E+00 0. -1.
        -11    1    4    4    0    0 -0.54083929306E+02  0.89947853989E+01 -0.35206612798E+02  0.65157372248E+02  0.00000000000E+00 0.  1.
         11    1    4    4    0    0 -0.21307660107E+02  0.10948466235E+03 -0.11081205108E+03  0.15722664638E+03  0.00000000000E+00 0. -1.
         21    1    1    2  503  502  0.17829126401E+02 -0.14108015434E+02 -0.45747205495E+01  0.23191419012E+02  0.00000000000E+00 0. -1.
          1    1    1    2  501    0  0.13089206124E+03 -0.21847020409E+03 -0.47700489702E+03  0.54073619589E+03  0.00000000000E+00 0. -1.
<scales pt_clust_5="13000.00000" pt_clust_6="13000.00000" pt_clust_7="13000.00000" pt_clust_8="13000.00000" pt_clust_9="22.73574" pt_clust_10="202.69191"></scales>
<clustering>
<clus scale="   22.736">  1  9  2 -1</clus>
<clus scale="   67.761">  5  6 -1 -1</clus>
<clus scale="   91.717">  7  8 -1 -1</clus>
<clus scale="  138.596">  1  5  2 -1</clus>
<clus scale="  202.692">  2 10  1 -1</clus>
<clus scale="  202.692">  2  5  1 -1</clus>
</clustering>
</event>
<event>
10    4  0.5389768E-005  0.1555865E+03  0.7546771E-02  0.1221406E+00
         21   -1    0    0  501  502  0.00000000000E+00  0.00000000000E+00  0.67126791035E+02  0.67126791035E+02  0.00000000000E+00 0.  1.
          2   -1    0    0  503    0 -0.00000000000E+00 -0.00000000000E+00 -0.13658296162E+04  0.13658296162E+04  0.00000000000E+00 0. -1.
         24    2    1    2    0    0 -0.33487469709E+02 -0.13292341487E+02 -0.31657725865E+03  0.32808619287E+03  0.78238687910E+02 0.  0.
         23    2    1    2    0    0 -0.68688457529E+02  0.14992954548E+03 -0.14997670442E+03  0.24070081570E+03  0.90812433085E+02 0.  0.
        -13    1    3    3    0    0  0.25796023436E+02 -0.48511180050E+01 -0.98303480109E+02  0.10174744406E+03  0.00000000000E+00 0.  1.
         14    1    3    3    0    0 -0.59283493145E+02 -0.84412234820E+01 -0.21827377854E+03  0.22633874881E+03  0.00000000000E+00 0. -1.
        -13    1    4    4    0    0 -0.41012699226E+02  0.66007433858E+02 -0.12783355734E+03  0.14960093985E+03  0.00000000000E+00 0. -1.
         13    1    4    4    0    0 -0.27675758303E+02  0.83922111621E+02 -0.22143147084E+02  0.91099875847E+02  0.00000000000E+00 0.  1.
         21    1    1    2  503  502  0.79565701736E+02 -0.95300718626E+02 -0.79371504905E+03  0.80336573673E+03  0.00000000000E+00 0. -1.
          1    1    1    2  501    0  0.22610225502E+02 -0.41336485366E+02 -0.38433813024E+02  0.60803661923E+02  0.00000000000E+00 0. -1.
<scales pt_clust_5="13000.00000" pt_clust_6="13000.00000" pt_clust_7="13000.00000" pt_clust_8="13000.00000" pt_clust_9="126.33392" pt_clust_10="47.11610"></scales>
<clustering>
<clus scale="   47.116">  1 10  2 -1</clus>
<clus scale="   78.239">  5  6 -1 -1</clus>
<clus scale="   86.024">  2  5  1 -1</clus>
<clus scale="   90.812">  7  8 -1 -1</clus>
<clus scale="  126.334">  2  9  1 -1</clus>
<clus scale="   47.116">  1  5  2 -1</clus>
</clustering>
</event>
<event>
10    4  0.5389768E-005  0.9388995E+02  0.7546771E-02  0.1300714E+00
         21   -1    0    0  501  502  0.00000000000E+00  0.00000000000E+00  0.54414838704E+02  0.54414838704E+02  0.00000000000E+00 0. -1.
          2   -1    0    0  503    0 -0.00000000000E+00 -0.00000000000E+00 -0.46952343259E+03  0.46952343259E+03  0.00000000000E+00 0. -1.
         23    2    1    2    0    0  0.29933224846E+02 -0.32332840248E+02 -0.27025373065E+03  0.28886485984E+03  0.92002270670E+02 0.  0.
         24    2    1    2    0    0 -0.79108133254E+00 -0.61131400088E+01 -0.13652023246E+01  0.80540074276E+02  0.80292238085E+02 0.  0.
        -11    1    4    4    0    0  0.26862869800E+02 -0.11763359542E+02 -0.28854214164E+02  0.41140686389E+02  0.00000000000E+00 0.  1.
         12    1    4    4    0    0 -0.27653951132E+02  0.56502195334E+01  0.27489011839E+02  0.39399387887E+02  0.00000000000E+00 0. -1.
        -11    1    3    3    0    0  0.60937010148E+02 -0.94495598601E+01 -0.19160227190E+03  0.20128100751E+03  0.00000000000E+00 0.  1.
         11    1    3    3    0    0 -0.31003785301E+02 -0.22883280388E+02 -0.78651458756E+02  0.87583852329E+02  0.00000000000E+00 0. -1.
         21    1    1    2  503  502 -0.20166134818E+02  0.16938891145E+02 -0.11370257037E+03  0.11671278223E+03  0.00000000000E+00 0. -1.
          1    1    1    2  501    0 -0.89760086959E+01  0.21507089112E+02 -0.29787090540E+02  0.37820554954E+02  0.00000000000E+00 0. -1.
<scales pt_clust_5="13000.00000" pt_clust_6="13000.00000" pt_clust_7="13000.00000" pt_clust_8="13000.00000" pt_clust_9="26.95653" pt_clust_10="23.30501"></scales>
<clustering>
<clus scale="   23.305">  1 10  2 -1</clus>
<clus scale="   26.957">  2  9  1 -1</clus>
<clus scale="   80.292">  5  6 -1 -1</clus>
<clus scale="   82.448">  1  5  2 -1</clus>
<clus scale="   92.002">  7  8 -1 -1</clus>
<clus scale="   23.305">  1  5  2 -1</clus>
</clustering>
</event>
<event>
10    4  0.5389768E-005  0.1309694E+03  0.7546771E-02  0.1228788E+00
         21   -1    0    0  501  502  0.00000000000E+00  0.00000000000E+00  0.54694804996E+03  0.54694804996E+03  0.00000000000E+00 0. -1.
          4   -1    0    0  503    0 -0.00000000000E+00 -0.00000000000E+00 -0.92987810043E+02  0.92987810043E+02  0.00000000000E+00 0. -1.
         23    2    1    2    0    0  0.12257547682E+03 -0.28520886272E+02  0.76902633594E+02  0.17351344048E+03  0.91404105507E+02 0.  0.
         24    2    1    2    0    0 -0.30810739565E+02 -0.36571206907E+02  0.26137785872E+03  0.27767297404E+03  0.80604842517E+02 0.  0.
        -13    1    4    4    0    0  0.15616116264E+02 -0.28504727421E+02  0.41033824313E+02  0.52346511921E+02  0.00000000000E+00 0.  1.
         14    1    4    4    0    0 -0.46426855829E+02 -0.80664794853E+01  0.22034403440E+03  0.22532646212E+03  0.00000000000E+00 0. -1.
        -13    1    3    3    0    0  0.84017735505E+02  0.32694423861E+01  0.88645616754E+02  0.12217902644E+03  0.00000000000E+00 0.  1.
         13    1    3    3    0    0  0.38557741313E+02 -0.31790328658E+02 -0.11742983159E+02  0.51334414040E+02  0.00000000000E+00 0. -1.
         21    1    1    2  503  502 -0.23772094743E+02  0.61873235518E+02  0.98192682031E+02  0.11847030247E+03  0.00000000000E+00 0. -1.
          3    1    1    2  501    0 -0.67992642510E+02  0.32188576611E+01  0.17487065572E+02  0.70279143012E+02  0.00000000000E+00 0. -1.
<scales pt_clust_5="13000.00000" pt_clust_6="13000.00000" pt_clust_7="13000.00000" pt_clust_8="13000.00000" pt_clust_9="66.28280" pt_clust_10="70.99731"></scales>
<clustering>
<clus scale="   66.283">  1  9  2 -1</clus>
<clus scale="   70.997">  1 10  2 -1</clus>
<clus scale="   80.605">  5  6 -1 -1</clus>
<clus scale="   91.404">  7  8 -1 -1</clus>
<clus scale="  123.675">  1  5  2 -1</clus>
<clus scale="   66.283">  1  5  2 -1</clus>
</clustering>
</event>
<event>
10    4  0.5389768E-005  0.9409728E+02  0.7546771E-02  0.1299970E+00
         21   -1    0    0  501  502  0.00000000000E+00  0.00000000000E+00  0.14314495523E+03  0.14314495523E+03  0.00000000000E+00 0.  1.
          2   -1    0    0  503    0 -0.00000000000E+00 -0.00000000000E+00 -0.14870659604E+03  0.14870659604E+03  0.00000000000E+00 0. -1.
         24    2    1    2    0    0 -0.52405699089E+01 -0.28554343116E+02 -0.26497743391E+02  0.89916281692E+02  0.80870224587E+02 0.  0.
         23    2    1    2    0    0  0.22975170883E+02  0.15057268720E+02  0.56152923741E+02  0.11138811257E+03  0.92193171978E+02 0.  0.
        -11    1    3    3    0    0  0.16567508260E+02  0.15180972717E+02 -0.33713012576E+02  0.40515570829E+02  0.00000000000E+00 0.  1.
         12    1    3    3    0    0 -0.21808078169E+02 -0.43735315832E+02  0.72152691854E+01  0.49400710863E+02  0.00000000000E+00 0. -1.
        -11    1    4    4    0    0 -0.59016130246E+01 -0.21821238985E+02  0.60268758075E+02  0.64368615854E+02  0.00000000000E+00 0.  1.
         11    1    4    4    0    0  0.28876783907E+02  0.36878507705E+02 -0.41158343334E+01  0.47019496718E+02  0.00000000000E+00 0. -1.
         21    1    1    2  503  502  0.56091862373E+01  0.20101299263E+02 -0.55265785116E+02  0.59074801792E+02  0.00000000000E+00 0. -1.
          1    1    1    2  501    0 -0.23343787211E+02 -0.66042248675E+01  0.20048963955E+02  0.31472355221E+02  0.00000000000E+00 0. -1.
<scales pt_clust_5="13000.00000" pt_clust_6="13000.00000" pt_clust_7="13000.00000" pt_clust_8="13000.00000" pt_clust_9="20.86924" pt_clust_10="23.60796"></scales>
<clustering>
<clus scale="   20.869">  2  9  1 -1</clus>
<clus scale="   23.608">  1 10  2 -1</clus>
<clus scale="   80.870">  5  6 -1 -1</clus>
<clus scale="   83.034">  2  5  1 -1</clus>
<clus scale="   92.193">  7  8 -1 -1</clus>
<clus scale="   23.608">  1  5  2 -1</clus>
</clustering>
</event>
<event>
10    4  0.5389768E-005  0.1937982E+03  0.7546771E-02  0.1174396E+00
          2   -1    0    0  503    0 -0.00000000000E+00  0.00000000000E+00  0.14631007674E+04  0.14631007674E+04  0.00000000000E+00 0. -1.
         21   -1    0    0  501  502  0.00000000000E+00 -0.00000000000E+00 -0.85158533352E+02  0.85158533352E+02  0.00000000000E+00 0. -1.
         24    2    1    2    0    0  0.19947281214E+02 -0.97993052572E+02  0.46183010288E+03  0.47934475438E+03  0.80522153723E+02 0.  0.
         23    2    1    2    0    0 -0.12554756471E+03  0.79349013548E+02  0.57626762053E+02  0.18464723267E+03  0.93355770424E+02 0.  0.
        -13    1    3    3    0    0 -0.32515298719E+01 -0.44874503274E+02  0.69742441919E+02  0.82995793240E+02  0.00000000000E+00 0.  1.
         14    1    3    3    0    0  0.23198811086E+02 -0.53118549298E+02  0.39208766096E+03  0.39634896114E+03  0.00000000000E+00 0. -1.
        -13    1    4    4    0    0 -0.64565195988E+02  0.87023712587E+02  0.58571952943E+02  0.12317655928E+03  0.00000000000E+00 0. -1.
         13    1    4    4    0    0 -0.60982368727E+02 -0.76746990384E+01 -0.94519089074E+00  0.61470673387E+02  0.00000000000E+00 0.  1.
         21    1    1    2  503  502  0.13023067979E+03 -0.27457050445E+02  0.77063614237E+03  0.78204474520E+03  0.00000000000E+00 0. -1.
          1    1    1    2  501    0 -0.24630396288E+02  0.46101089468E+02  0.87849226758E+02  0.10222256851E+03  0.00000000000E+00 0. -1.
<scales pt_clust_5="13000.00000" pt_clust_6="13000.00000" pt_clust_7="13000.00000" pt_clust_8="13000.00000" pt_clust_9="169.83062" pt_clust_10="52.26822"></scales>
<clustering>
<clus scale="   52.268">  2 10  1 -1</clus>
<clus scale="   80.522">  5  6 -1 -1</clus>
<clus scale="   93.356">  7  8 -1 -1</clus>
<clus scale="  124.071">  1  5  2 -1</clus>
<clus scale="  169.831">  1  9  2 -1</clus>
<clus scale="   52.268">  2  5  1 -1</clus>
</clustering>
</event>
<event>
10    4  0.5389768E-005  0.1385206E+03  0.7546771E-02  0.1218667E+00
         21   -1    0    0  503  502  0.00000000000E+00  0.00000000000E+00  0.83829451842E+02  0.83829451842E+02  0.00000000000E+00 0. -1.
         -3   -1    0    0    0  501 -0.00000000000E+00 -0.00000000000E+00 -0.39255610905E+03  0.39255610905E+03  0.00000000000E+00 0.  1.
         23    2    1    2    0    0 -0.75776231848E+02 -0.20798118634E+02 -0.17074558039E+03  0.20900384362E+03  0.91399969230E+02 0.  0.
         24    2    1    2    0    0  0.12154747868E+03 -0.24311646293E+02 -0.71954665842E+02  0.16241349390E+03  0.76392560800E+02 0.  0.
        -11    1    4    4    0    0  0.25885921368E+02  0.26363228423E+02 -0.23667851023E+02  0.43877874949E+02  0.00000000000E+00 0.  1.
         12    1    4    4    0    0  0.95661557315E+02 -0.50674874716E+02 -0.48286814818E+02  0.11853561895E+03  0.00000000000E+00 0. -1.
        -11    1    3    3    0    0 -0.50757653037E+02  0.18018402582E+02 -0.14805925180E+03  0.15755171918E+03  0.00000000000E+00 0.  1.
         11    1    3    3    0    0 -0.25018578812E+02 -0.38816521216E+02 -0.22686328594E+02  0.51452124447E+02  0.00000000000E+00 0. -1.
         21    1    1    2  503  501 -0.48072016288E+02  0.20031931973E+02 -0.59259799486E+02  0.78891830272E+02  0.00000000000E+00 0. -1.
         -4    1    1    2    0  502  0.23007694543E+01  0.25077832954E+02 -0.67666114916E+01  0.26076393095E+02  0.00000000000E+00 0.  1.
<scales pt_clust_5="13000.00000" pt_clust_6="13000.00000" pt_clust_7="13000.00000" pt_clust_8="13000.00000" pt_clust_9="53.16945" pt_clust_10="25.18315"></scales>
<clustering>
<clus scale="   25.183">  1 10  2 -1</clus>
<clus scale="   53.169">  2  9  1 -1</clus>
<clus scale="   76.393">  5  6 -1 -1</clus>
<clus scale="   91.400">  7  8 -1 -1</clus>
<clus scale="  129.112">  1  5  2 -1</clus>
<clus scale="   25.183">  1  5  2 -1</clus>
</clustering>
</event>
<event>
10    4  0.5389768E-005  0.3904999E+03  0.7546771E-02  0.1097598E+00
         21   -1    0    0  503  502  0.00000000000E+00  0.00000000000E+00  0.19143338976E+04  0.19143338976E+04  0.00000000000E+00 0.  1.
         -1   -1    0    0    0  501 -0.00000000000E+00 -0.00000000000E+00 -0.14779353340E+03  0.14779353340E+03  0.00000000000E+00 0.  1.
         24    2    1    2    0    0 -0.35271235532E+02  0.39917623016E+02  0.22556230110E+03  0.24580842788E+03  0.81889894739E+02 0.  0.
         23    2    1    2    0    0 -0.33355711497E+03 -0.65300713231E+02  0.19232248347E+03  0.39988383778E+03  0.85991941358E+02 0.  0.
        -13    1    3    3    0    0 -0.37592950658E+02 -0.98443316804E+01  0.50060569990E+02  0.63373507660E+02  0.00000000000E+00 0.  1.
         14    1    3    3    0    0  0.23217151261E+01  0.49761954697E+02  0.17550173111E+03  0.18243492022E+03  0.00000000000E+00 0. -1.
        -11    1    4    4    0    0 -0.15765169776E+03 -0.67139183850E+02  0.12241366873E+03  0.21058688019E+03  0.00000000000E+00 0. -1.
         11    1    4    4    0    0 -0.17590541721E+03  0.18384706193E+01  0.69908814736E+02  0.18929695759E+03  0.00000000000E+00 0.  1.
         21    1    1    2  503  501 -0.22822994428E+02 -0.30261294316E+01  0.18520311604E+02  0.29547393724E+02  0.00000000000E+00 0. -1.
         -2    1    1    2    0  502  0.39165134493E+03  0.28409219646E+02  0.13301352681E+04  0.13868877716E+04  0.00000000000E+00 0.  1.
<scales pt_clust_5="13000.00000" pt_clust_6="13000.00000" pt_clust_7="13000.00000" pt_clust_8="13000.00000" pt_clust_9="23.02274" pt_clust_10="380.91407"></scales>
<clustering>
<clus scale="   23.023">  2  9  1 -1</clus>
<clus scale="   81.890">  5  6 -1 -1</clus>
<clus scale="   85.992">  7  8 -1 -1</clus>
<clus scale="   98.201">  2  5  1 -1</clus>
<clus scale="  380.914">  1 10  2 -1</clus>
<clus scale="  380.914">  1  5  2 -1</clus>
</clustering>
</event>
<event>
10    4  0.5389768E-005  0.1235199E+03  0.7546771E-02  0.1240780E+00
          2   -1    0    0  503    0 -0.00000000000E+00  0.00000000000E+00  0.24167742492E+03  0.24167742492E+03  0.00000000000E+00 0. -1.
         21   -1    0    0  501  502  0.00000000000E+00 -0.00000000000E+00 -0.21156483022E+03  0.21156483022E+03  0.00000000000E+00 0. -1.
         24    2    1    2    0    0  0.15508884950E+02 -0.10379229207E+03  0.13455943292E+03  0.18856504387E+03  0.80231972293E+02 0.  0.
         23    2    1    2    0    0 -0.31654784542E+02  0.42022049432E+02 -0.56508294561E+02  0.11982328105E+03  0.91632708706E+02 0.  0.
        -13    1    3    3    0    0 -0.82536333744E+00 -0.76748319329E+02  0.35454384988E+02  0.84545840580E+02  0.00000000000E+00 0.  1.
         14    1    3    3    0    0  0.16334248287E+02 -0.27043972742E+02  0.99105047927E+02  0.10401920329E+03  0.00000000000E+00 0. -1.
        -13    1    4    4    0    0 -0.27334548306E+02 -0.25824394303E+02 -0.22280625306E+02  0.43709302628E+02  0.00000000000E+00 0. -1.
         13    1    4    4    0    0 -0.43202362364E+01  0.67846443736E+02 -0.34227669255E+02  0.76113978423E+02  0.00000000000E+00 0.  1.
         21    1    1    2  503  502  0.14594546865E+02  0.19943563776E+02  0.40253073181E+02  0.47234060113E+02  0.00000000000E+00 0. -1.
          1    1    1    2  501    0  0.15513527277E+01  0.41826678863E+02 -0.88191616832E+02  0.97619870105E+02  0.00000000000E+00 0. -1.
<scales pt_clust_5="13000.00000" pt_clust_6="13000.00000" pt_clust_7="13000.00000" pt_clust_8="13000.00000" pt_clust_9="24.71329" pt_clust_10="42.34427"></scales>
<clustering>
<clus scale="   24.713">  1  9  2 -1</clus>
<clus scale="   42.344">  2 10  1 -1</clus>
<clus scale="   80.232">  5  6 -1 -1</clus>
<clus scale="   91.633">  7  8 -1 -1</clus>
<clus scale="  115.316">  1  5  2 -1</clus>
<clus scale="   42.344">  2  5  1 -1</clus>
</clustering>
</event>
<event>
10    4  0.5389768E-005  0.1431946E+03  0.7546771E-02  0.1232568E+00
         21   -1    0    0  501  502  0.00000000000E+00  0.00000000000E+00  0.36456783171E+03  0.36456783171E+03  0.00000000000E+00 0. -1.
          4   -1    0    0  503    0 -0.00000000000E+00 -0.00000000000E+00 -0.30988816064E+03  0.30988816064E+03  0.00000000000E+00 0. -1.
         24    2    1    2    0    0 -0.15045610084E+02  0.16070777117E+01 -0.21081478675E+03  0.22633898408E+03  0.80978443547E+02 0.  0.
         23    2    1    2    0    0  0.44136608080E+02 -0.88162316226E+02  0.18659356741E+03  0.22977892744E+03  0.90887633486E+02 0.  0.
        -13    1    3    3    0    0  0.20772687089E+02  0.54065900253E+01 -0.12624247111E+02  0.24901954938E+02  0.00000000000E+00 0.  1.
         14    1    3    3    0    0 -0.35818297173E+02 -0.37995123136E+01 -0.19819053964E+03  0.20143702914E+03  0.00000000000E+00 0. -1.
        -11    1    4    4    0    0  0.63893254072E+02 -0.47136973788E+02  0.74867241709E+02  0.10912995049E+03  0.00000000000E+00 0.  1.
         11    1    4    4    0    0 -0.19756645992E+02 -0.41025342438E+02  0.11172632570E+03  0.12064897694E+03  0.00000000000E+00 0. -1.
         21    1    1    2  503  502  0.94100406860E+00 -0.39062928186E+02 -0.30106808315E+02  0.49327657090E+02  0.00000000000E+00 0. -1.
          3    1    1    2  501    0 -0.30032002065E+02  0.12561816670E+03  0.10900769872E+03  0.16901042374E+03  0.00000000000E+00 0. -1.
<scales pt_clust_5="13000.00000" pt_clust_6="13000.00000" pt_clust_7="13000.00000" pt_clust_8="13000.00000" pt_clust_9="39.07426" pt_clust_10="110.65332"></scales>
<clustering>
<clus scale="   39.074">  2  9  1 -1</clus>
<clus scale="   80.978">  5  6 -1 -1</clus>
<clus scale="   87.529">  2  5  1 -1</clus>
<clus scale="   90.888">  7  8 -1 -1</clus>
<clus scale="  110.653">  1 10  2 -1</clus>
<clus scale="  110.653">  1  5  2 -1</clus>
</clustering>
</event>
<event>
10    4  0.5389768E-005  0.1340597E+03  0.7546771E-02  0.1231217E+00
         21   -1    0    0  503  502  0.00000000000E+00  0.00000000000E+00  0.61329293762E+03  0.61329293762E+03  0.00000000000E+00 0.  1.
         -1   -1    0    0    0  501 -0.00000000000E+00 -0.00000000000E+00 -0.10969643689E+03  0.10969643689E+03  0.00000000000E+00 0.  1.
         23    2    1    2    0    0 -0.20658955259E+02  0.48790890221E+02  0.20896054999E+03  0.23445780766E+03  0.92187898990E+02 0.  0.
         24    2    1    2    0    0  0.35403514261E+02  0.25864409653E+02  0.32232515197E+01  0.91288296772E+02  0.80004920276E+02 0.  0.
        -13    1    4    4    0    0  0.40820273485E+02  0.43034633996E+02 -0.19370862275E+02  0.62397954741E+02  0.00000000000E+00 0.  1.
         14    1    4    4    0    0 -0.54167592239E+01 -0.17170224343E+02  0.22594113795E+02  0.28890342031E+02  0.00000000000E+00 0. -1.
        -11    1    3    3    0    0  0.17858858523E+02 -0.20199610242E+02  0.45185222271E+02  0.52618127992E+02  0.00000000000E+00 0. -1.
         11    1    3    3    0    0 -0.38517813781E+02  0.68990500464E+02  0.16377532772E+03  0.18183967967E+03  0.00000000000E+00 0.  1.
         21    1    1    2  503  501  0.26599557492E+02  0.46137695987E+02 -0.22914425838E+02  0.57976670837E+02  0.00000000000E+00 0.  1.
         -2    1    1    2    0  502 -0.41344116494E+02 -0.12079299586E+03  0.31432712506E+03  0.33926659925E+03  0.00000000000E+00 0.  1.
<scales pt_clust_5="13000.00000" pt_clust_6="13000.00000" pt_clust_7="13000.00000" pt_clust_8="13000.00000" pt_clust_9="53.25621" pt_clust_10="107.56964"></scales>
<clustering>
<clus scale="   53.256">  2  9  1 -1</clus>
<clus scale="   80.005">  5  6 -1 -1</clus>
<clus scale="   92.188">  7  8 -1 -1</clus>
<clus scale="  109.675">  2  7  1 -1</clus>
<clus scale="  107.570">  1 10  2 -1</clus>
<clus scale="  107.570">  1  5  2 -1</clus>
</clustering>
</event>
<event>
10    4  0.5389768E-005  0.1181895E+03  0.7546771E-02  0.1251570E+00
         -1   -1    0    0    0  501 -0.00000000000E+00  0.00000000000E+00  0.38146825325E+03  0.38146825325E+03  0.00000000000E+00 0.  1.
         21   -1    0    0  503  502  0.00000000000E+00 -0.00000000000E+00 -0.22005929511E+03  0.22005929511E+03  0.00000000000E+00 0. -1.
         23    2    1    2    0    0  0.53379349617E+02  0.76120407197E+01 -0.27320814726E+02  0.11353171321E+03  0.96102678727E+02 0.  0.
         24    2    1    2    0    0 -0.77638042500E+02  0.47949373194E+02 -0.10944344886E+03  0.16370597720E+03  0.80591379437E+02 0.  0.
        -11    1    4    4    0    0 -0.11125597205E+02  0.30899625738E+02  0.18965181019E+01  0.32896239372E+02  0.00000000000E+00 0.  1.
         12    1    4    4    0    0 -0.66512445295E+02  0.17049747456E+02 -0.11133996696E+03  0.13080973783E+03  0.00000000000E+00 0. -1.
        -11    1    3    3    0    0  0.19098667654E+02  0.38129966169E+02  0.20441414047E+02  0.47291699424E+02  0.00000000000E+00 0.  1.
         11    1    3    3    0    0  0.34280681963E+02 -0.30517925449E+02 -0.47762228772E+02  0.66240013790E+02  0.00000000000E+00 0. -1.
         21    1    1    2  503  501  0.65163084575E+02 -0.10469447920E+02  0.13905690050E+03  0.15392419727E+03  0.00000000000E+00 0.  1.
         -2    1    1    2    0  502 -0.40904391692E+02 -0.45091965994E+02  0.15911632123E+03  0.17036566068E+03  0.00000000000E+00 0.  1.
<scales pt_clust_5="13000.00000" pt_clust_6="13000.00000" pt_clust_7="13000.00000" pt_clust_8="13000.00000" pt_clust_9="64.87079" pt_clust_10="60.88069"></scales>
<clustering>
<clus scale="   60.881">  2 10  1 -1</clus>
<clus scale="   64.871">  1  9  2 -1</clus>
<clus scale="   80.591">  5  6 -1 -1</clus>
<clus scale="   96.103">  7  8 -1 -1</clus>
<clus scale="  105.962">  2  5  1 -1</clus>
<clus scale="   60.881">  2  5  1 -1</clus>
</clustering>
</event>
<event>
10    4  0.5389768E-005  0.1326950E+03  0.7546771E-02  0.1226200E+00
         -1   -1    0    0    0  501 -0.00000000000E+00  0.00000000000E+00  0.26869135788E+03  0.26869135788E+03  0.00000000000E+00 0.  1.
         21   -1    0    0  503  502  0.00000000000E+00 -0.00000000000E+00 -0.17245742833E+03  0.17245742833E+03  0.00000000000E+00 0.  1.
         24    2    1    2    0    0  0.87495235076E+02 -0.11769494154E+02  0.60756498555E+02  0.13373769145E+03  0.80003005213E+02 0.  0.
         23    2    1    2    0    0 -0.11164318390E+03 -0.36537749039E+02 -0.79873524315E+02  0.16865818247E+03  0.90920817263E+02 0.  0.
        -13    1    3    3    0    0  0.98792409576E+02 -0.66675533000E+01  0.67297493470E+02  0.11972196576E+03  0.00000000000E+00 0.  1.
         14    1    3    3    0    0 -0.11297174501E+02 -0.51019408539E+01 -0.65409949150E+01  0.14015725691E+02  0.00000000000E+00 0. -1.
        -13    1    4    4    0    0 -0.64586209868E+01 -0.39961857339E+02 -0.37587575960E+02  0.55240290491E+02  0.00000000000E+00 0. -1.
         13    1    4    4    0    0 -0.10518456291E+03  0.34241082996E+01 -0.42285948355E+02  0.11341789198E+03  0.00000000000E+00 0.  1.
         21    1    1    2  503  501  0.10844856253E+02  0.26005979214E+02  0.94567172998E+01  0.29721227500E+02  0.00000000000E+00 0.  1.
         -2    1    1    2    0  502  0.13303092570E+02  0.22301263979E+02  0.10589423800E+03  0.10903168479E+03  0.00000000000E+00 0.  1.
<scales pt_clust_5="13000.00000" pt_clust_6="13000.00000" pt_clust_7="13000.00000" pt_clust_8="13000.00000" pt_clust_9="29.70142" pt_clust_10="25.96766"></scales>
<clustering>
<clus scale="   25.968">  2 10  1 -1</clus>
<clus scale="   29.701">  1  9  2 -1</clus>
<clus scale="   80.003">  5  6 -1 -1</clus>
<clus scale="   90.921">  7  8 -1 -1</clus>
<clus scale="  125.466">  1  5  2 -1</clus>
<clus scale="   25.968">  2  5  1 -1</clus>
</clustering>
</event>
<event>
10    4  0.5389768E-005  0.1006216E+03  0.7546771E-02  0.1283852E+00
         -1   -1    0    0    0  501 -0.00000000000E+00  0.00000000000E+00  0.20270638556E+03  0.20270638556E+03  0.00000000000E+00 0.  1.
         21   -1    0    0  503  502  0.00000000000E+00 -0.00000000000E+00 -0.12926885779E+03  0.12926885779E+03  0.00000000000E+00 0. -1.
         23    2    1    2    0    0  0.48446159972E+02 -0.28785193420E+02  0.69217103603E+02  0.12711628196E+03  0.90509247769E+02 0.  0.
         24    2    1    2    0    0 -0.12847321755E+02  0.45534629709E+01 -0.61918147195E+02  0.10249937422E+03  0.80538668118E+02 0.  0.
        -11    1    4    4    0    0 -0.12596595704E+01 -0.33027819951E+02 -0.51665167157E+01  0.33453199069E+02  0.00000000000E+00 0.  1.
         12    1    4    4    0    0 -0.11587662185E+02  0.37581282922E+02 -0.56751630480E+02  0.69046175152E+02  0.00000000000E+00 0. -1.
        -13    1    3    3    0    0  0.59105235435E+02  0.10118249319E+02  0.61785297106E+02  0.86100120578E+02  0.00000000000E+00 0.  1.
         13    1    3    3    0    0 -0.10659075463E+02 -0.38903442738E+02  0.74318064965E+01  0.41016161381E+02  0.00000000000E+00 0. -1.
         21    1    1    2  503  501  0.11145381698E+02  0.28886173861E+02  0.29758520461E+02  0.42944151099E+02  0.00000000000E+00 0. -1.
         -2    1    1    2    0  502 -0.46744219915E+02 -0.46544434124E+01  0.36380050903E+02  0.59415436064E+02  0.00000000000E+00 0.  1.
<scales pt_clust_5="13000.00000" pt_clust_6="13000.00000" pt_clust_7="13000.00000" pt_clust_8="13000.00000" pt_clust_9="30.96176" pt_clust_10="43.68901"></scales>
<clustering>
<clus scale="   30.962">  1  9  2 -1</clus>
<clus scale="   43.689">  2 10  1 -1</clus>
<clus scale="   80.539">  5  6 -1 -1</clus>
<clus scale="   90.509">  7  8 -1 -1</clus>
<clus scale="   91.757">  2  5  1 -1</clus>
<clus scale="   43.689">  2  5  1 -1</clus>
</clustering>
</event>
<event>
10    4  0.5389768E-005  0.1124919E+03  0.7546771E-02  0.1259740E+00
          2   -1    0    0  503    0 -0.00000000000E+00  0.00000000000E+00  0.34787032494E+03  0.34787032494E+03  0.00000000000E+00 0. -1.
         21   -1    0    0  501  502  0.00000000000E+00 -0.00000000000E+00 -0.27878006046E+03  0.27878006046E+03  0.00000000000E+00 0.  1.
         23    2    1    2    0    0  0.25751780863E+02  0.62202871281E+02  0.65526384728E+02  0.13034944821E+03  0.90359947652E+02 0.  0.
         24    2    1    2    0    0  0.30760448050E+02 -0.13432502679E+03 -0.19598272092E+03  0.25266230009E+03  0.80247074705E+02 0.  0.
        -13    1    4    4    0    0 -0.77868267034E+01 -0.47366683793E+02 -0.12522883543E+03  0.13411375256E+03  0.00000000000E+00 0.  1.
         14    1    4    4    0    0  0.38547274753E+02 -0.86958342997E+02 -0.70753885494E+02  0.11854854752E+03  0.00000000000E+00 0. -1.
        -13    1    3    3    0    0  0.58067334348E+02  0.32703171183E+02  0.26500398752E+02  0.71718783158E+02  0.00000000000E+00 0.  1.
         13    1    3    3    0    0 -0.32315553485E+02  0.29499700098E+02  0.39025985977E+02  0.58630665051E+02  0.00000000000E+00 0. -1.
         21    1    1    2  503  502 -0.27375161281E+02 -0.20704012796E+02  0.20811340463E+02  0.40139350928E+02  0.00000000000E+00 0. -1.
          1    1    1    2  501    0 -0.29137067632E+02  0.92826168305E+02  0.17873526021E+03  0.20349928618E+03  0.00000000000E+00 0. -1.
<scales pt_clust_5="13000.00000" pt_clust_6="13000.00000" pt_clust_7="13000.00000" pt_clust_8="13000.00000" pt_clust_9="34.32281" pt_clust_10="92.40617"></scales>
<clustering>
<clus scale="   34.323">  1  9  2 -1</clus>
<clus scale="   80.247">  5  6 -1 -1</clus>
<clus scale="   90.360">  7  8 -1 -1</clus>
<clus scale="   92.406">  2 10  1 -1</clus>
<clus scale="  104.542">  2  5  1 -1</clus>
<clus scale="   92.406">  2  5  1 -1</clus>
</clustering>
</event>
<event>
10    4  0.5389768E-005  0.1857927E+03  0.7546771E-02  0.1163905E+00
         21   -1    0    0  501  502  0.00000000000E+00  0.00000000000E+00  0.90364069676E+02  0.90364069676E+02  0.00000000000E+00 0. -1.
          2   -1    0    0  503    0 -0.00000000000E+00 -0.00000000000E+00 -0.14697777786E+04  0.14697777786E+04  0.00000000000E+00 0. -1.
         24    2    1    2    0    0 -0.10554510863E+03 -0.10129358052E+03 -0.76389676566E+03  0.78186007403E+03  0.79791900374E+02 0.  0.
         23    2    1    2    0    0  0.96824998786E+02  0.14976304020E+03 -0.62844812481E+03  0.65997941057E+03  0.93924055488E+02 0.  0.
        -13    1    3    3    0    0 -0.10105368853E+03 -0.60169268311E+02 -0.65282417308E+03  0.66333369413E+03  0.00000000000E+00 0.  1.
         14    1    3    3    0    0 -0.44914201016E+01 -0.41124312205E+02 -0.11107259258E+03  0.11852637990E+03  0.00000000000E+00 0. -1.
        -11    1    4    4    0    0  0.10911765445E+03  0.13176022612E+03 -0.60129467677E+03  0.62515814640E+03  0.00000000000E+00 0. -1.
         11    1    4    4    0    0 -0.12292655663E+02  0.18002814074E+02 -0.27153448044E+02  0.34821264171E+02  0.00000000000E+00 0.  1.
         21    1    1    2  503  502  0.70027198911E+01 -0.23526598054E+02 -0.47188518611E+02  0.53191119471E+02  0.00000000000E+00 0.  1.
          1    1    1    2  501    0  0.17173899511E+01 -0.24942861624E+02  0.60119700161E+02  0.65111244203E+02  0.00000000000E+00 0. -1.
<scales pt_clust_5="13000.00000" pt_clust_6="13000.00000" pt_clust_7="13000.00000" pt_clust_8="13000.00000" pt_clust_9="24.54667" pt_clust_10="25.04403"></scales>
<clustering>
<clus scale="   24.547">  2  9  1 -1</clus>
<clus scale="   25.044">  1 10  2 -1</clus>
<clus scale="   79.792">  5  6 -1 -1</clus>
<clus scale="   93.924">  7  8 -1 -1</clus>
<clus scale="  179.064">  2  5  1 -1</clus>
<clus scale="   25.044">  1  5  2 -1</clus>
</clustering>
</event>
<event>
10    4  0.5389768E-005  0.1076740E+03  0.7546771E-02  0.1269936E+00
         21   -1    0    0  503  502  0.00000000000E+00  0.00000000000E+00  0.52071865547E+03  0.52071865547E+03  0.00000000000E+00 0.  1.
         -3   -1    0    0    0  501 -0.00000000000E+00 -0.00000000000E+00 -0.16361398417E+03  0.16361398417E+03  0.00000000000E+00 0.  1.
         23    2    1    2    0    0  0.23926825001E+02  0.83905460579E+01 -0.80644350232E+02  0.12409783936E+03  0.90850802371E+02 0.  0.
         24    2    1    2    0    0 -0.22483167590E+02 -0.28104895104E+02  0.19321785102E+03  0.21174776858E+03  0.78794679978E+02 0.  0.
        -13    1    4    4    0    0  0.27086473096E+02 -0.22638285395E+02  0.99676651928E+02  0.10574310346E+03  0.00000000000E+00 0.  1.
         14    1    4    4    0    0 -0.49569640686E+02 -0.54666097096E+01  0.93541199095E+02  0.10600466512E+03  0.00000000000E+00 0. -1.
        -11    1    3    3    0    0 -0.23947360393E+02 -0.20212041251E+02 -0.76843364391E+01  0.32265332911E+02  0.00000000000E+00 0. -1.
         11    1    3    3    0    0  0.47874185394E+02  0.28602587309E+02 -0.72960013793E+02  0.91832506448E+02  0.00000000000E+00 0.  1.
         21    1    1    2  503  501  0.42797438707E+02  0.83315651299E+01 -0.40685546192E+02  0.59635135670E+02  0.00000000000E+00 0.  1.
         -4    1    1    2    0  502 -0.44241096118E+02  0.11382783917E+02  0.28521671669E+03  0.28885189603E+03  0.00000000000E+00 0.  1.
<scales pt_clust_5="13000.00000" pt_clust_6="13000.00000" pt_clust_7="13000.00000" pt_clust_8="13000.00000" pt_clust_9="43.60087" pt_clust_10="45.05222"></scales>
<clustering>
<clus scale="   43.601">  2  9  1 -1</clus>
<clus scale="   45.052">  1 10  2 -1</clus>
<clus scale="   78.795">  5  6 -1 -1</clus>
<clus scale="   90.851">  7  8 -1 -1</clus>
<clus scale="   97.716">  1  5  2 -1</clus>
<clus scale="   45.052">  1  5  2 -1</clus>
</clustering>
</event>
<event>
10    4  0.5389768E-005  0.9637671E+02  0.7546771E-02  0.1293905E+00
          2   -1    0    0  503    0 -0.00000000000E+00  0.00000000000E+00  0.43409126727E+03  0.43409126727E+03  0.00000000000E+00 0. -1.
         21   -1    0    0  501  502  0.00000000000E+00 -0.00000000000E+00 -0.97438360848E+02  0.97438360848E+02  0.00000000000E+00 0. -1.
         24    2    1    2    0    0 -0.16525965848E+01  0.24639591395E+02  0.12300641008E+03  0.14880735393E+03  0.80020067020E+02 0.  0.
         23    2    1    2    0    0 -0.37419634528E+02  0.19421036235E+02 -0.19496883640E+02  0.10184307759E+03  0.90633759077E+02 0.  0.
        -13    1    3    3    0    0  0.25087526566E+02  0.42561970575E+02  0.90206529439E+02  0.10285000380E+03  0.00000000000E+00 0.  1.
         14    1    3    3    0    0 -0.26740123150E+02 -0.17922379180E+02  0.32799880636E+02  0.45957350134E+02  0.00000000000E+00 0. -1.
        -11    1    4    4    0    0 -0.48367950627E+02 -0.83135692143E+01 -0.41913461970E+02  0.64539231288E+02  0.00000000000E+00 0.  1.
         11    1    4    4    0    0  0.10948316099E+02  0.27734605449E+02  0.22416578330E+02  0.37303846301E+02  0.00000000000E+00 0. -1.
         21    1    1    2  503  502  0.47911750619E+02 -0.48965340834E+01  0.23577513182E+03  0.24064377133E+03  0.00000000000E+00 0. -1.
          1    1    1    2  501    0 -0.88395195058E+01 -0.39164093546E+02 -0.26317518375E+01  0.40235425263E+02  0.00000000000E+00 0. -1.
<scales pt_clust_5="13000.00000" pt_clust_6="13000.00000" pt_clust_7="13000.00000" pt_clust_8="13000.00000" pt_clust_9="48.02416" pt_clust_10="40.14926"></scales>
<clustering>
<clus scale="   40.149">  2 10  1 -1</clus>
<clus scale="   48.024">  1  9  2 -1</clus>
<clus scale="   80.020">  5  6 -1 -1</clus>
<clus scale="   86.471">  1  5  2 -1</clus>
<clus scale="   90.634">  7  8 -1 -1</clus>
<clus scale="   40.149">  2  5  1 -1</clus>
</clustering>
</event>
<event>
10    4  0.5389768E-005  0.1957448E+03  0.7546771E-02  0.1170042E+00
         21   -1    0    0  503  502  0.00000000000E+00  0.00000000000E+00  0.36006248434E+03  0.36006248434E+03  0.00000000000E+00 0.  1.
         -1   -1    0    0    0  501 -0.00000000000E+00 -0.00000000000E+00 -0.47642315427E+03  0.47642315427E+03  0.00000000000E+00 0.  1.
         23    2    1    2    0    0  0.10222201633E+03  0.30188420329E+02 -0.22437324591E+03  0.26487161406E+03  0.91939855924E+02 0.  0.
         24    2    1    2    0    0 -0.17168043179E+03  0.47285470183E+02  0.68513805103E+02  0.20635785703E+03  0.78608761069E+02 0.  0.
        -13    1    4    4    0    0 -0.16214267391E+03  0.18119626850E+02  0.64380308971E+02  0.17539495935E+03  0.00000000000E+00 0.  1.
         14    1    4    4    0    0 -0.95377578817E+01  0.29165843333E+02  0.41334961321E+01  0.30962897684E+02  0.00000000000E+00 0. -1.
        -13    1    3    3    0    0  0.98502986006E+02 -0.81285174636E+01 -0.13287009866E+03  0.16560004278E+03  0.00000000000E+00 0.  1.
         13    1    3    3    0    0  0.37190303244E+01  0.38316937792E+02 -0.91503147247E+02  0.99271571280E+02  0.00000000000E+00 0. -1.
         21    1    1    2  503  501  0.15119205730E+03  0.25281384081E+02 -0.92532141253E+02  0.17905413633E+03  0.00000000000E+00 0.  1.
         -2    1    1    2    0  502 -0.81733641840E+02 -0.10275527459E+03  0.13203091213E+03  0.18620203120E+03  0.00000000000E+00 0.  1.
<scales pt_clust_5="13000.00000" pt_clust_6="13000.00000" pt_clust_7="13000.00000" pt_clust_8="13000.00000" pt_clust_9="179.26708" pt_clust_10="131.29750"></scales>
<clustering>
<clus scale="   78.609">  5  6 -1 -1</clus>
<clus scale="   91.940">  7  8 -1 -1</clus>
<clus scale="  131.298">  1 10  2 -1</clus>
<clus scale="  132.965">  2  7  1 -1</clus>
<clus scale="  179.267">  2  9  1 -1</clus>
<clus scale="  131.298">  1  5  2 -1</clus>
</clustering>
</event>
<event>
10    4  0.5389768E-005  0.2067246E+03  0.7546771E-02  0.1145138E+00
          2   -1    0    0  503    0 -0.00000000000E+00  0.00000000000E+00  0.37137453093E+03  0.37137453093E+03  0.00000000000E+00 0. -1.
         21   -1    0    0  501  502  0.00000000000E+00 -0.00000000000E+00 -0.26718642401E+03  0.26718642401E+03  0.00000000000E+00 0.  1.
         24    2    1    2    0    0 -0.21056452286E+03 -0.41009116822E+02  0.33700595863E+02  0.23170532101E+03  0.80823633131E+02 0.  0.
         23    2    1    2    0    0  0.14174531382E+03 -0.88419481178E+01 -0.93126172719E+02  0.19307164598E+03  0.91838240408E+02 0.  0.
        -11    1    3    3    0    0 -0.21145944864E+03 -0.25367356143E+02  0.27056279259E+02  0.21468731547E+03  0.00000000000E+00 0.  1.
         12    1    3    3    0    0  0.89492578150E+00 -0.15641760679E+02  0.66443166041E+01  0.17018005536E+02  0.00000000000E+00 0. -1.
        -13    1    4    4    0    0  0.98355289295E+01  0.28693078779E+02 -0.70145831093E+01  0.31132535640E+02  0.00000000000E+00 0. -1.
         13    1    4    4    0    0  0.13190978489E+03 -0.37535026897E+02 -0.86111589610E+02  0.16193911035E+03  0.00000000000E+00 0.  1.
         21    1    1    2  503  502 -0.27040207047E+02  0.20774808551E+02  0.22973214201E+02  0.41116104366E+02  0.00000000000E+00 0. -1.
          1    1    1    2  501    0  0.95859416087E+02  0.29076256389E+02  0.14064046958E+03  0.17266788358E+03  0.00000000000E+00 0. -1.
<scales pt_clust_5="13000.00000" pt_clust_6="13000.00000" pt_clust_7="13000.00000" pt_clust_8="13000.00000" pt_clust_9="34.09935" pt_clust_10="91.90608"></scales>
<clustering>
<clus scale="   34.099">  1  9  2 -1</clus>
<clus scale="   80.824">  5  6 -1 -1</clus>
<clus scale="   91.838">  7  8 -1 -1</clus>
<clus scale="   91.906">  2 10  1 -1</clus>
<clus scale="  202.072">  1  5  2 -1</clus>
<clus scale="   91.906">  2  5  1 -1</clus>
</clustering>
</event>
<event>
10    4  0.5389768E-005  0.2131227E+03  0.7546771E-02  0.1160871E+00
         21   -1    0    0  503  502  0.00000000000E+00  0.00000000000E+00  0.52598135890E+03  0.52598135890E+03  0.00000000000E+00 0.  1.
         -1   -1    0    0    0  501 -0.00000000000E+00 -0.00000000000E+00 -0.21037248504E+03  0.21037248504E+03  0.00000000000E+00 0.  1.
         23    2    1    2    0    0  0.39010883314E+02  0.86444496762E+02  0.21781781146E+03  0.25356288231E+03  0.88628642417E+02 0.  0.
         24    2    1    2    0    0 -0.16226506120E+03 -0.20104388700E+03  0.15525920409E+02  0.27121500600E+03  0.81042770744E+02 0.  0.
        -11    1    4    4    0    0 -0.11696369824E+03 -0.13026300198E+03 -0.26822294618E+02  0.17711124153E+03  0.00000000000E+00 0.  1.
         12    1    4    4    0    0 -0.45301362959E+02 -0.70780885026E+02  0.42348215027E+02  0.94103764468E+02  0.00000000000E+00 0. -1.
        -11    1    3    3    0    0  0.65431457660E+02  0.68858856612E+02  0.18468951369E+03  0.20768493988E+03  0.00000000000E+00 0.  1.
         11    1    3    3    0    0 -0.26420574346E+02  0.17585640150E+02  0.33128297772E+02  0.45877942429E+02  0.00000000000E+00 0. -1.
         21    1    1    2  503  501  0.17813254514E+02 -0.17781947270E+02  0.15997784309E+02  0.29823460361E+02  0.00000000000E+00 0. -1.
         -2    1    1    2    0  502  0.10544092337E+03  0.13238133751E+03  0.66267357686E+02  0.18175249527E+03  0.00000000000E+00 0.  1.
<scales pt_clust_5="13000.00000" pt_clust_6="13000.00000" pt_clust_7="13000.00000" pt_clust_8="13000.00000" pt_clust_9="25.16962" pt_clust_10="197.11252"></scales>
<clustering>
<clus scale="   25.170">  1  9  2 -1</clus>
<clus scale="   81.043">  5  6 -1 -1</clus>
<clus scale="   88.629">  7  8 -1 -1</clus>
<clus scale="  127.277">  2  7  1 -1</clus>
<clus scale="  197.113">  1 10  2 -1</clus>
<clus scale="   25.170">  1  5  2 -1</clus>
</clustering>
</event>
<event>
10    4  0.5389768E-005  0.3602041E+03  0.7546771E-02  0.1058824E+00
         21   -1    0    0  501  502  0.00000000000E+00  0.00000000000E+00  0.43042685413E+03  0.43042685413E+03  0.00000000000E+00 0.  1.
          2   -1    0    0  503    0 -0.00000000000E+00 -0.00000000000E+00 -0.40786420124E+03  0.40786420124E+03  0.00000000000E+00 0. -1.
         24    2    1    2    0    0  0.35011686467E+03  0.51264764451E+02 -0.12384217391E+03  0.38334119455E+03  0.80023074162E+02 0.  0.
         23    2    1    2    0    0 -0.32649519785E+03 -0.11073701287E+03  0.13675051485E+03  0.38247176941E+03  0.93392456017E+02 0.  0.
        -13    1    3    3    0    0  0.14557291338E+03  0.17877824573E+01 -0.14824095006E+02  0.14633667711E+03  0.00000000000E+00 0.  1.
         14    1    3    3    0    0  0.20454395130E+03  0.49476981994E+02 -0.10901807890E+03  0.23700451744E+03  0.00000000000E+00 0. -1.
        -13    1    4    4    0    0 -0.50708952408E+02 -0.51717856117E+02  0.47660334847E+02  0.86704336762E+02  0.00000000000E+00 0. -1.
         13    1    4    4    0    0 -0.27578624544E+03 -0.59019156757E+02  0.89090180003E+02  0.29576743264E+03  0.00000000000E+00 0.  1.
         21    1    1    2  503  502 -0.12395989830E+02  0.32748780661E+02 -0.11206973694E+02  0.36766009547E+02  0.00000000000E+00 0. -1.
          1    1    1    2  501    0 -0.11225676990E+02  0.26723467762E+02  0.20861285642E+02  0.35712081874E+02  0.00000000000E+00 0. -1.
<scales pt_clust_5="13000.00000" pt_clust_6="13000.00000" pt_clust_7="13000.00000" pt_clust_8="13000.00000" pt_clust_9="35.93687" pt_clust_10="28.98551"></scales>
<clustering>
<clus scale="   28.986">  1 10  2 -1</clus>
<clus scale="   35.937">  2  9  1 -1</clus>
<clus scale="   80.023">  5  6 -1 -1</clus>
<clus scale="   93.392">  7  8 -1 -1</clus>
<clus scale="  356.971">  2  5  1 -1</clus>
<clus scale="   28.986">  1  5  2 -1</clus>
</clustering>
</event>
<event>
10    4  0.5389768E-005  0.1005440E+03  0.7546771E-02  0.1284190E+00
          2   -1    0    0  503    0 -0.00000000000E+00  0.00000000000E+00  0.41842242053E+03  0.41842242053E+03  0.00000000000E+00 0. -1.
         21   -1    0    0  501  502  0.00000000000E+00 -0.00000000000E+00 -0.18639551126E+03  0.18639551126E+03  0.00000000000E+00 0. -1.
         23    2    1    2    0    0 -0.12487316586E+02  0.32573410469E+02  0.27106961174E+03  0.28791936827E+03  0.90564165479E+02 0.  0.
         24    2    1    2    0    0 -0.34740213504E+02 -0.53539010839E+02  0.35881827187E+02  0.10864738445E+03  0.80271044033E+02 0.  0.
        -13    1    4    4    0    0 -0.56541750008E+02 -0.16626690017E+02  0.14272984937E+02  0.60639380059E+02  0.00000000000E+00 0.  1.
         14    1    4    4    0    0  0.21801536505E+02 -0.36912320822E+02  0.21608842250E+02  0.48008004393E+02  0.00000000000E+00 0. -1.
        -11    1    3    3    0    0  0.27700883081E+02 -0.16364448433E+02  0.11701691349E+03  0.12135935127E+03  0.00000000000E+00 0.  1.
         11    1    3    3    0    0 -0.40188199667E+02  0.48937858902E+02  0.15405269825E+03  0.16656001700E+03  0.00000000000E+00 0. -1.
         21    1    1    2  503  502 -0.20378186732E+02  0.78877730873E+01  0.56115884056E+02  0.60220261559E+02  0.00000000000E+00 0.  1.
          1    1    1    2  501    0  0.67605716822E+02  0.13077827282E+02 -0.13104041371E+03  0.14803091751E+03  0.00000000000E+00 0. -1.
<scales pt_clust_5="13000.00000" pt_clust_6="13000.00000" pt_clust_7="13000.00000" pt_clust_8="13000.00000" pt_clust_9="21.85149" pt_clust_10="68.42308"></scales>
<clustering>
<clus scale="   21.851">  1  9  2 -1</clus>
<clus scale="   68.423">  2 10  1 -1</clus>
<clus scale="   80.271">  5  6 -1 -1</clus>
<clus scale="   90.564">  7  8 -1 -1</clus>
<clus scale="   91.382">  2  5  1 -1</clus>
<clus scale="   68.423">  2  5  1 -1</clus>
</clustering>
</event>
<event>
10    4  0.5389768E-005  0.1889178E+03  0.7546771E-02  0.1163204E+00
          2   -1    0    0  503    0 -0.00000000000E+00  0.00000000000E+00  0.60673167691E+03  0.60673167691E+03  0.00000000000E+00 0. -1.
         21   -1    0    0  501  502  0.00000000000E+00 -0.00000000000E+00 -0.21972084831E+03  0.21972084831E+03  0.00000000000E+00 0. -1.
         24    2    1    2    0    0  0.68182205720E+01 -0.17630314296E+03  0.21802106917E+03  0.29051759777E+03  0.75749598430E+02 0.  0.
         23    2    1    2    0    0 -0.11503946845E+03  0.58844107450E+02 -0.50493796361E+02  0.17523411629E+03  0.10705448966E+03 0.  0.
        -13    1    3    3    0    0  0.40142947009E+01 -0.60870448451E+02  0.13548587433E+03  0.14858582772E+03  0.00000000000E+00 0.  1.
         14    1    3    3    0    0  0.28039258710E+01 -0.11543269451E+03  0.82535194842E+02  0.14193177005E+03  0.00000000000E+00 0. -1.
        -11    1    4    4    0    0 -0.12380869055E+03  0.22662155415E+02 -0.55705175015E+02  0.13764167852E+03  0.00000000000E+00 0. -1.
         11    1    4    4    0    0  0.87692221019E+01  0.36181952035E+02  0.52113786543E+01  0.37592437761E+02  0.00000000000E+00 0.  1.
         21    1    1    2  503  502  0.11450091419E+03  0.25967176980E+02  0.23959396929E+03  0.26681458684E+03  0.00000000000E+00 0.  1.
          1    1    1    2  501    0 -0.62796663126E+01  0.91491858533E+02 -0.20110413497E+02  0.93886224324E+02  0.00000000000E+00 0. -1.
<scales pt_clust_5="13000.00000" pt_clust_6="13000.00000" pt_clust_7="13000.00000" pt_clust_8="13000.00000" pt_clust_9="118.83071" pt_clust_10="91.70711"></scales>
<clustering>
<clus scale="   75.750">  5  6 -1 -1</clus>
<clus scale="   91.707">  2 10  1 -1</clus>
<clus scale="  107.054">  7  8 -1 -1</clus>
<clus scale="  118.831">  1  9  2 -1</clus>
<clus scale="  173.111">  1  5  2 -1</clus>
<clus scale="   91.707">  2  5  1 -1</clus>
</clustering>
</event>
<event>
10    4  0.5389768E-005  0.1956646E+03  0.7546771E-02  0.1154665E+00
         21   -1    0    0  501  502  0.00000000000E+00  0.00000000000E+00  0.35290312583E+03  0.35290312583E+03  0.00000000000E+00 0. -1.
          2   -1    0    0  503    0 -0.00000000000E+00 -0.00000000000E+00 -0.25672724113E+03  0.25672724113E+03  0.00000000000E+00 0. -1.
         23    2    1    2    0    0 -0.48052016815E+02  0.13346602942E+03 -0.13017036382E+03  0.21330844094E+03  0.91836757517E+02 0.  0.
         24    2    1    2    0    0  0.68657415848E+02 -0.14001910879E+03  0.22387797796E+03  0.28415949827E+03  0.79410829638E+02 0.  0.
        -11    1    4    4    0    0 -0.17748656868E+02 -0.24333349642E+02  0.47092701279E+02  0.55900350976E+02  0.00000000000E+00 0.  1.
         12    1    4    4    0    0  0.86406072717E+02 -0.11568575915E+03  0.17678527669E+03  0.22825914730E+03  0.00000000000E+00 0. -1.
        -13    1    3    3    0    0  0.17003929240E+02  0.87416398070E+02 -0.74189090191E+02  0.11590850428E+03  0.00000000000E+00 0.  1.
         13    1    3    3    0    0 -0.65055946055E+02  0.46049631346E+02 -0.55981273630E+02  0.97399936661E+02  0.00000000000E+00 0. -1.
         21    1    1    2  503  502 -0.21448002666E+02  0.41054963202E+02 -0.37325855845E+02  0.59487362830E+02  0.00000000000E+00 0.  1.
          1    1    1    2  501    0  0.84260363269E+00 -0.34501883825E+02  0.39794126402E+02  0.52675064922E+02  0.00000000000E+00 0. -1.
<scales pt_clust_5="13000.00000" pt_clust_6="13000.00000" pt_clust_7="13000.00000" pt_clust_8="13000.00000" pt_clust_9="45.20414" pt_clust_10="34.51217"></scales>
<clustering>
<clus scale="   34.512">  1 10  2 -1</clus>
<clus scale="   45.204">  2  9  1 -1</clus>
<clus scale="   79.411">  5  6 -1 -1</clus>
<clus scale="   91.837">  7  8 -1 -1</clus>
<clus scale="  190.149">  1  5  2 -1</clus>
<clus scale="   34.512">  1  5  2 -1</clus>
</clustering>
</event>
<event>
10    4  0.5389768E-005  0.1478609E+03  0.7546771E-02  0.1205736E+00
         21   -1    0    0  503  502  0.00000000000E+00  0.00000000000E+00  0.14114179128E+03  0.14114179128E+03  0.00000000000E+00 0. -1.
         -1   -1    0    0    0  501 -0.00000000000E+00 -0.00000000000E+00 -0.68296943160E+03  0.68296943160E+03  0.00000000000E+00 0.  1.
         23    2    1    2    0    0  0.89398232532E+02  0.99546855403E+02 -0.37038802577E+03  0.40432784977E+03  0.91608406089E+02 0.  0.
         24    2    1    2    0    0 -0.86366856024E+02 -0.13374094399E+03 -0.13265753936E+03  0.22138068871E+03  0.77881401289E+02 0.  0.
        -13    1    4    4    0    0 -0.41828432874E+02 -0.90686023185E+02 -0.12339585818E+03  0.15874542643E+03  0.00000000000E+00 0.  1.
         14    1    4    4    0    0 -0.44538423150E+02 -0.43054920809E+02 -0.92616811795E+01  0.62635262280E+02  0.00000000000E+00 0. -1.
        -13    1    3    3    0    0  0.48277757283E+02  0.53984299410E+02 -0.30955172713E+03  0.31791086518E+03  0.00000000000E+00 0.  1.
         13    1    3    3    0    0  0.41120475248E+02  0.45562555993E+02 -0.60836298637E+02  0.86416984587E+02  0.00000000000E+00 0. -1.
         21    1    1    2  503  501 -0.51743131961E+02 -0.38622597426E+02 -0.78978962548E+02  0.10201339746E+03  0.00000000000E+00 0. -1.
         -2    1    1    2    0  502  0.48711755452E+02  0.72816686017E+02  0.40196887360E+02  0.96389286931E+02  0.00000000000E+00 0.  1.
<scales pt_clust_5="13000.00000" pt_clust_6="13000.00000" pt_clust_7="13000.00000" pt_clust_8="13000.00000" pt_clust_9="64.56823" pt_clust_10="84.72716"></scales>
<clustering>
<clus scale="   64.568">  2  9  1 -1</clus>
<clus scale="   77.881">  5  6 -1 -1</clus>
<clus scale="   84.727">  1 10  2 -1</clus>
<clus scale="   91.608">  7  8 -1 -1</clus>
<clus scale="  139.772">  1  5  2 -1</clus>
<clus scale="   84.727">  1  5  2 -1</clus>
</clustering>
</event>
<event>
10    4  0.5389768E-005  0.9639838E+02  0.7546771E-02  0.1296992E+00
         21   -1    0    0  501  502  0.00000000000E+00  0.00000000000E+00  0.26629803392E+03  0.26629803392E+03  0.00000000000E+00 0. -1.
          4   -1    0    0  503    0 -0.00000000000E+00 -0.00000000000E+00 -0.38028384439E+03  0.38028384439E+03  0.00000000000E+00 0. -1.
         24    2    1    2    0    0  0.54902494598E+02  0.32706774612E+02 -0.29698551663E+03  0.31280987900E+03  0.74602991203E+02 0.  0.
         23    2    1    2    0    0 -0.66580182627E+01 -0.19779205506E+02  0.16858264088E+03  0.19249815121E+03  0.90553217701E+02 0.  0.
        -13    1    3    3    0    0  0.30236313090E+02  0.45942795008E+02 -0.10253391164E+03  0.11635367669E+03  0.00000000000E+00 0.  1.
         14    1    3    3    0    0  0.24666181508E+02 -0.13236020396E+02 -0.19445160498E+03  0.19645620231E+03  0.00000000000E+00 0. -1.
        -13    1    4    4    0    0 -0.30605691775E+02  0.25795378265E+02  0.90675843697E+02  0.99117195980E+02  0.00000000000E+00 0.  1.
         13    1    4    4    0    0  0.23947673512E+02 -0.45574583770E+02  0.77906797179E+02  0.93380955228E+02  0.00000000000E+00 0. -1.
         21    1    1    2  503  502 -0.23421426245E+02 -0.23292191510E+02 -0.56488404183E+02  0.65437215709E+02  0.00000000000E+00 0.  1.
          3    1    1    2  501    0 -0.24823050090E+02  0.10364622403E+02  0.70905469460E+02  0.75836632392E+02  0.00000000000E+00 0. -1.
<scales pt_clust_5="13000.00000" pt_clust_6="13000.00000" pt_clust_7="13000.00000" pt_clust_8="13000.00000" pt_clust_9="33.27534" pt_clust_10="26.89999"></scales>
<clustering>
<clus scale="   26.900">  1 10  2 -1</clus>
<clus scale="   33.275">  2  9  1 -1</clus>
<clus scale="   74.603">  5  6 -1 -1</clus>
<clus scale="   81.599">  2  5  1 -1</clus>
<clus scale="   90.553">  7  8 -1 -1</clus>
<clus scale="   26.900">  1  5  2 -1</clus>
</clustering>
</event>
<event>
10    4  0.6199884E-005  0.1428716E+03  0.7546771E-02  0.1228726E+00
         21   -1    0    0  501  502  0.00000000000E+00  0.00000000000E+00  0.61262351335E+03  0.61262351335E+03  0.00000000000E+00 0.  1.
          2   -1    0    0  503    0 -0.00000000000E+00 -0.00000000000E+00 -0.25312128741E+03  0.25312128741E+03  0.00000000000E+00 0. -1.
         24    2    1    2    0    0 -0.13420922029E+02  0.20787649431E+02 -0.20300887921E+03  0.22178419292E+03  0.85810114072E+02 0.  0.
         23    2    1    2    0    0  0.12111032839E+03 -0.62753731001E+02  0.36676788890E+03  0.40161169749E+03  0.90374381519E+02 0.  0.
        -11    1    3    3    0    0 -0.13102936631E+01 -0.33465428276E+02 -0.68798082101E+02  0.76516846903E+02  0.00000000000E+00 0.  1.
         12    1    3    3    0    0 -0.12110628366E+02  0.54253077708E+02 -0.13421079711E+03  0.14526734602E+03  0.00000000000E+00 0. -1.
        -11    1    4    4    0    0  0.55219356578E+00 -0.29521789137E+02  0.28787884558E+02  0.41238128582E+02  0.00000000000E+00 0. -1.
         11    1    4    4    0    0  0.12055813482E+03 -0.33231941863E+02  0.33798000434E+03  0.36037356891E+03  0.00000000000E+00 0.  1.
         21    1    1    2  503  502 -0.18078566089E+02  0.99172364335E+01 -0.40800422177E+01  0.21019820999E+02  0.00000000000E+00 0. -1.
          1    1    1    2  501    0 -0.89610840269E+02  0.32048845136E+02  0.19982325847E+03  0.22132908935E+03  0.00000000000E+00 0. -1.
<scales pt_clust_5="13000.00000" pt_clust_6="13000.00000" pt_clust_7="13000.00000" pt_clust_8="13000.00000" pt_clust_9="20.62004" pt_clust_10="110.65609"></scales>
<clustering>
<clus scale="   20.620">  2  9  1 -1</clus>
<clus scale="   85.810">  5  6 -1 -1</clus>
<clus scale="   90.374">  7  8 -1 -1</clus>
<clus scale="   95.391">  2  5  1 -1</clus>
<clus scale="  110.656">  1 10  2 -1</clus>
<clus scale="  110.656">  1  5  2 -1</clus>
</clustering>
</event>
<event>
10    4  0.5389768E-005  0.1355827E+03  0.7546771E-02  0.1222139E+00
         21   -1    0    0  501  502  0.00000000000E+00  0.00000000000E+00  0.16251687144E+03  0.16251687144E+03  0.00000000000E+00 0.  1.
          2   -1    0    0  503    0 -0.00000000000E+00 -0.00000000000E+00 -0.35389650614E+03  0.35389650614E+03  0.00000000000E+00 0. -1.
         24    2    1    2    0    0 -0.24223431234E+02 -0.69689061199E+02 -0.19423795622E+03  0.22321534808E+03  0.81568180762E+02 0.  0.
         23    2    1    2    0    0  0.42335669108E+02  0.13601106630E+03 -0.21971884693E+02  0.17153037728E+03  0.92997782649E+02 0.  0.
        -11    1    3    3    0    0 -0.38080784522E+02 -0.75309129557E+01 -0.37240771223E+02  0.53793455373E+02  0.00000000000E+00 0.  1.
         12    1    3    3    0    0  0.13857353288E+02 -0.62158148243E+02 -0.15699718500E+03  0.16942189271E+03  0.00000000000E+00 0. -1.
        -13    1    4    4    0    0  0.28184203681E+02  0.56962067034E+02  0.35483078416E+02  0.72787878605E+02  0.00000000000E+00 0.  1.
         13    1    4    4    0    0  0.14151465427E+02  0.79048999262E+02 -0.57454963108E+02  0.98742498672E+02  0.00000000000E+00 0. -1.
         21    1    1    2  503  502  0.28558834753E+01 -0.23403793166E+02 -0.36793109496E+02  0.43699273580E+02  0.00000000000E+00 0. -1.
          1    1    1    2  501    0 -0.20968121350E+02 -0.42918211932E+02  0.61623315714E+02  0.77968378641E+02  0.00000000000E+00 0. -1.
<scales pt_clust_5="13000.00000" pt_clust_6="13000.00000" pt_clust_7="13000.00000" pt_clust_8="13000.00000" pt_clust_9="23.57740" pt_clust_10="48.28288"></scales>
<clustering>
<clus scale="   23.577">  2  9  1 -1</clus>
<clus scale="   48.283">  1 10  2 -1</clus>
<clus scale="   81.568">  5  6 -1 -1</clus>
<clus scale="   92.998">  7  8 -1 -1</clus>
<clus scale="  128.014">  2  5  1 -1</clus>
<clus scale="   48.283">  1  5  2 -1</clus>
</clustering>
</event>
<event>
10    4  0.5389768E-005  0.2792080E+03  0.7546771E-02  0.1096122E+00
         21   -1    0    0  501  502  0.00000000000E+00  0.00000000000E+00  0.22427890252E+03  0.22427890252E+03  0.00000000000E+00 0. -1.
         -1   -1    0    0    0  501 -0.00000000000E+00 -0.00000000000E+00 -0.32169378915E+03  0.32169378915E+03  0.00000000000E+00 0.  1.
         24    2    1    2    0    0  0.11210786798E+03  0.11108964069E+03  0.84214448754E+02  0.19776865050E+03  0.84328425873E+02 0.  0.
         23    2    1    2    0    0  0.11834712482E+02  0.14584755897E+02 -0.14722899449E+01  0.93441563420E+02  0.91522579797E+02 0.  0.
        -13    1    3    3    0    0  0.24906319241E+02 -0.31585146731E+01  0.40307891124E+02  0.47487124991E+02  0.00000000000E+00 0.  1.
         14    1    3    3    0    0  0.87201548739E+02  0.11424815537E+03  0.43906557630E+02  0.15028152551E+03  0.00000000000E+00 0. -1.
        -13    1    4    4    0    0  0.37092119289E+02  0.14352309765E+02 -0.33954418640E+02  0.52294518394E+02  0.00000000000E+00 0.  1.
         13    1    4    4    0    0 -0.25257406807E+02  0.23244613196E+00  0.32482128695E+02  0.41147045026E+02  0.00000000000E+00 0. -1.
         21    1    1    2  503  502 -0.30683780492E+02 -0.52424629004E+02 -0.49917321063E+02  0.78622993161E+02  0.00000000000E+00 0.  1.
         -2    1    1    2    0  503 -0.93258799970E+02 -0.73249767587E+02 -0.13023972437E+03  0.17613948458E+03  0.00000000000E+00 0.  1.
<scales pt_clust_5="13000.00000" pt_clust_6="13000.00000" pt_clust_7="13000.00000" pt_clust_8="13000.00000" pt_clust_9="25.72104" pt_clust_10="180.13159"></scales>
<clustering>
<clus scale="   25.721">  9 10 -1 -1</clus>
<clus scale="   84.328">  5  6 -1 -1</clus>
<clus scale="   91.523">  7  8 -1 -1</clus>
<clus scale="   91.548">  5  7 -1 -1</clus>
<clus scale="  180.132">  1  9  2 -1</clus>
<clus scale="  180.132">  1  5  2 -1</clus>
</clustering>
</event>
<event>
10    4  0.5389768E-005  0.1178551E+03  0.7546771E-02  0.1250499E+00
         21   -1    0    0  501  502  0.00000000000E+00  0.00000000000E+00  0.14728937764E+03  0.14728937764E+03  0.00000000000E+00 0.  1.
          2   -1    0    0  503    0 -0.00000000000E+00 -0.00000000000E+00 -0.29241619428E+03  0.29241619428E+03  0.00000000000E+00 0. -1.
         24    2    1    2    0    0  0.73562542838E+02 -0.30506220713E+01 -0.56984716833E+02  0.12388780043E+03  0.81732338385E+02 0.  0.
         23    2    1    2    0    0 -0.72772683245E+02  0.24148861368E+02 -0.54257853027E+02  0.13218917638E+03  0.93010928419E+02 0.  0.
        -11    1    3    3    0    0  0.59515172936E+02  0.32613087387E+02 -0.51442504031E+02  0.85158678357E+02  0.00000000000E+00 0.  1.
         12    1    3    3    0    0  0.14047369902E+02 -0.35663709458E+02 -0.55422128018E+01  0.38729122068E+02  0.00000000000E+00 0. -1.
        -13    1    4    4    0    0 -0.32011437390E+02  0.50901064452E+02 -0.57667716851E+02  0.83313960733E+02  0.00000000000E+00 0.  1.
         13    1    4    4    0    0 -0.40761245855E+02 -0.26752203083E+02  0.34098638240E+01  0.48875215649E+02  0.00000000000E+00 0. -1.
         21    1    1    2  503  502 -0.22960153478E+02 -0.76572225868E+01 -0.10509447185E+03  0.10784549003E+03  0.00000000000E+00 0. -1.
          1    1    1    2  501    0  0.22170293885E+02 -0.13441016710E+02  0.71210225073E+02  0.75783105083E+02  0.00000000000E+00 0. -1.
<scales pt_clust_5="13000.00000" pt_clust_6="13000.00000" pt_clust_7="13000.00000" pt_clust_8="13000.00000" pt_clust_9="24.20334" pt_clust_10="25.73488"></scales>
<clustering>
<clus scale="   24.203">  2  9  1 -1</clus>
<clus scale="   25.735">  1 10  2 -1</clus>
<clus scale="   81.732">  5  6 -1 -1</clus>
<clus scale="   93.011">  7  8 -1 -1</clus>
<clus scale="  109.174">  2  5  1 -1</clus>
<clus scale="   25.735">  1  5  2 -1</clus>
</clustering>
</event>
<event>
10    4  0.5389768E-005  0.1085299E+03  0.7546771E-02  0.1265682E+00
         21   -1    0    0  501  502  0.00000000000E+00  0.00000000000E+00  0.72145042604E+02  0.72145042604E+02  0.00000000000E+00 0. -1.
          2   -1    0    0  503    0 -0.00000000000E+00 -0.00000000000E+00 -0.32529757684E+03  0.32529757684E+03  0.00000000000E+00 0. -1.
         24    2    1    2    0    0 -0.81137264685E+02 -0.18104131734E+01 -0.99614053361E+02  0.15188998933E+03  0.81000468606E+02 0.  0.
         23    2    1    2    0    0  0.43521364223E+02  0.34567797883E+02 -0.74356044524E+02  0.12734797084E+03  0.87175928591E+02 0.  0.
        -13    1    3    3    0    0 -0.68899486757E+02  0.19138770856E+02 -0.10500047801E+03  0.12703752284E+03  0.00000000000E+00 0.  1.
         14    1    3    3    0    0 -0.12237777929E+02 -0.20949184030E+02  0.53864246530E+01  0.24852466491E+02  0.00000000000E+00 0. -1.
        -13    1    4    4    0    0 -0.23059564484E+02 -0.70381684714E+01 -0.11186097996E+02  0.26578339263E+02  0.00000000000E+00 0.  1.
         13    1    4    4    0    0  0.66580928707E+02  0.41605966354E+02 -0.63169946528E+02  0.10076963158E+03  0.00000000000E+00 0. -1.
         21    1    1    2  503  502  0.14315322508E+02  0.13999128238E+02 -0.58822218826E+02  0.62136603363E+02  0.00000000000E+00 0. -1.
          1    1    1    2  501    0  0.23300577955E+02 -0.46756512947E+02 -0.20360217523E+02  0.56068055911E+02  0.00000000000E+00 0. -1.
<scales pt_clust_5="13000.00000" pt_clust_6="13000.00000" pt_clust_7="13000.00000" pt_clust_8="13000.00000" pt_clust_9="20.02259" pt_clust_10="51.42757"></scales>
<clustering>
<clus scale="   20.023">  2  9  1 -1</clus>
<clus scale="   51.428">  1 10  2 -1</clus>
<clus scale="   81.000">  5  6 -1 -1</clus>
<clus scale="   87.176">  7  8 -1 -1</clus>
<clus scale="  103.635">  2  5  1 -1</clus>
<clus scale="   51.428">  1  5  2 -1</clus>
</clustering>
</event>
<event>
10    4  0.5389768E-005  0.1117977E+03  0.7546771E-02  0.1261491E+00
         -1   -1    0    0    0  501 -0.00000000000E+00  0.00000000000E+00  0.43146302559E+03  0.43146302559E+03  0.00000000000E+00 0.  1.
         21   -1    0    0  503  502  0.00000000000E+00 -0.00000000000E+00 -0.12132341777E+03  0.12132341777E+03  0.00000000000E+00 0. -1.
         24    2    1    2    0    0 -0.55520316865E+02  0.22276476789E+01  0.16523786546E+03  0.19203714425E+03  0.80543432953E+02 0.  0.
         23    2    1    2    0    0  0.41325763528E+02 -0.55826522414E+01 -0.78193459001E+02  0.12747653717E+03  0.91635504921E+02 0.  0.
        -13    1    3    3    0    0 -0.21877125482E+02 -0.33597419139E+02  0.11486801458E+03  0.12166370028E+03  0.00000000000E+00 0.  1.
         14    1    3    3    0    0 -0.33643191384E+02  0.35825066818E+02  0.50369850882E+02  0.70373443975E+02  0.00000000000E+00 0. -1.
        -13    1    4    4    0    0  0.12422579964E+02  0.36246345544E+02 -0.54143102735E+01  0.38696677040E+02  0.00000000000E+00 0.  1.
         13    1    4    4    0    0  0.28903183564E+02 -0.41828997785E+02 -0.72779148727E+02  0.88779860133E+02  0.00000000000E+00 0. -1.
         21    1    1    2  503  501 -0.20913381758E+02 -0.14062802567E+02  0.12730167155E+03  0.12977229108E+03  0.00000000000E+00 0.  1.
         -2    1    1    2    0  502  0.35107935096E+02  0.17417807130E+02  0.95793529820E+02  0.10350047085E+03  0.00000000000E+00 0.  1.
<scales pt_clust_5="13000.00000" pt_clust_6="13000.00000" pt_clust_7="13000.00000" pt_clust_8="13000.00000" pt_clust_9="25.20182" pt_clust_10="30.99164"></scales>
<clustering>
<clus scale="   25.202">  1  9  2 -1</clus>
<clus scale="   30.992">  2 10  1 -1</clus>
<clus scale="   80.543">  5  6 -1 -1</clus>
<clus scale="   91.636">  7  8 -1 -1</clus>
<clus scale="  102.902">  1  5  2 -1</clus>
<clus scale="   30.992">  2  5  1 -1</clus>
</clustering>
</event>
<event>
10    4  0.5389768E-005  0.1405167E+03  0.7546771E-02  0.1215344E+00
         21   -1    0    0  501  502  0.00000000000E+00  0.00000000000E+00  0.26254149495E+03  0.26254149495E+03  0.00000000000E+00 0. -1.
          2   -1    0    0  503    0 -0.00000000000E+00 -0.00000000000E+00 -0.39053048533E+03  0.39053048533E+03  0.00000000000E+00 0. -1.
         23    2    1    2    0    0 -0.48839613381E+02  0.12382255400E+03 -0.22286145542E+03  0.27565139530E+03  0.92731497911E+02 0.  0.
         24    2    1    2    0    0  0.70463088079E+02 -0.84204950731E+02  0.18975859362E+03  0.23349526298E+03  0.80350441661E+02 0.  0.
        -13    1    4    4    0    0  0.48351858986E+02 -0.22844006288E+01  0.92688055012E+02  0.10456670739E+03  0.00000000000E+00 0.  1.
         14    1    4    4    0    0  0.22111229093E+02 -0.81920550103E+02  0.97070538606E+02  0.12892855559E+03  0.00000000000E+00 0. -1.
        -11    1    3    3    0    0 -0.33619842411E+02  0.50650195963E+02 -0.27965374347E+02  0.66916353137E+02  0.00000000000E+00 0.  1.
         11    1    3    3    0    0 -0.15219770970E+02  0.73172358036E+02 -0.19489608107E+03  0.20873504216E+03  0.00000000000E+00 0. -1.
         21    1    1    2  503  502  0.26664245337E+02 -0.25877972686E+02 -0.84986384308E+02  0.92754174933E+02  0.00000000000E+00 0.  1.
          1    1    1    2  501    0 -0.48287720035E+02 -0.13739630581E+02 -0.98997442695E+01  0.51171147059E+02  0.00000000000E+00 0. -1.
<scales pt_clust_5="13000.00000" pt_clust_6="13000.00000" pt_clust_7="13000.00000" pt_clust_8="13000.00000" pt_clust_9="37.15712" pt_clust_10="48.43498"></scales>
<clustering>
<clus scale="   37.157">  2  9  1 -1</clus>
<clus scale="   48.435">  1 10  2 -1</clus>
<clus scale="   80.350">  5  6 -1 -1</clus>
<clus scale="   92.731">  7  8 -1 -1</clus>
<clus scale="  132.672">  1  5  2 -1</clus>
<clus scale="   48.435">  1  5  2 -1</clus>
</clustering>
</event>
<event>
10    4  0.5389768E-005  0.1012882E+03  0.7546771E-02  0.1284101E+00
          2   -1    0    0  503    0 -0.00000000000E+00  0.00000000000E+00  0.53535999745E+03  0.53535999745E+03  0.00000000000E+00 0. -1.
         21   -1    0    0  501  502  0.00000000000E+00 -0.00000000000E+00 -0.55892676225E+02  0.55892676225E+02  0.00000000000E+00 0. -1.
         23    2    1    2    0    0 -0.44858801700E+02 -0.64809662625E+02  0.10921747447E+03  0.16355887249E+03  0.92792475882E+02 0.  0.
         24    2    1    2    0    0  0.38145678186E+01  0.12024085989E+02  0.48930217926E+02  0.94449875967E+02  0.79796511655E+02 0.  0.
        -11    1    4    4    0    0 -0.33343439634E+02 -0.39335892471E+01  0.37006695825E+01  0.33777996482E+02  0.00000000000E+00 0.  1.
         12    1    4    4    0    0  0.37158007453E+02  0.15957675236E+02  0.45229548344E+02  0.60671879485E+02  0.00000000000E+00 0. -1.
        -13    1    3    3    0    0 -0.61544217014E+02 -0.92715071910E+01  0.43612584076E+02  0.75998085392E+02  0.00000000000E+00 0. -1.
         13    1    3    3    0    0  0.16685415314E+02 -0.55538155434E+02  0.65604890394E+02  0.87560787096E+02  0.00000000000E+00 0.  1.
         21    1    1    2  503  502  0.10423479247E+02  0.56021244198E+02  0.22607718639E+03  0.23314785636E+03  0.00000000000E+00 0. -1.
          1    1    1    2  501    0  0.30620754634E+02 -0.32356675624E+01  0.95242442442E+02  0.10009606886E+03  0.00000000000E+00 0. -1.
<scales pt_clust_5="13000.00000" pt_clust_6="13000.00000" pt_clust_7="13000.00000" pt_clust_8="13000.00000" pt_clust_9="57.17877" pt_clust_10="30.79125"></scales>
<clustering>
<clus scale="   30.791">  2 10  1 -1</clus>
<clus scale="   57.179">  1  9  2 -1</clus>
<clus scale="   79.797">  5  6 -1 -1</clus>
<clus scale="   89.534">  2  5  1 -1</clus>
<clus scale="   92.792">  7  8 -1 -1</clus>
<clus scale="   30.791">  2  5  1 -1</clus>
</clustering>
</event>
<event>
10    4  0.5389768E-005  0.1837385E+03  0.7546771E-02  0.1185238E+00
         21   -1    0    0  501  502  0.00000000000E+00  0.00000000000E+00  0.46984277618E+03  0.46984277618E+03  0.00000000000E+00 0. -1.
          2   -1    0    0  503    0 -0.00000000000E+00 -0.00000000000E+00 -0.26531482495E+03  0.26531482495E+03  0.00000000000E+00 0. -1.
         23    2    1    2    0    0 -0.12250723738E+03 -0.53844636113E+02  0.26270323872E+02  0.16383423776E+03  0.90797904698E+02 0.  0.
         24    2    1    2    0    0 -0.98419834084E+02 -0.66598990191E+02  0.12051966544E+03  0.18763503771E+03  0.80994002142E+02 0.  0.
        -11    1    4    4    0    0 -0.29617135438E+02  0.15172240889E+02  0.12120722255E+02  0.35415865274E+02  0.00000000000E+00 0.  1.
         12    1    4    4    0    0 -0.68802698646E+02 -0.81771231080E+02  0.10839894319E+03  0.15221917244E+03  0.00000000000E+00 0. -1.
        -11    1    3    3    0    0 -0.69589580639E+01 -0.30363366493E+02  0.33446667231E+02  0.45706024450E+02  0.00000000000E+00 0.  1.
         11    1    3    3    0    0 -0.11554827932E+03 -0.23481269620E+02 -0.71763433595E+01  0.11812821331E+03  0.00000000000E+00 0. -1.
         21    1    1    2  503  502  0.14389941458E+03  0.97829247369E+02 -0.10428906609E+03  0.20286402456E+03  0.00000000000E+00 0.  1.
          1    1    1    2  501    0  0.77027656886E+02  0.22614378935E+02  0.16202702801E+03  0.18082430109E+03  0.00000000000E+00 0. -1.
<scales pt_clust_5="13000.00000" pt_clust_6="13000.00000" pt_clust_7="13000.00000" pt_clust_8="13000.00000" pt_clust_9="159.73597" pt_clust_10="80.27870"></scales>
<clustering>
<clus scale="   80.279">  1 10  2 -1</clus>
<clus scale="   80.994">  5  6 -1 -1</clus>
<clus scale="   90.798">  7  8 -1 -1</clus>
<clus scale="  114.089">  1  5  2 -1</clus>
<clus scale="  159.736">  2  9  1 -1</clus>
<clus scale="   80.279">  1  5  2 -1</clus>
</clustering>
</event>
<event>
10    4  0.5389768E-005  0.1097217E+03  0.7546771E-02  0.1262806E+00
         21   -1    0    0  501  502  0.00000000000E+00  0.00000000000E+00  0.49142907191E+03  0.49142907191E+03  0.00000000000E+00 0. -1.
          2   -1    0    0  503    0 -0.00000000000E+00 -0.00000000000E+00 -0.11889440021E+03  0.11889440021E+03  0.00000000000E+00 0. -1.
         23    2    1    2    0    0 -0.63740991059E+02  0.48186779436E+02 -0.22224437926E+02  0.11918005994E+03  0.85586689336E+02 0.  0.
         24    2    1    2    0    0  0.29352750667E+02 -0.98941867878E+02  0.31004902727E+03  0.33663310870E+03  0.80872574891E+02 0.  0.
        -11    1    4    4    0    0  0.26695855973E+02 -0.44458848380E+02  0.54117194836E+02  0.74952843191E+02  0.00000000000E+00 0.  1.
         12    1    4    4    0    0  0.26568946941E+01 -0.54483019498E+02  0.25593183243E+03  0.26168026551E+03  0.00000000000E+00 0. -1.
        -13    1    3    3    0    0  0.14292243571E+01  0.25047959536E+02  0.25015765624E+02  0.35429246237E+02  0.00000000000E+00 0.  1.
         13    1    3    3    0    0 -0.65170215416E+02  0.23138819900E+02 -0.47240203550E+02  0.83750813699E+02  0.00000000000E+00 0. -1.
         21    1    1    2  503  502  0.19804319118E+02 -0.56195876999E+01 -0.23735961269E+02  0.31419527034E+02  0.00000000000E+00 0. -1.
          1    1    1    2  501    0  0.14583921273E+02  0.56374676142E+02  0.10844604362E+03  0.12309077645E+03  0.00000000000E+00 0. -1.
<scales pt_clust_5="13000.00000" pt_clust_6="13000.00000" pt_clust_7="13000.00000" pt_clust_8="13000.00000" pt_clust_9="20.58618" pt_clust_10="58.21540"></scales>
<clustering>
<clus scale="   20.586">  2  9  1 -1</clus>
<clus scale="   58.215">  1 10  2 -1</clus>
<clus scale="   80.873">  5  6 -1 -1</clus>
<clus scale="   85.587">  7  8 -1 -1</clus>
<clus scale="  106.086">  1  5  2 -1</clus>
<clus scale="   58.215">  1  5  2 -1</clus>
</clustering>
</event>
<event>
10    4  0.5389768E-005  0.2541673E+03  0.7546771E-02  0.1111229E+00
         -1   -1    0    0    0  501 -0.00000000000E+00  0.00000000000E+00  0.89972796720E+03  0.89972796720E+03  0.00000000000E+00 0.  1.
         21   -1    0    0  503  502  0.00000000000E+00 -0.00000000000E+00 -0.10507361313E+03  0.10507361313E+03  0.00000000000E+00 0.  1.
         23    2    1    2    0    0 -0.65709178295E+02  0.19809095877E+03  0.28294275397E+03  0.36292411433E+03  0.89997703741E+02 0.  0.
         24    2    1    2    0    0  0.94047713985E+02 -0.25585735637E+03  0.31117160144E+03  0.42132824806E+03  0.79885967193E+02 0.  0.
        -13    1    4    4    0    0  0.59157961721E+02 -0.70175666740E+02  0.72715196145E+02  0.11709734578E+03  0.00000000000E+00 0.  1.
         14    1    4    4    0    0  0.34889752264E+02 -0.18568168963E+03  0.23845640530E+03  0.30423090228E+03  0.00000000000E+00 0. -1.
        -13    1    3    3    0    0  0.16922252592E+02  0.81366503785E+02  0.86693208865E+02  0.12009405911E+03  0.00000000000E+00 0.  1.
         13    1    3    3    0    0 -0.82631430888E+02  0.11672445498E+03  0.19624954511E+03  0.24283005522E+03  0.00000000000E+00 0. -1.
         21    1    1    2  503  501 -0.27225295199E+02  0.81837192611E+01  0.13713942549E+03  0.14005503199E+03  0.00000000000E+00 0. -1.
         -2    1    1    2    0  502 -0.11132404913E+01  0.49582678341E+02  0.63400573157E+02  0.80494185955E+02  0.00000000000E+00 0.  1.
<scales pt_clust_5="13000.00000" pt_clust_6="13000.00000" pt_clust_7="13000.00000" pt_clust_8="13000.00000" pt_clust_9="28.42868" pt_clust_10="50.49107"></scales>
<clustering>
<clus scale="   28.429">  1  9  2 -1</clus>
<clus scale="   50.491">  2 10  1 -1</clus>
<clus scale="   79.886">  5  6 -1 -1</clus>
<clus scale="   89.998">  7  8 -1 -1</clus>
<clus scale="  250.765">  2  5  1 -1</clus>
<clus scale="   50.491">  2  5  1 -1</clus>
</clustering>
</event>
<event>
10    4  0.5389768E-005  0.1067373E+03  0.7546771E-02  0.1271869E+00
         21   -1    0    0  501  502  0.00000000000E+00  0.00000000000E+00  0.16858535956E+03  0.16858535956E+03  0.00000000000E+00 0. -1.
          2   -1    0    0  503    0 -0.00000000000E+00 -0.00000000000E+00 -0.47304020150E+03  0.47304020150E+03  0.00000000000E+00 0. -1.
         24    2    1    2    0    0  0.36907684270E+02  0.66148896675E+01 -0.14805882411E+03  0.17210790057E+03  0.79333348082E+02 0.  0.
         23    2    1    2    0    0 -0.45862890572E+01 -0.36819770057E+01  0.44282931349E+02  0.10170318679E+03  0.91367221647E+02 0.  0.
        -13    1    3    3    0    0  0.31806449982E+01  0.25175817551E+02 -0.76304781626E+01  0.26498348797E+02  0.00000000000E+00 0.  1.
         14    1    3    3    0    0  0.33727039272E+02 -0.18560927883E+02 -0.14042834594E+03  0.14560955177E+03  0.00000000000E+00 0. -1.
        -11    1    4    4    0    0 -0.45510457638E+02  0.72498665057E+01  0.98752900267E+01  0.47130496198E+02  0.00000000000E+00 0.  1.
         11    1    4    4    0    0  0.40924168581E+02 -0.10931843511E+02  0.34407641322E+02  0.54572690587E+02  0.00000000000E+00 0. -1.
         21    1    1    2  503  502  0.42916911226E+02 -0.38057418305E+02 -0.25968886334E+03  0.26594836736E+03  0.00000000000E+00 0. -1.
          1    1    1    2  501    0 -0.75238306439E+02  0.35124505643E+02  0.59009914163E+02  0.10186610635E+03  0.00000000000E+00 0. -1.
<scales pt_clust_5="13000.00000" pt_clust_6="13000.00000" pt_clust_7="13000.00000" pt_clust_8="13000.00000" pt_clust_9="57.36051" pt_clust_10="77.44635"></scales>
<clustering>
<clus scale="   57.361">  2  9  1 -1</clus>
<clus scale="   77.446">  1 10  2 -1</clus>
<clus scale="   79.333">  5  6 -1 -1</clus>
<clus scale="   91.367">  7  8 -1 -1</clus>
<clus scale="   96.637">  2  5  1 -1</clus>
<clus scale="   77.446">  1  5  2 -1</clus>
</clustering>
</event>
<event>
10    4  0.5389768E-005  0.1106813E+03  0.7546771E-02  0.1265029E+00
          2   -1    0    0  503    0 -0.00000000000E+00  0.00000000000E+00  0.12042433189E+04  0.12042433189E+04  0.00000000000E+00 0. -1.
         21   -1    0    0  501  502  0.00000000000E+00 -0.00000000000E+00 -0.33731232922E+02  0.33731232922E+02  0.00000000000E+00 0.  1.
         23    2    1    2    0    0  0.54168276094E+01 -0.88310868692E+02  0.54986481820E+03  0.56488596146E+03  0.94428171675E+02 0.  0.
         24    2    1    2    0    0  0.34013322954E+02  0.56555963224E+02  0.10801367083E+03  0.14993959374E+03  0.80370676057E+02 0.  0.
        -13    1    4    4    0    0  0.53795365304E+02  0.17008114938E+02  0.78898058407E+02  0.96995468567E+02  0.00000000000E+00 0.  1.
         14    1    4    4    0    0 -0.19782042350E+02  0.39547848285E+02  0.29115612424E+02  0.52944125174E+02  0.00000000000E+00 0. -1.
        -13    1    3    3    0    0 -0.30098880178E+02 -0.31722241097E+00  0.78680601620E+02  0.84241796570E+02  0.00000000000E+00 0.  1.
         13    1    3    3    0    0  0.35515707787E+02 -0.87993646281E+02  0.47118421658E+03  0.48064416489E+03  0.00000000000E+00 0. -1.
         21    1    1    2  503  502 -0.40805875123E+02  0.55785097042E+02  0.46134160695E+03  0.46649027300E+03  0.00000000000E+00 0. -1.
          1    1    1    2  501    0  0.13757245597E+01 -0.24030191573E+02  0.51291989960E+02  0.56658723593E+02  0.00000000000E+00 0. -1.
<scales pt_clust_5="13000.00000" pt_clust_6="13000.00000" pt_clust_7="13000.00000" pt_clust_8="13000.00000" pt_clust_9="67.44976" pt_clust_10="24.06954"></scales>
<clustering>
<clus scale="   24.070">  2 10  1 -1</clus>
<clus scale="   67.450">  1  9  2 -1</clus>
<clus scale="   80.371">  5  6 -1 -1</clus>
<clus scale="   94.428">  7  8 -1 -1</clus>
<clus scale="   98.960">  2  5  1 -1</clus>
<clus scale="   24.070">  2  5  1 -1</clus>
</clustering>
</event>
<event>
10    4  0.5389768E-005  0.1656347E+03  0.7546771E-02  0.1184104E+00
         21   -1    0    0  503  502  0.00000000000E+00  0.00000000000E+00  0.26824268907E+03  0.26824268907E+03  0.00000000000E+00 0.  1.
         -1   -1    0    0    0  501 -0.00000000000E+00 -0.00000000000E+00 -0.24506892004E+03  0.24506892004E+03  0.00000000000E+00 0.  1.
         24    2    1    2    0    0  0.33544316752E+02  0.13910239764E+03 -0.32088445477E+02  0.16638712555E+03  0.78614941327E+02 0.  0.
         23    2    1    2    0    0 -0.24367420552E+02 -0.14674875915E+03  0.15323329340E+03  0.23175992625E+03  0.90018063259E+02 0.  0.
        -11    1    3    3    0    0  0.12352471591E+02  0.13306531423E+03 -0.82012574510E+01  0.13388884207E+03  0.00000000000E+00 0.  1.
         12    1    3    3    0    0  0.21191845161E+02  0.60370834043E+01 -0.23887188026E+02  0.32498283480E+02  0.00000000000E+00 0. -1.
        -11    1    4    4    0    0 -0.37994818475E+02 -0.20432955676E+02  0.61210566180E+02  0.74885548143E+02  0.00000000000E+00 0. -1.
         11    1    4    4    0    0  0.13627397922E+02 -0.12631580348E+03  0.92022727217E+02  0.15687437811E+03  0.00000000000E+00 0.  1.
         21    1    1    2  503  501  0.13813380799E+02 -0.19398187919E+02 -0.51035792432E+02  0.56318303355E+02  0.00000000000E+00 0.  1.
         -2    1    1    2    0  502 -0.22990276998E+02  0.27044549435E+02 -0.46935286458E+02  0.58846253963E+02  0.00000000000E+00 0.  1.
<scales pt_clust_5="13000.00000" pt_clust_6="13000.00000" pt_clust_7="13000.00000" pt_clust_8="13000.00000" pt_clust_9="23.81384" pt_clust_10="28.94469"></scales>
<clustering>
<clus scale="   23.814">  2  9  1 -1</clus>
<clus scale="   28.945">  1 10  2 -1</clus>
<clus scale="   78.615">  5  6 -1 -1</clus>
<clus scale="   90.018">  7  8 -1 -1</clus>
<clus scale="  159.725">  2  5  1 -1</clus>
<clus scale="   28.945">  1  5  2 -1</clus>
</clustering>
</event>
<event>
10    4  0.5389768E-005  0.1832047E+03  0.7546771E-02  0.1165920E+00
          2   -1    0    0  503    0 -0.00000000000E+00  0.00000000000E+00  0.45016977352E+03  0.45016977352E+03  0.00000000000E+00 0. -1.
         21   -1    0    0  501  502  0.00000000000E+00 -0.00000000000E+00 -0.33442623450E+03  0.33442623450E+03  0.00000000000E+00 0. -1.
         24    2    1    2    0    0 -0.38853136211E+01  0.12875049535E+03  0.73597437951E+02  0.16872492535E+03  0.80372457009E+02 0.  0.
         23    2    1    2    0    0  0.82532170205E+02 -0.18042517208E+03  0.12763366895E+02  0.21856107603E+03  0.90781267812E+02 0.  0.
        -11    1    3    3    0    0  0.37155019821E+02  0.44114065418E+02  0.30791839155E+02  0.65381064722E+02  0.00000000000E+00 0.  1.
         12    1    3    3    0    0 -0.41040333442E+02  0.84636429931E+02  0.42805598797E+02  0.10334386062E+03  0.00000000000E+00 0. -1.
        -13    1    4    4    0    0 -0.57280831704E+01 -0.60829346165E+02  0.31511894352E+02  0.68746052812E+02  0.00000000000E+00 0. -1.
         13    1    4    4    0    0  0.88260253375E+02 -0.11959582591E+03 -0.18748527457E+02  0.14981502322E+03  0.00000000000E+00 0.  1.
         21    1    1    2  503  502 -0.70494783235E+02  0.27374533482E+02  0.20568905290E+03  0.21915032747E+03  0.00000000000E+00 0. -1.
          1    1    1    2  501    0 -0.81520733484E+01  0.24300143245E+02 -0.17630631873E+03  0.17815967918E+03  0.00000000000E+00 0. -1.
<scales pt_clust_5="13000.00000" pt_clust_6="13000.00000" pt_clust_7="13000.00000" pt_clust_8="13000.00000" pt_clust_9="76.32995" pt_clust_10="25.63110"></scales>
<clustering>
<clus scale="   25.631">  2 10  1 -1</clus>
<clus scale="   76.330">  1  9  2 -1</clus>
<clus scale="   80.372">  5  6 -1 -1</clus>
<clus scale="   90.781">  7  8 -1 -1</clus>
<clus scale="  178.276">  1  5  2 -1</clus>
<clus scale="   25.631">  2  5  1 -1</clus>
</clustering>
</event>
<event>
10    4  0.5389768E-005  0.1314828E+03  0.7546771E-02  0.1232340E+00
         -1   -1    0    0    0  501 -0.00000000000E+00  0.00000000000E+00  0.46152746141E+03  0.46152746141E+03  0.00000000000E+00 0.  1.
         21   -1    0    0  503  502  0.00000000000E+00 -0.00000000000E+00 -0.30219587953E+03  0.30219587953E+03  0.00000000000E+00 0. -1.
         24    2    1    2    0    0 -0.50040563540E+02 -0.58965216448E+02  0.11991014668E+03  0.16366383021E+03  0.80165150118E+02 0.  0.
         23    2    1    2    0    0  0.41172887239E+01 -0.70162272560E+02 -0.21681404074E+03  0.24451017928E+03  0.88527978349E+02 0.  0.
        -11    1    3    3    0    0  0.18645128911E+02 -0.17714119828E+02  0.54389191731E+02  0.60163236703E+02  0.00000000000E+00 0.  1.
         12    1    3    3    0    0 -0.68685692451E+02 -0.41251096620E+02  0.65520954944E+02  0.10350059351E+03  0.00000000000E+00 0. -1.
        -11    1    4    4    0    0 -0.37351914711E+02 -0.21637752177E+02 -0.50890063930E+02  0.66731974784E+02  0.00000000000E+00 0. -1.
         11    1    4    4    0    0  0.41469203435E+02 -0.48524520384E+02 -0.16592397681E+03  0.17777820449E+03  0.00000000000E+00 0.  1.
         21    1    1    2  503  501  0.10574138212E+03  0.12961590347E+03  0.24178370456E+03  0.29400830281E+03  0.00000000000E+00 0.  1.
         -2    1    1    2    0  502 -0.59818107309E+02 -0.48841446489E+00  0.14451771387E+02  0.61541028647E+02  0.00000000000E+00 0.  1.
<scales pt_clust_5="13000.00000" pt_clust_6="13000.00000" pt_clust_7="13000.00000" pt_clust_8="13000.00000" pt_clust_9="97.21386" pt_clust_10="59.82013"></scales>
<clustering>
<clus scale="   59.820">  2 10  1 -1</clus>
<clus scale="   80.165">  5  6 -1 -1</clus>
<clus scale="   88.528">  7  8 -1 -1</clus>
<clus scale="  113.596">  1  5  2 -1</clus>
<clus scale="   97.214">  1  9  2 -1</clus>
<clus scale="   59.820">  2  5  1 -1</clus>
</clustering>
</event>
<event>
10    4  0.5389768E-005  0.2605647E+03  0.7546771E-02  0.1142218E+00
          2   -1    0    0  502    0 -0.00000000000E+00  0.00000000000E+00  0.12284088437E+04  0.12284088437E+04  0.00000000000E+00 0. -1.
         21   -1    0    0  503  502  0.00000000000E+00 -0.00000000000E+00 -0.16563390762E+03  0.16563390762E+03  0.00000000000E+00 0.  1.
         24    2    1    2    0    0 -0.59832174192E+02  0.48649553085E+02 -0.73490676737E+02  0.13315341134E+03  0.79889193893E+02 0.  0.
         23    2    1    2    0    0  0.49409354024E+02  0.21418672562E+03  0.47485772987E+03  0.53132920227E+03  0.92215073959E+02 0.  0.
        -13    1    3    3    0    0 -0.66733663879E+02  0.39307290761E+02 -0.86235781247E+02  0.11590968453E+03  0.00000000000E+00 0.  1.
         14    1    3    3    0    0  0.69014896875E+01  0.93422623245E+01  0.12745104510E+02  0.17243726808E+02  0.00000000000E+00 0. -1.
        -11    1    4    4    0    0  0.11754315088E+02  0.45481504943E+02  0.34569212889E+02  0.58324623401E+02  0.00000000000E+00 0.  1.
         11    1    4    4    0    0  0.37655038935E+02  0.16870522068E+03  0.44028851699E+03  0.47300457887E+03  0.00000000000E+00 0. -1.
         21    1    1    2  503  501  0.21609654962E+02  0.12608746984E+02  0.22229150088E+02  0.33467787524E+02  0.00000000000E+00 0.  1.
          1    1    1    2  501    0 -0.11186834794E+02 -0.27544502569E+03  0.63917873288E+03  0.69609235021E+03  0.00000000000E+00 0. -1.
<scales pt_clust_5="13000.00000" pt_clust_6="13000.00000" pt_clust_7="13000.00000" pt_clust_8="13000.00000" pt_clust_9="25.01915" pt_clust_10="243.70141"></scales>
<clustering>
<clus scale="   25.019">  2  9  1 -1</clus>
<clus scale="   79.889">  5  6 -1 -1</clus>
<clus scale="   92.215">  7  8 -1 -1</clus>
<clus scale="  108.224">  1  5  2 -1</clus>
<clus scale="  243.701">  2 10  1 -1</clus>
<clus scale="   25.019">  2  5  1 -1</clus>
</clustering>
</event>
<event>
10    4  0.5389768E-005  0.1122731E+03  0.7546771E-02  0.1260431E+00
         21   -1    0    0  501  502  0.00000000000E+00  0.00000000000E+00  0.62639857687E+02  0.62639857687E+02  0.00000000000E+00 0.  1.
          2   -1    0    0  503    0 -0.00000000000E+00 -0.00000000000E+00 -0.67835083304E+03  0.67835083304E+03  0.00000000000E+00 0. -1.
         24    2    1    2    0    0  0.17741999053E+02 -0.61620754065E+02 -0.28143689238E+03  0.29904727808E+03  0.78170674013E+02 0.  0.
         23    2    1    2    0    0  0.35993698474E+01  0.98904116953E+02 -0.47080778903E+02  0.14130300273E+03  0.89190576991E+02 0.  0.
        -11    1    3    3    0    0  0.32446315476E+02 -0.67496769266E+02 -0.16090368596E+03  0.17747837447E+03  0.00000000000E+00 0.  1.
         12    1    3    3    0    0 -0.14704316423E+02  0.58760152006E+01 -0.12053320642E+03  0.12156890361E+03  0.00000000000E+00 0. -1.
        -13    1    4    4    0    0 -0.31600527311E+02  0.32438515702E+02  0.10611790325E+02  0.46513016685E+02  0.00000000000E+00 0.  1.
         13    1    4    4    0    0  0.35199897158E+02  0.66465601252E+02 -0.57692569228E+02  0.94789986042E+02  0.00000000000E+00 0. -1.
         21    1    1    2  503  502  0.21485686183E+02  0.87956378111E+01 -0.11489217885E+03  0.11721437930E+03  0.00000000000E+00 0. -1.
          1    1    1    2  501    0 -0.42827055084E+02 -0.46079000699E+02 -0.17230112523E+03  0.18342603061E+03  0.00000000000E+00 0. -1.
<scales pt_clust_5="13000.00000" pt_clust_6="13000.00000" pt_clust_7="13000.00000" pt_clust_8="13000.00000" pt_clust_9="23.21633" pt_clust_10="56.32792"></scales>
<clustering>
<clus scale="   23.216">  2  9  1 -1</clus>
<clus scale="   56.328">  1 10  2 -1</clus>
<clus scale="   78.171">  5  6 -1 -1</clus>
<clus scale="   89.191">  7  8 -1 -1</clus>
<clus scale="  103.735">  2  5  1 -1</clus>
<clus scale="   56.328">  1  5  2 -1</clus>
</clustering>
</event>
<event>
10    4  0.5389768E-005  0.1180793E+03  0.7546771E-02  0.1251582E+00
          2   -1    0    0  503    0 -0.00000000000E+00  0.00000000000E+00  0.82481827131E+03  0.82481827131E+03  0.00000000000E+00 0. -1.
         21   -1    0    0  501  502  0.00000000000E+00 -0.00000000000E+00 -0.80291312196E+02  0.80291312196E+02  0.00000000000E+00 0. -1.
         24    2    1    2    0    0  0.50850289710E+02 -0.67981702202E+02  0.35553289714E+03  0.37425135508E+03  0.80331637769E+02 0.  0.
         23    2    1    2    0    0 -0.11501265495E+01  0.92129239141E+02  0.10275434793E+01  0.13266660455E+03  0.95447643348E+02 0.  0.
        -13    1    3    3    0    0  0.46562783364E+02  0.21155882566E+01  0.14657633175E+03  0.15380893842E+03  0.00000000000E+00 0.  1.
         14    1    3    3    0    0  0.42875063457E+01 -0.70097290458E+02  0.20895656539E+03  0.22044241665E+03  0.00000000000E+00 0. -1.
        -13    1    4    4    0    0 -0.16518631085E+02 -0.15442351188E+02  0.74629611008E+01  0.23812332341E+02  0.00000000000E+00 0.  1.
         13    1    4    4    0    0  0.15368504536E+02  0.10757159033E+03 -0.64354176215E+01  0.10885427221E+03  0.00000000000E+00 0. -1.
         21    1    1    2  503  502 -0.22671572273E+02  0.24144316421E+02  0.11514048252E+03  0.11980934404E+03  0.00000000000E+00 0. -1.
          1    1    1    2  501    0 -0.27028590887E+02 -0.48291853360E+02  0.27282603597E+03  0.27838227985E+03  0.00000000000E+00 0. -1.
<scales pt_clust_5="13000.00000" pt_clust_6="13000.00000" pt_clust_7="13000.00000" pt_clust_8="13000.00000" pt_clust_9="33.12021" pt_clust_10="52.89705"></scales>
<clustering>
<clus scale="   33.120">  1  9  2 -1</clus>
<clus scale="   52.897">  2 10  1 -1</clus>
<clus scale="   80.332">  5  6 -1 -1</clus>
<clus scale="   95.448">  7  8 -1 -1</clus>
<clus scale="  106.234">  1  5  2 -1</clus>
<clus scale="   52.897">  2  5  1 -1</clus>
</clustering>
</event>
<event>
10    4  0.5389768E-005  0.2437048E+03  0.7546771E-02  0.1142999E+00
         21   -1    0    0  501  502  0.00000000000E+00  0.00000000000E+00  0.75620068354E+03  0.75620068354E+03  0.00000000000E+00 0. -1.
          2   -1    0    0  503    0 -0.00000000000E+00 -0.00000000000E+00 -0.38035736284E+03  0.38035736284E+03  0.00000000000E+00 0. -1.
         24    2    1    2    0    0 -0.43536593843E+02  0.94420598838E+02 -0.20229934953E+03  0.24046156113E+03  0.78013146791E+02 0.  0.
         23    2    1    2    0    0 -0.35113394343E+02  0.18360272472E+03  0.32849997579E+03  0.39008461913E+03  0.96492823551E+02 0.  0.
        -11    1    3    3    0    0  0.22283532410E+02  0.21771059736E+02 -0.60865406883E+02  0.68374941416E+02  0.00000000000E+00 0.  1.
         12    1    3    3    0    0 -0.65820126252E+02  0.72649539102E+02 -0.14143394265E+03  0.17208661971E+03  0.00000000000E+00 0. -1.
        -11    1    4    4    0    0 -0.35600553239E+02  0.35707070148E+02  0.34850922464E+02  0.61294217069E+02  0.00000000000E+00 0.  1.
         11    1    4    4    0    0  0.48715889550E+00  0.14789565457E+03  0.29364905333E+03  0.32879040206E+03  0.00000000000E+00 0. -1.
         21    1    1    2  503  502  0.25766118220E+02  0.87448848437E+01 -0.68944812440E+02  0.74119855784E+02  0.00000000000E+00 0. -1.
          1    1    1    2  501    0  0.52883869966E+02 -0.28676820840E+03  0.31858750688E+03  0.43189201033E+03  0.00000000000E+00 0. -1.
<scales pt_clust_5="13000.00000" pt_clust_6="13000.00000" pt_clust_7="13000.00000" pt_clust_8="13000.00000" pt_clust_9="27.20966" pt_clust_10="223.78835"></scales>
<clustering>
<clus scale="   27.210">  2  9  1 -1</clus>
<clus scale="   78.013">  5  6 -1 -1</clus>
<clus scale="   96.493">  7  8 -1 -1</clus>
<clus scale="  129.818">  2  5  1 -1</clus>
<clus scale="  223.788">  1 10  2 -1</clus>
<clus scale="  223.788">  1  5  2 -1</clus>
</clustering>
</event>
<event>
10    4  0.5389768E-005  0.2013732E+03  0.7546771E-02  0.1150761E+00
          2   -1    0    0  503    0 -0.00000000000E+00  0.00000000000E+00  0.11631511897E+04  0.11631511897E+04  0.00000000000E+00 0. -1.
         21   -1    0    0  501  502  0.00000000000E+00 -0.00000000000E+00 -0.31369280187E+03  0.31369280187E+03  0.00000000000E+00 0. -1.
         24    2    1    2    0    0  0.13093019304E+03  0.14884023014E+03  0.10035869401E+04  0.10258027760E+04  0.76081925556E+02 0.  0.
         23    2    1    2    0    0  0.45494662005E+02 -0.12572449942E+03 -0.17400397001E+03  0.24065959722E+03  0.98809139908E+02 0.  0.
        -13    1    3    3    0    0  0.12231629383E+02  0.45519018728E+02  0.13294440930E+03  0.14105250720E+03  0.00000000000E+00 0.  1.
         14    1    3    3    0    0  0.11869856366E+03  0.10332121141E+03  0.87064253075E+03  0.88475026877E+03  0.00000000000E+00 0. -1.
        -13    1    4    4    0    0  0.61091423859E+02 -0.76423743135E+02 -0.58216371395E+02  0.11385032491E+03  0.00000000000E+00 0.  1.
         13    1    4    4    0    0 -0.15596761854E+02 -0.49300756287E+02 -0.11578759861E+03  0.12680927231E+03  0.00000000000E+00 0. -1.
         21    1    1    2  503  502 -0.30692943766E+02  0.10141491726E+01  0.50896323113E+02  0.59443426903E+02  0.00000000000E+00 0. -1.
          1    1    1    2  501    0 -0.14573191128E+03 -0.24129879887E+02 -0.31020905344E+02  0.15093819145E+03  0.00000000000E+00 0. -1.
<scales pt_clust_5="13000.00000" pt_clust_6="13000.00000" pt_clust_7="13000.00000" pt_clust_8="13000.00000" pt_clust_9="30.70969" pt_clust_10="149.34612"></scales>
<clustering>
<clus scale="   30.710">  1  9  2 -1</clus>
<clus scale="   76.082">  5  6 -1 -1</clus>
<clus scale="   98.809">  7  8 -1 -1</clus>
<clus scale="  149.346">  2 10  1 -1</clus>
<clus scale="  191.249">  1  5  2 -1</clus>
<clus scale="  149.346">  2  5  1 -1</clus>
</clustering>
</event>
<event>
10    4  0.5389768E-005  0.1361499E+03  0.7546771E-02  0.1220995E+00
         21   -1    0    0  501  502  0.00000000000E+00  0.00000000000E+00  0.67259745696E+02  0.67259745696E+02  0.00000000000E+00 0.  1.
          2   -1    0    0  503    0 -0.00000000000E+00 -0.00000000000E+00 -0.60458150508E+03  0.60458150508E+03  0.00000000000E+00 0. -1.
         23    2    1    2    0    0  0.80740754710E+02  0.62949361001E+02 -0.16685886195E+03  0.21574046428E+03  0.90666292498E+02 0.  0.
         24    2    1    2    0    0 -0.10821074440E+03 -0.89959225895E+01 -0.21172170885E+03  0.25113059529E+03  0.80311904856E+02 0.  0.
        -13    1    4    4    0    0 -0.55674922900E+02  0.29605308569E+02 -0.64913000213E+02  0.90497894628E+02  0.00000000000E+00 0.  1.
         14    1    4    4    0    0 -0.52535821497E+02 -0.38601231158E+02 -0.14680870864E+03  0.16063270066E+03  0.00000000000E+00 0. -1.
        -11    1    3    3    0    0  0.44001953992E+02  0.71764007959E+01 -0.10626980918E+02  0.45832362005E+02  0.00000000000E+00 0.  1.
         11    1    3    3    0    0  0.36738800718E+02  0.55772960205E+02 -0.15623188103E+03  0.16990810227E+03  0.00000000000E+00 0. -1.
         21    1    1    2  503  502 -0.33783957507E+02 -0.14288020464E+02 -0.11309500814E+03  0.11889484505E+03  0.00000000000E+00 0. -1.
          1    1    1    2  501    0  0.61253947193E+02 -0.39665417947E+02 -0.45646180441E+02  0.86075346160E+02  0.00000000000E+00 0. -1.
<scales pt_clust_5="13000.00000" pt_clust_6="13000.00000" pt_clust_7="13000.00000" pt_clust_8="13000.00000" pt_clust_9="36.68110" pt_clust_10="70.31875"></scales>
<clustering>
<clus scale="   36.681">  2  9  1 -1</clus>
<clus scale="   70.319">  1 10  2 -1</clus>
<clus scale="   80.312">  5  6 -1 -1</clus>
<clus scale="   90.666">  7  8 -1 -1</clus>
<clus scale="  129.485">  1  5  2 -1</clus>
<clus scale="   70.319">  1  5  2 -1</clus>
</clustering>
</event>
<event>
10    4  0.5389768E-005  0.2281555E+03  0.7546771E-02  0.1160505E+00
          2   -1    0    0  503    0 -0.00000000000E+00  0.00000000000E+00  0.62990654172E+03  0.62990654172E+03  0.00000000000E+00 0. -1.
         21   -1    0    0  501  502  0.00000000000E+00 -0.00000000000E+00 -0.29752460552E+03  0.29752460552E+03  0.00000000000E+00 0. -1.
         24    2    1    2    0    0 -0.60144162983E+02  0.34126923631E+01  0.19490369123E+03  0.21961355053E+03  0.81324632868E+02 0.  0.
         23    2    1    2    0    0 -0.15167115768E+03 -0.79281420034E+02  0.84549473868E+02  0.21355426260E+03  0.95745109066E+02 0.  0.
        -11    1    3    3    0    0 -0.31682947231E+02  0.42328161282E+02  0.10729825582E+03  0.11961771643E+03  0.00000000000E+00 0.  1.
         12    1    3    3    0    0 -0.28461215752E+02 -0.38915468918E+02  0.87605435409E+02  0.99995834095E+02  0.00000000000E+00 0. -1.
        -11    1    4    4    0    0 -0.53022997147E+02  0.19471381486E+02  0.26200335023E+02  0.62265805051E+02  0.00000000000E+00 0. -1.
         11    1    4    4    0    0 -0.98648160535E+02 -0.98752801519E+02  0.58349138845E+02  0.15128845755E+03  0.00000000000E+00 0.  1.
         21    1    1    2  503  502 -0.60146770778E+01  0.30107357400E+02  0.21610389638E+03  0.21827396396E+03  0.00000000000E+00 0. -1.
          1    1    1    2  501    0  0.21782999774E+03  0.45761370271E+02 -0.16317512528E+03  0.27598937015E+03  0.00000000000E+00 0. -1.
<scales pt_clust_5="13000.00000" pt_clust_6="13000.00000" pt_clust_7="13000.00000" pt_clust_8="13000.00000" pt_clust_9="30.70227" pt_clust_10="207.09371"></scales>
<clustering>
<clus scale="   30.702">  1  9  2 -1</clus>
<clus scale="   81.325">  5  6 -1 -1</clus>
<clus scale="   95.745">  7  8 -1 -1</clus>
<clus scale="  104.627">  1  5  2 -1</clus>
<clus scale="  207.094">  2 10  1 -1</clus>
<clus scale="  207.094">  2  5  1 -1</clus>
</clustering>
</event>
<event>
10    4  0.5389768E-005  0.2886789E+03  0.7546771E-02  0.1117332E+00
         21   -1    0    0  501  502  0.00000000000E+00  0.00000000000E+00  0.56400876958E+03  0.56400876958E+03  0.00000000000E+00 0.  1.
          2   -1    0    0  503    0 -0.00000000000E+00 -0.00000000000E+00 -0.59010729233E+03  0.59010729233E+03  0.00000000000E+00 0. -1.
         24    2    1    2    0    0 -0.74334664363E+02 -0.99042594593E+02  0.20260329315E+02  0.14808329480E+03  0.78632711931E+02 0.  0.
         23    2    1    2    0    0 -0.16067694888E+03 -0.78467641033E+01  0.24571376360E+03  0.30895516579E+03  0.95913436181E+02 0.  0.
        -11    1    3    3    0    0 -0.41207962823E+02  0.54134003459E+00  0.80603055349E-01  0.41211597226E+02  0.00000000000E+00 0.  1.
         12    1    3    3    0    0 -0.33126701540E+02 -0.99583934627E+02  0.20179726260E+02  0.10687169758E+03  0.00000000000E+00 0. -1.
        -13    1    4    4    0    0 -0.19391210790E+02  0.14543683387E+02 -0.45243479377E+00  0.24243400744E+02  0.00000000000E+00 0. -1.
         13    1    4    4    0    0 -0.14128573808E+03 -0.22390447491E+02  0.24616619839E+03  0.28471176505E+03  0.00000000000E+00 0.  1.
         21    1    1    2  503  502 -0.15001383843E+02 -0.19807246669E+03 -0.21962996589E+03  0.29613352646E+03  0.00000000000E+00 0.  1.
          1    1    1    2  501    0  0.25001299708E+03  0.30496182539E+03 -0.72442649775E+02  0.40094407485E+03  0.00000000000E+00 0. -1.
<scales pt_clust_5="13000.00000" pt_clust_6="13000.00000" pt_clust_7="13000.00000" pt_clust_8="13000.00000" pt_clust_9="288.67890" pt_clust_10="13000.00000"></scales>
<clustering>
<clus scale="   78.633">  5  6 -1 -1</clus>
<clus scale="   95.913">  7  8 -1 -1</clus>
<clus scale="  146.691">  2  5  1 -1</clus>
<clus scale="  191.474">  2  7  1 -1</clus>
<clus scale="  288.679">  2  9  1 -1</clus>
<clus scale="  288.679">  1  5  2 -1</clus>
</clustering>
</event>
<event>
10    4  0.5389768E-005  0.9801603E+02  0.7546771E-02  0.1290083E+00
         21   -1    0    0  503  502  0.00000000000E+00  0.00000000000E+00  0.40103528413E+02  0.40103528413E+02  0.00000000000E+00 0. -1.
         -3   -1    0    0    0  501 -0.00000000000E+00 -0.00000000000E+00 -0.71391964773E+03  0.71391964773E+03  0.00000000000E+00 0.  1.
         24    2    1    2    0    0  0.10146092000E+02 -0.57159829889E+02 -0.20189743373E+03  0.22485735025E+03  0.80175213618E+02 0.  0.
         23    2    1    2    0    0 -0.16276654886E+01  0.94531282477E-01 -0.83641524325E+02  0.12344890931E+03  0.90780341408E+02 0.  0.
        -11    1    3    3    0    0 -0.15235702546E+02  0.15343413041E+02 -0.54755350157E+02  0.58870156502E+02  0.00000000000E+00 0.  1.
         12    1    3    3    0    0  0.25381794546E+02 -0.72503242930E+02 -0.14714208357E+03  0.16598719374E+03  0.00000000000E+00 0. -1.
        -11    1    4    4    0    0 -0.71257014100E+01 -0.35337274992E+02 -0.42024567186E+01  0.36292688890E+02  0.00000000000E+00 0. -1.
         11    1    4    4    0    0  0.54980359214E+01  0.35431806274E+02 -0.79439067606E+02  0.87156220415E+02  0.00000000000E+00 0.  1.
         21    1    1    2  503  501  0.29537995641E+02  0.29106098316E+01 -0.33241563903E+02  0.44564183004E+02  0.00000000000E+00 0. -1.
         -4    1    1    2    0  502 -0.38056422153E+02  0.54154688775E+02 -0.35503559736E+03  0.36115273358E+03  0.00000000000E+00 0.  1.
<scales pt_clust_5="13000.00000" pt_clust_6="13000.00000" pt_clust_7="13000.00000" pt_clust_8="13000.00000" pt_clust_9="29.68105" pt_clust_10="64.93319"></scales>
<clustering>
<clus scale="   29.681">  1  9  2 -1</clus>
<clus scale="   64.933">  1 10  2 -1</clus>
<clus scale="   80.175">  5  6 -1 -1</clus>
<clus scale="   88.284">  2  5  1 -1</clus>
<clus scale="   90.780">  7  8 -1 -1</clus>
<clus scale="   29.681">  1  5  2 -1</clus>
</clustering>
</event>
<event>
10    4  0.5389768E-005  0.1336867E+03  0.7546771E-02  0.1224320E+00
          2   -1    0    0  503    0 -0.00000000000E+00  0.00000000000E+00  0.16245217355E+04  0.16245217355E+04  0.00000000000E+00 0. -1.
         21   -1    0    0  501  502  0.00000000000E+00 -0.00000000000E+00 -0.23623256185E+03  0.23623256185E+03  0.00000000000E+00 0. -1.
         24    2    1    2    0    0 -0.35590146416E+02 -0.93052375459E+02  0.14752932614E+04  0.14809087512E+04  0.81701402414E+02 0.  0.
         23    2    1    2    0    0 -0.44552042247E+02  0.26471725142E+02 -0.13593646810E+03  0.17155792867E+03  0.90927239203E+02 0.  0.
        -13    1    3    3    0    0 -0.26511011448E+02 -0.83423876141E+01  0.13085842782E+03  0.13377726747E+03  0.00000000000E+00 0.  1.
         14    1    3    3    0    0 -0.90791349681E+01 -0.84709987845E+02  0.13444348336E+04  0.13471314837E+04  0.00000000000E+00 0. -1.
        -11    1    4    4    0    0 -0.16871269444E+02 -0.14629754271E+02  0.43729742310E+01  0.22755051007E+02  0.00000000000E+00 0.  1.
         11    1    4    4    0    0 -0.27680772802E+02  0.41101479413E+02 -0.14030944233E+03  0.14880287766E+03  0.00000000000E+00 0. -1.
         21    1    1    2  503  502 -0.21033167401E+02  0.76018114260E+02  0.68899834353E+02  0.10472981906E+03  0.00000000000E+00 0.  1.
          1    1    1    2  501    0  0.10117535606E+03 -0.94374639429E+01 -0.19967453979E+02  0.10355779844E+03  0.00000000000E+00 0. -1.
<scales pt_clust_5="13000.00000" pt_clust_6="13000.00000" pt_clust_7="13000.00000" pt_clust_8="13000.00000" pt_clust_9="78.87425" pt_clust_10="95.98670"></scales>
<clustering>
<clus scale="   78.874">  2  9  1 -1</clus>
<clus scale="   81.701">  5  6 -1 -1</clus>
<clus scale="   90.927">  7  8 -1 -1</clus>
<clus scale="   95.987">  2 10  1 -1</clus>
<clus scale="  127.591">  1  5  2 -1</clus>
<clus scale="   78.874">  2  5  1 -1</clus>
</clustering>
</event>
<event>
10    4  0.5389768E-005  0.1003765E+03  0.7546771E-02  0.1283126E+00
         21   -1    0    0  501  502  0.00000000000E+00  0.00000000000E+00  0.38373269060E+02  0.38373269060E+02  0.00000000000E+00 0. -1.
          2   -1    0    0  503    0 -0.00000000000E+00 -0.00000000000E+00 -0.78373686120E+03  0.78373686120E+03  0.00000000000E+00 0. -1.
         24    2    1    2    0    0 -0.17121690565E+02 -0.32417890604E+02 -0.16993160424E+03  0.19112297528E+03  0.79417690990E+02 0.  0.
         23    2    1    2    0    0  0.95375428952E+02  0.88399342730E+01 -0.20088832009E+03  0.23902320355E+03  0.87185766034E+02 0.  0.
        -13    1    3    3    0    0  0.46244161070E+01  0.23647582500E+02 -0.27773752325E+02  0.36769208594E+02  0.00000000000E+00 0.  1.
         14    1    3    3    0    0 -0.21746106672E+02 -0.56065473104E+02 -0.14215785191E+03  0.15435376669E+03  0.00000000000E+00 0. -1.
        -13    1    4    4    0    0  0.17835954768E+02  0.22470674053E+02 -0.12985363510E+03  0.13298503308E+03  0.00000000000E+00 0.  1.
         13    1    4    4    0    0  0.77539474184E+02 -0.13630739780E+02 -0.71034684989E+02  0.10603817046E+03  0.00000000000E+00 0. -1.
         21    1    1    2  503  502  0.41236513930E+01  0.30613164054E+02 -0.72433469181E+02  0.78745017441E+02  0.00000000000E+00 0. -1.
          1    1    1    2  501    0 -0.82377389780E+02 -0.70352077239E+01 -0.30211019863E+03  0.31321893399E+03  0.00000000000E+00 0. -1.
<scales pt_clust_5="13000.00000" pt_clust_6="13000.00000" pt_clust_7="13000.00000" pt_clust_8="13000.00000" pt_clust_9="30.88965" pt_clust_10="80.82902"></scales>
<clustering>
<clus scale="   30.890">  2  9  1 -1</clus>
<clus scale="   79.418">  5  6 -1 -1</clus>
<clus scale="   80.829">  1 10  2 -1</clus>
<clus scale="   87.186">  7  8 -1 -1</clus>
<clus scale="   93.708">  2  5  1 -1</clus>
<clus scale="   80.829">  1  5  2 -1</clus>
</clustering>
</event>
<event>
10    4  0.5389768E-005  0.1577523E+03  0.7546771E-02  0.1192987E+00
         21   -1    0    0  501  502  0.00000000000E+00  0.00000000000E+00  0.68298048880E+02  0.68298048880E+02  0.00000000000E+00 0.  1.
          2   -1    0    0  503    0 -0.00000000000E+00 -0.00000000000E+00 -0.10365626724E+04  0.10365626724E+04  0.00000000000E+00 0. -1.
         24    2    1    2    0    0  0.92817853550E+02  0.32461524652E+02 -0.59631183168E+03  0.60971403879E+03  0.80588485397E+02 0.  0.
         23    2    1    2    0    0 -0.15414033734E+03 -0.75533316948E+01 -0.18711260865E+03  0.25912474004E+03  0.91204200381E+02 0.  0.
        -11    1    3    3    0    0  0.77325348039E+01  0.39301683384E+02 -0.14664413414E+03  0.15201617180E+03  0.00000000000E+00 0.  1.
         12    1    3    3    0    0  0.85085318746E+02 -0.68401587320E+01 -0.44966769753E+03  0.45769786699E+03  0.00000000000E+00 0. -1.
        -13    1    4    4    0    0 -0.63934197029E+02 -0.47732697870E+02 -0.95267048395E+02  0.12426504941E+03  0.00000000000E+00 0. -1.
         13    1    4    4    0    0 -0.90206140311E+02  0.40179366175E+02 -0.91845560256E+02  0.13485969062E+03  0.00000000000E+00 0.  1.
         21    1    1    2  503  502  0.37365267829E+02  0.32293614390E+01 -0.19429094695E+03  0.19787764927E+03  0.00000000000E+00 0. -1.
          1    1    1    2  501    0  0.23957215961E+02 -0.28137554397E+02  0.94507637859E+01  0.38144293154E+02  0.00000000000E+00 0. -1.
<scales pt_clust_5="13000.00000" pt_clust_6="13000.00000" pt_clust_7="13000.00000" pt_clust_8="13000.00000" pt_clust_9="38.38797" pt_clust_10="36.95497"></scales>
<clustering>
<clus scale="   36.955">  1 10  2 -1</clus>
<clus scale="   38.388">  2  9  1 -1</clus>
<clus scale="   80.588">  5  6 -1 -1</clus>
<clus scale="   91.204">  7  8 -1 -1</clus>
<clus scale="  151.862">  2  5  1 -1</clus>
<clus scale="   36.955">  1  5  2 -1</clus>
</clustering>
</event>
<event>
10    4  0.5389768E-005  0.1014825E+03  0.7546771E-02  0.1280122E+00
          4   -1    0    0  503    0 -0.00000000000E+00  0.00000000000E+00  0.45569575699E+03  0.45569575699E+03  0.00000000000E+00 0. -1.
         21   -1    0    0  501  502  0.00000000000E+00 -0.00000000000E+00 -0.10150115271E+03  0.10150115271E+03  0.00000000000E+00 0. -1.
         23    2    1    2    0    0  0.24026255390E+02 -0.51390573194E+02  0.11585192885E+03  0.15642216386E+03  0.88475827022E+02 0.  0.
         24    2    1    2    0    0 -0.80811280038E+02 -0.24131890322E+01  0.77637855858E+02  0.13827396745E+03  0.80967690779E+02 0.  0.
        -11    1    4    4    0    0 -0.22039018293E+02  0.78496331227E+01  0.74988894870E+02  0.78553608583E+02  0.00000000000E+00 0.  1.
         12    1    4    4    0    0 -0.58772261745E+02 -0.10262822155E+02  0.26489609879E+01  0.59720358870E+02  0.00000000000E+00 0. -1.
        -13    1    3    3    0    0  0.34737748077E+01 -0.74157786105E+02  0.77613798891E+02  0.10740272869E+03  0.00000000000E+00 0. -1.
         13    1    3    3    0    0  0.20552480583E+02  0.22767212911E+02  0.38238129959E+02  0.49019435172E+02  0.00000000000E+00 0.  1.
         21    1    1    2  503  502 -0.32496376716E+02  0.81089278233E+01  0.15868904804E+03  0.16218502760E+03  0.00000000000E+00 0. -1.
          3    1    1    2  501    0  0.89281401363E+02  0.45694834403E+02  0.20157715338E+01  0.10031575078E+03  0.00000000000E+00 0. -1.
<scales pt_clust_5="13000.00000" pt_clust_6="13000.00000" pt_clust_7="13000.00000" pt_clust_8="13000.00000" pt_clust_9="33.49282" pt_clust_10="95.99868"></scales>
<clustering>
<clus scale="   33.493">  1  9  2 -1</clus>
<clus scale="   80.968">  5  6 -1 -1</clus>
<clus scale="   88.476">  7  8 -1 -1</clus>
<clus scale="   95.999">  2 10  1 -1</clus>
<clus scale="   95.999">  2  5  1 -1</clus>
<clus scale="   95.999">  2  5  1 -1</clus>
</clustering>
</event>
<event>
10    4  0.5389768E-005  0.1519395E+03  0.7546771E-02  0.1198692E+00
         21   -1    0    0  501  502  0.00000000000E+00  0.00000000000E+00  0.63998221797E+03  0.63998221797E+03  0.00000000000E+00 0.  1.
          4   -1    0    0  503    0 -0.00000000000E+00 -0.00000000000E+00 -0.10205700377E+03  0.10205700377E+03  0.00000000000E+00 0. -1.
         23    2    1    2    0    0  0.10010237692E+02  0.83304584454E+02  0.77983130370E+02  0.14202810341E+03  0.83968773281E+02 0.  0.
         24    2    1    2    0    0 -0.73387366088E+02 -0.19751094321E+03  0.34885528087E+03  0.41541370238E+03  0.80450350841E+02 0.  0.
        -13    1    4    4    0    0 -0.18212808240E+02 -0.11601626337E+03  0.24851384046E+03  0.27486470972E+03  0.00000000000E+00 0.  1.
         14    1    4    4    0    0 -0.55174557848E+02 -0.81494679832E+02  0.10034144041E+03  0.14054899266E+03  0.00000000000E+00 0. -1.
        -11    1    3    3    0    0  0.73566626021E-01  0.21520931102E+02 -0.17587061095E+02  0.27793175520E+02  0.00000000000E+00 0.  1.
         11    1    3    3    0    0  0.99366710658E+01  0.61783653352E+02  0.95570191465E+02  0.11423492789E+03  0.00000000000E+00 0. -1.
         21    1    1    2  503  502 -0.72832597148E+01  0.41640452158E+02  0.14634570492E+02  0.44734145588E+02  0.00000000000E+00 0. -1.
          3    1    1    2  501    0  0.70660388111E+02  0.72565906594E+02  0.96452232471E+02  0.13986327036E+03  0.00000000000E+00 0. -1.
<scales pt_clust_5="13000.00000" pt_clust_6="13000.00000" pt_clust_7="13000.00000" pt_clust_8="13000.00000" pt_clust_9="42.27260" pt_clust_10="107.79970"></scales>
<clustering>
<clus scale="   42.273">  2  9  1 -1</clus>
<clus scale="   80.450">  5  6 -1 -1</clus>
<clus scale="   83.969">  7  8 -1 -1</clus>
<clus scale="  107.800">  1 10  2 -1</clus>
<clus scale="  150.024">  1  5  2 -1</clus>
<clus scale="  107.800">  1  5  2 -1</clus>
</clustering>
</event>
<event>
10    4  0.5389768E-005  0.1241101E+03  0.7546771E-02  0.1240326E+00
          2   -1    0    0  503    0 -0.00000000000E+00  0.00000000000E+00  0.10118222430E+04  0.10118222430E+04  0.00000000000E+00 0. -1.
         21   -1    0    0  501  502  0.00000000000E+00 -0.00000000000E+00 -0.36957020769E+02  0.36957020769E+02  0.00000000000E+00 0. -1.
         24    2    1    2    0    0 -0.60336775858E+02  0.25004336375E+02  0.60818377704E+03  0.61699822201E+03  0.80830414779E+02 0.  0.
         23    2    1    2    0    0  0.91492820367E+02 -0.36753591140E+02  0.13194991678E+03  0.18949068069E+03  0.93670565757E+02 0.  0.
        -13    1    3    3    0    0 -0.81043156880E+01  0.46360893640E+02  0.24901029521E+03  0.25341890126E+03  0.00000000000E+00 0.  1.
         14    1    3    3    0    0 -0.52232460170E+02 -0.21356557266E+02  0.35917348183E+03  0.36357932076E+03  0.00000000000E+00 0. -1.
        -11    1    4    4    0    0  0.23194960871E+02  0.32103976607E+01  0.10236647984E+03  0.10501051879E+03  0.00000000000E+00 0.  1.
         11    1    4    4    0    0  0.68297859496E+02 -0.39963988800E+02  0.29583436942E+02  0.84480161895E+02  0.00000000000E+00 0. -1.
         21    1    1    2  503  502 -0.25164116845E+02 -0.16840764010E+02  0.10297292231E+03  0.10733250597E+03  0.00000000000E+00 0. -1.
          1    1    1    2  501    0 -0.59919276634E+01  0.28590018775E+02  0.13175860614E+03  0.13495785513E+03  0.00000000000E+00 0. -1.
<scales pt_clust_5="13000.00000" pt_clust_6="13000.00000" pt_clust_7="13000.00000" pt_clust_8="13000.00000" pt_clust_9="29.65320" pt_clust_10="29.21118"></scales>
<clustering>
<clus scale="   29.211">  2 10  1 -1</clus>
<clus scale="   29.653">  1  9  2 -1</clus>
<clus scale="   80.830">  5  6 -1 -1</clus>
<clus scale="   93.671">  7  8 -1 -1</clus>
<clus scale="  114.729">  1  5  2 -1</clus>
<clus scale="   29.211">  2  5  1 -1</clus>
</clustering>
</event>
<event>
10    4  0.5389768E-005  0.2861724E+03  0.7546771E-02  0.1099846E+00
          2   -1    0    0  503    0 -0.00000000000E+00  0.00000000000E+00  0.31333430462E+03  0.31333430462E+03  0.00000000000E+00 0. -1.
         21   -1    0    0  501  502  0.00000000000E+00 -0.00000000000E+00 -0.16215954201E+04  0.16215954201E+04  0.00000000000E+00 0. -1.
         24    2    1    2    0    0  0.14766117361E+03  0.15490508561E+03 -0.28573903711E+03  0.36585800698E+03  0.80036717848E+02 0.  0.
         23    2    1    2    0    0 -0.16598927693E+02 -0.40029228056E+03 -0.52628197374E+03  0.66767871862E+03  0.91174125387E+02 0.  0.
        -13    1    3    3    0    0  0.30211722272E+02  0.54967507215E+02 -0.35936804867E+02  0.72288511924E+02  0.00000000000E+00 0.  1.
         14    1    3    3    0    0  0.11744945134E+03  0.99937578399E+02 -0.24980223224E+03  0.29356949506E+03  0.00000000000E+00 0. -1.
        -13    1    4    4    0    0  0.17370998854E+01 -0.13971517152E+03 -0.25690880561E+03  0.29244739881E+03  0.00000000000E+00 0.  1.
         13    1    4    4    0    0 -0.18336027578E+02 -0.26057710903E+03 -0.26937316814E+03  0.37523131982E+03  0.00000000000E+00 0. -1.
         21    1    1    2  503  502 -0.30759949749E+01  0.35643621917E+02  0.17915479358E+03  0.18269200747E+03  0.00000000000E+00 0. -1.
          1    1    1    2  501    0 -0.12798625094E+03  0.20974357303E+03 -0.67539489819E+03  0.71870099163E+03  0.00000000000E+00 0. -1.
<scales pt_clust_5="13000.00000" pt_clust_6="13000.00000" pt_clust_7="13000.00000" pt_clust_8="13000.00000" pt_clust_9="35.77610" pt_clust_10="271.25988"></scales>
<clustering>
<clus scale="   35.776">  1  9  2 -1</clus>
<clus scale="   80.037">  5  6 -1 -1</clus>
<clus scale="   91.174">  7  8 -1 -1</clus>
<clus scale="  235.348">  1  5  2 -1</clus>
<clus scale="  271.260">  2 10  1 -1</clus>
<clus scale="  271.260">  2  5  1 -1</clus>
</clustering>
</event>
<event>
10    4  0.5389768E-005  0.7516705E+03  0.7546771E-02  0.9632733E-01
          2   -1    0    0  503    0 -0.00000000000E+00  0.00000000000E+00  0.25500015835E+04  0.25500015835E+04  0.00000000000E+00 0. -1.
         21   -1    0    0  501  502  0.00000000000E+00 -0.00000000000E+00 -0.92812058452E+03  0.92812058452E+03  0.00000000000E+00 0.  1.
         24    2    1    2    0    0  0.14180135712E+03  0.32083772627E+03 -0.23843189014E+03  0.43226264593E+03  0.83407178046E+02 0.  0.
         23    2    1    2    0    0 -0.75501134418E+02  0.35250955940E+03 -0.46292025103E+03  0.59425696051E+03  0.94248424592E+02 0.  0.
        -13    1    3    3    0    0  0.13719653520E+03  0.27508588136E+03 -0.23347636262E+03  0.38601339782E+03  0.00000000000E+00 0.  1.
         14    1    3    3    0    0  0.46048219207E+01  0.45751844911E+02 -0.49555275229E+01  0.46249248110E+02  0.00000000000E+00 0. -1.
        -11    1    4    4    0    0 -0.39277137112E+02  0.15660080427E+03 -0.28297460560E+03  0.32579308282E+03  0.00000000000E+00 0.  1.
         11    1    4    4    0    0 -0.36223997305E+02  0.19590875513E+03 -0.17994564543E+03  0.26846387769E+03  0.00000000000E+00 0. -1.
         21    1    1    2  503  502 -0.43984780315E+02  0.35848169405E+02  0.35227462238E+03  0.35681530477E+03  0.00000000000E+00 0. -1.
          1    1    1    2  501    0 -0.22315442391E+02 -0.70919545507E+03  0.19709585178E+04  0.20947872568E+04  0.00000000000E+00 0. -1.
<scales pt_clust_5="13000.00000" pt_clust_6="13000.00000" pt_clust_7="13000.00000" pt_clust_8="13000.00000" pt_clust_9="56.74286" pt_clust_10="678.93563"></scales>
<clustering>
<clus scale="   56.743">  1  9  2 -1</clus>
<clus scale="   83.407">  5  6 -1 -1</clus>
<clus scale="   94.248">  7  8 -1 -1</clus>
<clus scale="  280.567">  5  7 -1 -1</clus>
<clus scale="  678.936">  2 10  1 -1</clus>
<clus scale="  678.936">  2  5  1 -1</clus>
</clustering>
</event>
<event>
10    4  0.5389768E-005  0.2064504E+03  0.7546771E-02  0.1168380E+00
          2   -1    0    0  503    0 -0.00000000000E+00  0.00000000000E+00  0.12921148576E+03  0.12921148576E+03  0.00000000000E+00 0. -1.
         21   -1    0    0  501  502  0.00000000000E+00 -0.00000000000E+00 -0.11750666940E+04  0.11750666940E+04  0.00000000000E+00 0.  1.
         24    2    1    2    0    0 -0.51921121419E+02  0.68658616144E+02 -0.31218863475E+03  0.33364975021E+03  0.80315650610E+02 0.  0.
         23    2    1    2    0    0 -0.20579041220E+03 -0.20774493579E+02 -0.44494313719E+03  0.49939068192E+03  0.92926769653E+02 0.  0.
        -11    1    3    3    0    0 -0.52187369905E+02  0.79018638023E+02 -0.20334374166E+03  0.22431260332E+03  0.00000000000E+00 0.  1.
         12    1    3    3    0    0  0.26624848626E+00 -0.10360021880E+02 -0.10884489308E+03  0.10933714690E+03  0.00000000000E+00 0. -1.
        -11    1    4    4    0    0 -0.11010339816E+03  0.25676976861E+02 -0.16588412072E+03  0.20074762000E+03  0.00000000000E+00 0. -1.
         11    1    4    4    0    0 -0.95687014042E+02 -0.46451470439E+02 -0.27905901646E+03  0.29864306192E+03  0.00000000000E+00 0.  1.
         21    1    1    2  503  502  0.16635128956E+03  0.83396861704E+02 -0.66858164647E+02  0.19773164203E+03  0.00000000000E+00 0. -1.
          1    1    1    2  501    0  0.91360244060E+02 -0.13128098427E+03 -0.22186527162E+03  0.27350610556E+03  0.00000000000E+00 0. -1.
<scales pt_clust_5="13000.00000" pt_clust_6="13000.00000" pt_clust_7="13000.00000" pt_clust_8="13000.00000" pt_clust_9="184.35393" pt_clust_10="141.19903"></scales>
<clustering>
<clus scale="   80.316">  5  6 -1 -1</clus>
<clus scale="   92.927">  7  8 -1 -1</clus>
<clus scale="  117.730">  1  5  2 -1</clus>
<clus scale="  141.199">  2 10  1 -1</clus>
<clus scale="  184.354">  1  9  2 -1</clus>
<clus scale="  141.199">  2  5  1 -1</clus>
</clustering>
</event>
<event>
10    4  0.5389768E-005  0.1081001E+03  0.7546771E-02  0.1274994E+00
         21   -1    0    0  501  502  0.00000000000E+00  0.00000000000E+00  0.56791408422E+03  0.56791408422E+03  0.00000000000E+00 0. -1.
          2   -1    0    0  503    0 -0.00000000000E+00 -0.00000000000E+00 -0.26859170709E+03  0.26859170709E+03  0.00000000000E+00 0. -1.
         24    2    1    2    0    0  0.18156155609E+02 -0.80528361323E+00 -0.37991225296E+02  0.92762971643E+02  0.82651928231E+02 0.  0.
         23    2    1    2    0    0 -0.17658059609E+02  0.23158772721E+02  0.18212129981E+03  0.21180018178E+03  0.10412979081E+03 0.  0.
        -13    1    3    3    0    0 -0.54135764008E+01 -0.30601004886E+02 -0.44440845211E+02  0.54228378480E+02  0.00000000000E+00 0.  1.
         14    1    3    3    0    0  0.23569732010E+02  0.29795721273E+02  0.64496199155E+01  0.38534593163E+02  0.00000000000E+00 0. -1.
        -11    1    4    4    0    0 -0.34950691568E+02  0.48761144031E+02  0.16690765761E+03  0.17736224563E+03  0.00000000000E+00 0.  1.
         11    1    4    4    0    0  0.17292631959E+02 -0.25602371310E+02  0.15213642198E+02  0.34437936142E+02  0.00000000000E+00 0. -1.
         21    1    1    2  503  502  0.12965630970E+02  0.23466736433E+02 -0.18574844171E+03  0.18767333029E+03  0.00000000000E+00 0. -1.
          1    1    1    2  501    0 -0.13463726970E+02 -0.45820225541E+02  0.34094074433E+03  0.34426930760E+03  0.00000000000E+00 0. -1.
<scales pt_clust_5="13000.00000" pt_clust_6="13000.00000" pt_clust_7="13000.00000" pt_clust_8="13000.00000" pt_clust_9="26.81036" pt_clust_10="47.22558"></scales>
<clustering>
<clus scale="   26.810">  2  9  1 -1</clus>
<clus scale="   47.226">  1 10  2 -1</clus>
<clus scale="   82.652">  5  6 -1 -1</clus>
<clus scale="   87.601">  2  5  1 -1</clus>
<clus scale="  104.130">  7  8 -1 -1</clus>
<clus scale="   47.226">  1  5  2 -1</clus>
</clustering>
</event>
<event>
10    4  0.5389768E-005  0.1035786E+03  0.7546771E-02  0.1277948E+00
          2   -1    0    0  503    0 -0.00000000000E+00  0.00000000000E+00  0.21426699882E+03  0.21426699882E+03  0.00000000000E+00 0. -1.
         21   -1    0    0  501  502  0.00000000000E+00 -0.00000000000E+00 -0.16312801823E+03  0.16312801823E+03  0.00000000000E+00 0.  1.
         23    2    1    2    0    0  0.54700243187E+02  0.12773630037E+02 -0.12467331583E+02  0.10748382143E+03  0.90785765866E+02 0.  0.
         24    2    1    2    0    0 -0.34873030898E+02 -0.20107621106E+00 -0.63407658493E+02  0.10773291703E+03  0.79810284673E+02 0.  0.
        -13    1    4    4    0    0 -0.44298594227E+02 -0.15022622119E+01 -0.78349832645E+02  0.90018434321E+02  0.00000000000E+00 0.  1.
         14    1    4    4    0    0  0.94255633284E+01  0.13011860008E+01  0.14942174152E+02  0.17714482704E+02  0.00000000000E+00 0. -1.
        -13    1    3    3    0    0  0.47428503236E+02  0.49030251069E+02 -0.16794087496E+02  0.70252898971E+02  0.00000000000E+00 0. -1.
         13    1    3    3    0    0  0.72717399511E+01 -0.36256621031E+02  0.43267559138E+01  0.37230922461E+02  0.00000000000E+00 0.  1.
         21    1    1    2  503  502  0.24068617280E+02 -0.13796002140E+02  0.11258952444E+03  0.11595701370E+03  0.00000000000E+00 0. -1.
          1    1    1    2  501    0 -0.43895829568E+02  0.12234483143E+01  0.14424446214E+02  0.46221264888E+02  0.00000000000E+00 0. -1.
<scales pt_clust_5="13000.00000" pt_clust_6="13000.00000" pt_clust_7="13000.00000" pt_clust_8="13000.00000" pt_clust_9="27.74217" pt_clust_10="36.71662"></scales>
<clustering>
<clus scale="   27.742">  1  9  2 -1</clus>
<clus scale="   36.717">  2 10  1 -1</clus>
<clus scale="   79.810">  5  6 -1 -1</clus>
<clus scale="   90.786">  7  8 -1 -1</clus>
<clus scale="   94.107">  2  5  1 -1</clus>
<clus scale="   36.717">  2  5  1 -1</clus>
</clustering>
</event>
<event>
10    4  0.5389768E-005  0.2583785E+03  0.7546771E-02  0.1108121E+00
          4   -1    0    0  503    0 -0.00000000000E+00  0.00000000000E+00  0.16598587194E+03  0.16598587194E+03  0.00000000000E+00 0. -1.
         21   -1    0    0  501  502  0.00000000000E+00 -0.00000000000E+00 -0.72699180830E+03  0.72699180830E+03  0.00000000000E+00 0. -1.
         24    2    1    2    0    0 -0.25893998583E+02  0.58249041568E+02 -0.60840872723E+02  0.12141989657E+03  0.83532804837E+02 0.  0.
         23    2    1    2    0    0  0.10403614653E+02  0.10554382727E+03 -0.11399755771E+03  0.18053334829E+03  0.91373475421E+02 0.  0.
        -13    1    3    3    0    0 -0.32148249822E+02 -0.54823569557E+01 -0.44783751283E+02  0.55399915013E+02  0.00000000000E+00 0.  1.
         14    1    3    3    0    0  0.62542512385E+01  0.63731398524E+02 -0.16057121439E+02  0.66019981561E+02  0.00000000000E+00 0. -1.
        -11    1    4    4    0    0 -0.79088918893E+01  0.11674304959E+03 -0.85809373100E+02  0.14510251104E+03  0.00000000000E+00 0. -1.
         11    1    4    4    0    0  0.18312506543E+02 -0.11199222328E+02 -0.28188184607E+02  0.35430837248E+02  0.00000000000E+00 0.  1.
         21    1    1    2  503  502 -0.86360363025E+01  0.21961768282E+02  0.82765454084E+02  0.86064050444E+02  0.00000000000E+00 0. -1.
          3    1    1    2  501    0  0.24126420232E+02 -0.18575463712E+03 -0.46893296002E+03  0.50496038493E+03  0.00000000000E+00 0. -1.
<scales pt_clust_5="13000.00000" pt_clust_6="13000.00000" pt_clust_7="13000.00000" pt_clust_8="13000.00000" pt_clust_9="23.59874" pt_clust_10="182.26414"></scales>
<clustering>
<clus scale="   23.599">  1  9  2 -1</clus>
<clus scale="   83.533">  5  6 -1 -1</clus>
<clus scale="   91.373">  7  8 -1 -1</clus>
<clus scale="  100.457">  5  7 -1 -1</clus>
<clus scale="  182.264">  2 10  1 -1</clus>
<clus scale="  182.264">  2  5  1 -1</clus>
</clustering>
</event>
<event>
10    4  0.5389768E-005  0.1649879E+03  0.7546771E-02  0.1184864E+00
         21   -1    0    0  501  502  0.00000000000E+00  0.00000000000E+00  0.12650818108E+03  0.12650818108E+03  0.00000000000E+00 0. -1.
          2   -1    0    0  503    0 -0.00000000000E+00 -0.00000000000E+00 -0.11078738252E+04  0.11078738252E+04  0.00000000000E+00 0. -1.
         23    2    1    2    0    0 -0.11754768276E+03  0.98968796446E+02 -0.74988467770E+03  0.77085824599E+03  0.91011675993E+02 0.  0.
         24    2    1    2    0    0  0.11934934601E+03 -0.95965483937E+02 -0.12276218404E+03  0.21173869377E+03  0.79429718057E+02 0.  0.
        -13    1    4    4    0    0  0.42008699172E+02  0.43477696634E+01 -0.13158284929E+02  0.44235442457E+02  0.00000000000E+00 0.  1.
         14    1    4    4    0    0  0.77340646834E+02 -0.10031325360E+03 -0.10960389911E+03  0.16750325131E+03  0.00000000000E+00 0. -1.
        -13    1    3    3    0    0 -0.46278587915E+02  0.62010399803E+01 -0.97935362403E+02  0.10849652439E+03  0.00000000000E+00 0.  1.
         13    1    3    3    0    0 -0.71269094849E+02  0.92767756465E+02 -0.65194931530E+03  0.66236172160E+03  0.00000000000E+00 0. -1.
         21    1    1    2  503  502  0.83505294703E+01 -0.29858438700E+02 -0.17596028971E+03  0.17867087412E+03  0.00000000000E+00 0. -1.
          1    1    1    2  501    0 -0.10152192712E+02  0.26855126191E+02  0.67241507341E+02  0.73114192391E+02  0.00000000000E+00 0. -1.
<scales pt_clust_5="13000.00000" pt_clust_6="13000.00000" pt_clust_7="13000.00000" pt_clust_8="13000.00000" pt_clust_9="30.31618" pt_clust_10="28.71001"></scales>
<clustering>
<clus scale="   28.710">  1 10  2 -1</clus>
<clus scale="   30.316">  2  9  1 -1</clus>
<clus scale="   79.430">  5  6 -1 -1</clus>
<clus scale="   91.012">  7  8 -1 -1</clus>
<clus scale="  158.893">  1  5  2 -1</clus>
<clus scale="   28.710">  1  5  2 -1</clus>
</clustering>
</event>
<event>
10    4  0.5389768E-005  0.1142999E+03  0.7546771E-02  0.1255252E+00
          2   -1    0    0  503    0 -0.00000000000E+00  0.00000000000E+00  0.35689078250E+03  0.35689078250E+03  0.00000000000E+00 0. -1.
         21   -1    0    0  501  502  0.00000000000E+00 -0.00000000000E+00 -0.39369168787E+03  0.39369168787E+03  0.00000000000E+00 0. -1.
         24    2    1    2    0    0 -0.39097016217E+02 -0.11989485532E+02  0.13340458371E+02  0.93206020811E+02  0.82686577178E+02 0.  0.
         23    2    1    2    0    0  0.55105157194E+02 -0.47186783403E+01 -0.16114199036E+03  0.19253720391E+03  0.89693865779E+02 0.  0.
        -11    1    3    3    0    0 -0.25522957929E+02 -0.22704364578E+02 -0.30677301810E+02  0.45913030815E+02  0.00000000000E+00 0.  1.
         12    1    3    3    0    0 -0.13574058289E+02  0.10714879046E+02  0.44017760180E+02  0.47292989995E+02  0.00000000000E+00 0. -1.
        -11    1    4    4    0    0  0.54699048563E+02  0.25771881945E+02 -0.14694826262E+03  0.15890238419E+03  0.00000000000E+00 0. -1.
         11    1    4    4    0    0  0.40610863073E+00 -0.30490560285E+02 -0.14193727735E+02  0.33634819722E+02  0.00000000000E+00 0.  1.
         21    1    1    2  503  502 -0.61057320196E+02  0.55949779351E+02  0.27663203481E+03  0.28876228432E+03  0.00000000000E+00 0. -1.
          1    1    1    2  501    0  0.45049179219E+02 -0.39241615479E+02 -0.16563140819E+03  0.17607696133E+03  0.00000000000E+00 0. -1.
<scales pt_clust_5="13000.00000" pt_clust_6="13000.00000" pt_clust_7="13000.00000" pt_clust_8="13000.00000" pt_clust_9="81.18974" pt_clust_10="59.74389"></scales>
<clustering>
<clus scale="   59.744">  2 10  1 -1</clus>
<clus scale="   81.190">  1  9  2 -1</clus>
<clus scale="   82.687">  5  6 -1 -1</clus>
<clus scale="   89.694">  7  8 -1 -1</clus>
<clus scale="  108.888">  1  5  2 -1</clus>
<clus scale="   59.744">  2  5  1 -1</clus>
</clustering>
</event>
<event>
10    4  0.5389768E-005  0.1491608E+03  0.7546771E-02  0.1229700E+00
          4   -1    0    0  503    0 -0.00000000000E+00  0.00000000000E+00  0.19152030222E+03  0.19152030222E+03  0.00000000000E+00 0. -1.
         21   -1    0    0  501  502  0.00000000000E+00 -0.00000000000E+00 -0.32514200693E+03  0.32514200693E+03  0.00000000000E+00 0.  1.
         24    2    1    2    0    0  0.10795478969E+01 -0.31073428566E+02 -0.10301794173E+03  0.13134232618E+03  0.75308611335E+02 0.  0.
         23    2    1    2    0    0  0.11741906820E+03 -0.12570807768E+02 -0.13608747036E+03  0.20181835641E+03  0.90915271587E+02 0.  0.
        -13    1    3    3    0    0 -0.18967914386E+02 -0.38735995007E+02 -0.23785371518E+02  0.49254471712E+02  0.00000000000E+00 0.  1.
         14    1    3    3    0    0  0.20047462283E+02  0.76625664413E+01 -0.79232570214E+02  0.82087854468E+02  0.00000000000E+00 0. -1.
        -13    1    4    4    0    0  0.96789461118E+02  0.21489584012E+02 -0.12674377856E+03  0.16091608809E+03  0.00000000000E+00 0.  1.
         13    1    4    4    0    0  0.20629607084E+02 -0.34060391781E+02 -0.93436918074E+01  0.40902268315E+02  0.00000000000E+00 0. -1.
         21    1    1    2  503  502 -0.83757249791E+01 -0.20631015290E+02  0.20513620355E+02  0.30275405545E+02  0.00000000000E+00 0. -1.
          3    1    1    2  501    0 -0.11012289112E+03  0.64275251624E+02  0.84970087030E+02  0.15322622103E+03  0.00000000000E+00 0. -1.
<scales pt_clust_5="13000.00000" pt_clust_6="13000.00000" pt_clust_7="13000.00000" pt_clust_8="13000.00000" pt_clust_9="22.26638" pt_clust_10="118.25136"></scales>
<clustering>
<clus scale="   22.266">  1  9  2 -1</clus>
<clus scale="   75.309">  5  6 -1 -1</clus>
<clus scale="   82.155">  1  5  2 -1</clus>
<clus scale="   90.915">  7  8 -1 -1</clus>
<clus scale="  118.251">  2 10  1 -1</clus>
<clus scale="  118.251">  2  5  1 -1</clus>
</clustering>
</event>
<event>
10    4  0.5389768E-005  0.1419881E+03  0.7546771E-02  0.1229440E+00
          2   -1    0    0  503    0 -0.00000000000E+00  0.00000000000E+00  0.60662335817E+03  0.60662335817E+03  0.00000000000E+00 0. -1.
         21   -1    0    0  501  502  0.00000000000E+00 -0.00000000000E+00 -0.26446623622E+03  0.26446623622E+03  0.00000000000E+00 0.  1.
         24    2    1    2    0    0 -0.53125284833E+02 -0.14657667761E+02 -0.56516813655E+02  0.11180514194E+03  0.79177625791E+02 0.  0.
         23    2    1    2    0    0 -0.54979177061E+02 -0.67803716484E+02  0.50794267797E+03  0.52306238023E+03  0.89266094507E+02 0.  0.
        -13    1    3    3    0    0 -0.49520457983E+02 -0.31663735763E+01 -0.74889312511E+02  0.89837134910E+02  0.00000000000E+00 0.  1.
         14    1    3    3    0    0 -0.36048268495E+01 -0.11491294185E+02  0.18372498856E+02  0.21968007030E+02  0.00000000000E+00 0. -1.
        -11    1    4    4    0    0 -0.40662272612E+02  0.12548655918E+02  0.20086186713E+03  0.20532018617E+03  0.00000000000E+00 0.  1.
         11    1    4    4    0    0 -0.14316904449E+02 -0.80352372401E+02  0.30708081084E+03  0.31774219406E+03  0.00000000000E+00 0. -1.
         21    1    1    2  503  502  0.23700748329E+02  0.99282225257E+01  0.41510527595E+02  0.48820272174E+02  0.00000000000E+00 0.  1.
          1    1    1    2  501    0  0.84403713564E+02  0.72533161719E+02 -0.15077926996E+03  0.18740180005E+03  0.00000000000E+00 0. -1.
<scales pt_clust_5="13000.00000" pt_clust_6="13000.00000" pt_clust_7="13000.00000" pt_clust_8="13000.00000" pt_clust_9="25.69621" pt_clust_10="110.41817"></scales>
<clustering>
<clus scale="   25.696">  1  9  2 -1</clus>
<clus scale="   79.178">  5  6 -1 -1</clus>
<clus scale="   89.266">  7  8 -1 -1</clus>
<clus scale="   95.758">  1  5  2 -1</clus>
<clus scale="  110.418">  2 10  1 -1</clus>
<clus scale="  110.418">  2  5  1 -1</clus>
</clustering>
</event>
<event>
10    4  0.5389768E-005  0.1049473E+03  0.7546771E-02  0.1274280E+00
         21   -1    0    0  501  502  0.00000000000E+00  0.00000000000E+00  0.11436135952E+03  0.11436135952E+03  0.00000000000E+00 0. -1.
          2   -1    0    0  503    0 -0.00000000000E+00 -0.00000000000E+00 -0.73136502509E+03  0.73136502509E+03  0.00000000000E+00 0. -1.
         23    2    1    2    0    0 -0.42781397293E+02  0.54850565046E+02 -0.46014782636E+03  0.47416573434E+03  0.90875129042E+02 0.  0.
         24    2    1    2    0    0 -0.12632559891E+02 -0.36450668358E+02 -0.99838602049E+02  0.13461129956E+03  0.81634690642E+02 0.  0.
        -11    1    4    4    0    0 -0.26181096739E+02 -0.15783790015E+02  0.12001509461E+01  0.30594414784E+02  0.00000000000E+00 0.  1.
         12    1    4    4    0    0  0.13548536847E+02 -0.20666878343E+02 -0.10103875300E+03  0.10401688477E+03  0.00000000000E+00 0. -1.
        -11    1    3    3    0    0 -0.37676877910E+02 -0.89849944337E+01 -0.82667211277E+02  0.91291538898E+02  0.00000000000E+00 0. -1.
         11    1    3    3    0    0 -0.51045193828E+01  0.63835559479E+02 -0.37748061508E+03  0.38287419544E+03  0.00000000000E+00 0.  1.
         21    1    1    2  503  502  0.28914864527E+02  0.41907905532E+01 -0.14207067158E+03  0.14504381351E+03  0.00000000000E+00 0. -1.
          1    1    1    2  501    0  0.26499092657E+02 -0.22590687241E+02  0.85053434416E+02  0.91905537198E+02  0.00000000000E+00 0. -1.
<scales pt_clust_5="13000.00000" pt_clust_6="13000.00000" pt_clust_7="13000.00000" pt_clust_8="13000.00000" pt_clust_9="29.21698" pt_clust_10="34.93420"></scales>
<clustering>
<clus scale="   29.217">  2  9  1 -1</clus>
<clus scale="   34.934">  1 10  2 -1</clus>
<clus scale="   81.635">  5  6 -1 -1</clus>
<clus scale="   90.875">  7  8 -1 -1</clus>
<clus scale="   97.056">  1  5  2 -1</clus>
<clus scale="   34.934">  1  5  2 -1</clus>
</clustering>
</event>
<event>
10    4  0.5389768E-005  0.1563789E+03  0.7546771E-02  0.1223733E+00
          2   -1    0    0  503    0 -0.00000000000E+00  0.00000000000E+00  0.28618583307E+03  0.28618583307E+03  0.00000000000E+00 0. -1.
         21   -1    0    0  501  502  0.00000000000E+00 -0.00000000000E+00 -0.21654684352E+03  0.21654684352E+03  0.00000000000E+00 0. -1.
         24    2    1    2    0    0  0.25907819400E+01 -0.15480411769E+02  0.11533015643E+02  0.81519275043E+02  0.79158236806E+02 0.  0.
         23    2    1    2    0    0  0.83911824452E+02  0.63706861118E+02  0.59323592031E+02  0.15033640637E+03  0.89341972623E+02 0.  0.
        -11    1    3    3    0    0 -0.33466725051E+02 -0.25947555047E+02  0.37018659020E+00  0.42348959098E+02  0.00000000000E+00 0.  1.
         12    1    3    3    0    0  0.36057506991E+02  0.10467143278E+02  0.11162829053E+02  0.39170315946E+02  0.00000000000E+00 0. -1.
        -11    1    4    4    0    0  0.32276641208E+02  0.46283069854E+02  0.74790390181E+02  0.93688348188E+02  0.00000000000E+00 0.  1.
         11    1    4    4    0    0  0.51635183243E+02  0.17423791264E+02 -0.15466798151E+02  0.56648058180E+02  0.00000000000E+00 0. -1.
         21    1    1    2  503  502 -0.17552895245E+03 -0.29299189691E+02 -0.15971891817E+02  0.17867276511E+03  0.00000000000E+00 0. -1.
          1    1    1    2  501    0  0.89026346055E+02 -0.18927259658E+02  0.14754273690E+02  0.92204230066E+02  0.00000000000E+00 0. -1.
<scales pt_clust_5="13000.00000" pt_clust_6="13000.00000" pt_clust_7="13000.00000" pt_clust_8="13000.00000" pt_clust_9="128.34473" pt_clust_10="92.35750"></scales>
<clustering>
<clus scale="   79.158">  5  6 -1 -1</clus>
<clus scale="   80.699">  1  5  2 -1</clus>
<clus scale="   89.342">  7  8 -1 -1</clus>
<clus scale="   92.358">  2 10  1 -1</clus>
<clus scale="  128.345">  2  9  1 -1</clus>
<clus scale="   92.358">  2  5  1 -1</clus>
</clustering>
</event>
<event>
10    4  0.5389768E-005  0.2204885E+03  0.7546771E-02  0.1134229E+00
         21   -1    0    0  501  502  0.00000000000E+00  0.00000000000E+00  0.23847185002E+03  0.23847185002E+03  0.00000000000E+00 0. -1.
          2   -1    0    0  503    0 -0.00000000000E+00 -0.00000000000E+00 -0.86930148256E+03  0.86930148256E+03  0.00000000000E+00 0. -1.
         24    2    1    2    0    0 -0.16542308324E+03  0.11460563534E+03 -0.62343299581E+03  0.65996518354E+03  0.79913047136E+02 0.  0.
         23    2    1    2    0    0  0.19204844662E+03 -0.14207919833E+03  0.81026927484E+02  0.26771943605E+03  0.89661747761E+02 0.  0.
        -11    1    3    3    0    0 -0.53482531845E+02  0.80467748755E+02 -0.22932398263E+03  0.24884719973E+03  0.00000000000E+00 0.  1.
         12    1    3    3    0    0 -0.11194055140E+03  0.34137886584E+02 -0.39410901317E+03  0.41111798381E+03  0.00000000000E+00 0. -1.
        -13    1    4    4    0    0  0.76863881223E+02 -0.11702256245E+02  0.51429077681E+01  0.77919500372E+02  0.00000000000E+00 0.  1.
         13    1    4    4    0    0  0.11518456540E+03 -0.13037694209E+03  0.75884019716E+02  0.18979993568E+03  0.00000000000E+00 0. -1.
         21    1    1    2  503  502 -0.11342351938E+02 -0.27256534364E+02 -0.11400978298E+03  0.11777010753E+03  0.00000000000E+00 0.  1.
          1    1    1    2  501    0 -0.15283011445E+02  0.54730097358E+02  0.25586218765E+02  0.62318605459E+02  0.00000000000E+00 0. -1.
<scales pt_clust_5="13000.00000" pt_clust_6="13000.00000" pt_clust_7="13000.00000" pt_clust_8="13000.00000" pt_clust_9="29.52232" pt_clust_10="56.26005"></scales>
<clustering>
<clus scale="   29.522">  2  9  1 -1</clus>
<clus scale="   56.260">  1 10  2 -1</clus>
<clus scale="   79.913">  5  6 -1 -1</clus>
<clus scale="   89.662">  7  8 -1 -1</clus>
<clus scale="  216.707">  2  5  1 -1</clus>
<clus scale="   56.260">  1  5  2 -1</clus>
</clustering>
</event>
<event>
10    4  0.5389768E-005  0.1967917E+03  0.7546771E-02  0.1154371E+00
          2   -1    0    0  503    0 -0.00000000000E+00  0.00000000000E+00  0.97078878779E+02  0.97078878779E+02  0.00000000000E+00 0. -1.
         21   -1    0    0  501  502  0.00000000000E+00 -0.00000000000E+00 -0.11089218753E+04  0.11089218753E+04  0.00000000000E+00 0.  1.
         23    2    1    2    0    0 -0.11096530356E+03  0.13773865458E+03 -0.32480105704E+03  0.38280269699E+03  0.98777237272E+02 0.  0.
         24    2    1    2    0    0  0.12588589645E+03 -0.86994585057E+02 -0.66055114792E+03  0.68278115555E+03  0.80293029590E+02 0.  0.
        -11    1    4    4    0    0  0.13301688739E+03 -0.62279048009E+02 -0.54958368650E+03  0.56887116346E+03  0.00000000000E+00 0.  1.
         12    1    4    4    0    0 -0.71309909400E+01 -0.24715537048E+02 -0.11096746142E+03  0.11390999209E+03  0.00000000000E+00 0. -1.
        -13    1    3    3    0    0 -0.90120426317E+02  0.12749414458E+03 -0.18955114936E+03  0.24557297564E+03  0.00000000000E+00 0.  1.
         13    1    3    3    0    0 -0.20844877247E+02  0.10244510004E+02 -0.13524990768E+03  0.13722972134E+03  0.00000000000E+00 0. -1.
         21    1    1    2  503  502 -0.64650495688E+02 -0.36781837910E+02 -0.43338320215E+02  0.86086004622E+02  0.00000000000E+00 0.  1.
          1    1    1    2  501    0  0.49729902803E+02 -0.13962231618E+02  0.16847528613E+02  0.54330896964E+02  0.00000000000E+00 0. -1.
<scales pt_clust_5="13000.00000" pt_clust_6="13000.00000" pt_clust_7="13000.00000" pt_clust_8="13000.00000" pt_clust_9="72.25837" pt_clust_10="51.65278"></scales>
<clustering>
<clus scale="   51.653">  2 10  1 -1</clus>
<clus scale="   72.258">  1  9  2 -1</clus>
<clus scale="   80.293">  5  6 -1 -1</clus>
<clus scale="   98.777">  7  8 -1 -1</clus>
<clus scale="  188.194">  2  5  1 -1</clus>
<clus scale="   51.653">  2  5  1 -1</clus>
</clustering>
</event>
<event>
10    4  0.5389768E-005  0.1552553E+03  0.7546771E-02  0.1216212E+00
         21   -1    0    0  503  502  0.00000000000E+00  0.00000000000E+00  0.13978210975E+03  0.13978210975E+03  0.00000000000E+00 0.  1.
         -1   -1    0    0    0  501 -0.00000000000E+00 -0.00000000000E+00 -0.48344336650E+03  0.48344336650E+03  0.00000000000E+00 0.  1.
         23    2    1    2    0    0 -0.13377425363E+02 -0.38154738991E+02 -0.17294978456E+03  0.19897067864E+03  0.89682570003E+02 0.  0.
         24    2    1    2    0    0 -0.14090032197E+03 -0.55002102664E+01  0.13292855625E+02  0.16339094577E+03  0.81466239055E+02 0.  0.
        -13    1    4    4    0    0 -0.14006622963E+03 -0.73128023411E+01 -0.94365894713E+01  0.14057409072E+03  0.00000000000E+00 0.  1.
         14    1    4    4    0    0 -0.83409233857E+00  0.18125920747E+01  0.22729445097E+02  0.22816855052E+02  0.00000000000E+00 0. -1.
        -13    1    3    3    0    0 -0.11056265377E+02 -0.61420777154E+02 -0.16108374484E+03  0.17275047242E+03  0.00000000000E+00 0. -1.
         13    1    3    3    0    0 -0.23211599864E+01  0.23266038163E+02 -0.11866039721E+02  0.26220206219E+02  0.00000000000E+00 0.  1.
         21    1    1    2  503  501  0.13573491375E+03  0.27455988487E+01 -0.16033803141E+03  0.21009471540E+03  0.00000000000E+00 0.  1.
         -2    1    1    2    0  502  0.18542833583E+02  0.40909350409E+02 -0.23666296402E+02  0.50769136427E+02  0.00000000000E+00 0.  1.
<scales pt_clust_5="13000.00000" pt_clust_6="13000.00000" pt_clust_7="13000.00000" pt_clust_8="13000.00000" pt_clust_9="132.16448" pt_clust_10="44.91561"></scales>
<clustering>
<clus scale="   44.916">  1 10  2 -1</clus>
<clus scale="   81.466">  5  6 -1 -1</clus>
<clus scale="   89.683">  7  8 -1 -1</clus>
<clus scale="   96.572">  2  7  1 -1</clus>
<clus scale="  132.164">  2  9  1 -1</clus>
<clus scale="   44.916">  1  5  2 -1</clus>
</clustering>
</event>
<event>
10    4  0.5389768E-005  0.2065011E+03  0.7546771E-02  0.1145712E+00
          2   -1    0    0  503    0 -0.00000000000E+00  0.00000000000E+00  0.19179997118E+03  0.19179997118E+03  0.00000000000E+00 0. -1.
         21   -1    0    0  501  502  0.00000000000E+00 -0.00000000000E+00 -0.78475612242E+03  0.78475612242E+03  0.00000000000E+00 0. -1.
         23    2    1    2    0    0 -0.21860844386E+02  0.18451747029E+03 -0.77148194547E+02  0.22262920976E+03  0.95327476400E+02 0.  0.
         24    2    1    2    0    0 -0.13006305836E+03 -0.16361038986E+03 -0.15062142585E+03  0.26982062932E+03  0.80197252183E+02 0.  0.
        -11    1    4    4    0    0 -0.32067796229E+02 -0.10419237225E+03 -0.67068325767E+02  0.12799435266E+03  0.00000000000E+00 0.  1.
         12    1    4    4    0    0 -0.97995262134E+02 -0.59418017605E+02 -0.83553100088E+02  0.14182627666E+03  0.00000000000E+00 0. -1.
        -11    1    3    3    0    0  0.29329883611E+02  0.81112159504E+02 -0.62072671869E+02  0.10626589803E+03  0.00000000000E+00 0. -1.
         11    1    3    3    0    0 -0.51190727997E+02  0.10340531079E+03 -0.15075522678E+02  0.11636331173E+03  0.00000000000E+00 0.  1.
         21    1    1    2  503  502  0.24285090299E+02  0.15856125754E+02  0.44672083432E+02  0.53261406036E+02  0.00000000000E+00 0. -1.
          1    1    1    2  501    0  0.12763881245E+03 -0.36763206188E+02 -0.40985861428E+03  0.43084484849E+03  0.00000000000E+00 0. -1.
<scales pt_clust_5="13000.00000" pt_clust_6="13000.00000" pt_clust_7="13000.00000" pt_clust_8="13000.00000" pt_clust_9="29.00314" pt_clust_10="134.22939"></scales>
<clustering>
<clus scale="   29.003">  1  9  2 -1</clus>
<clus scale="   80.197">  5  6 -1 -1</clus>
<clus scale="   95.327">  7  8 -1 -1</clus>
<clus scale="  134.229">  2 10  1 -1</clus>
<clus scale="  199.967">  2  5  1 -1</clus>
<clus scale="  134.229">  2  5  1 -1</clus>
</clustering>
</event>
<event>
10    4  0.5389768E-005  0.1282873E+03  0.7546771E-02  0.1245065E+00
         -3   -1    0    0    0  501 -0.00000000000E+00  0.00000000000E+00  0.17314724368E+03  0.17314724368E+03  0.00000000000E+00 0.  1.
         21   -1    0    0  503  502  0.00000000000E+00 -0.00000000000E+00 -0.20157287653E+03  0.20157287653E+03  0.00000000000E+00 0.  1.
         23    2    1    2    0    0  0.10517599262E+02  0.18150886761E+01 -0.18963789388E+02  0.95561323476E+02  0.93050667893E+02 0.  0.
         24    2    1    2    0    0  0.70082888068E+02  0.29138509791E+02  0.61997636920E+02  0.12804783571E+03  0.82412846649E+02 0.  0.
        -11    1    4    4    0    0  0.50941783605E+02 -0.19847244134E+02  0.50036287801E+02  0.74112134725E+02  0.00000000000E+00 0.  1.
         12    1    4    4    0    0  0.19141104463E+02  0.48985753926E+02  0.11961349119E+02  0.53935700982E+02  0.00000000000E+00 0. -1.
        -13    1    3    3    0    0 -0.45213623924E+01  0.46229833382E+02 -0.54998266551E+01  0.46774868313E+02  0.00000000000E+00 0.  1.
         13    1    3    3    0    0  0.15038961654E+02 -0.44414744706E+02 -0.13463962733E+02  0.48786455163E+02  0.00000000000E+00 0. -1.
         21    1    1    2  503  501  0.22481927417E+02 -0.95582873232E+01 -0.10403590717E+01  0.24451590212E+02  0.00000000000E+00 0. -1.
         -4    1    1    2    0  502 -0.10308241475E+03 -0.21395311144E+02 -0.70419121305E+02  0.12665937081E+03  0.00000000000E+00 0.  1.
<scales pt_clust_5="13000.00000" pt_clust_6="13000.00000" pt_clust_7="13000.00000" pt_clust_8="13000.00000" pt_clust_9="24.42945" pt_clust_10="98.31454"></scales>
<clustering>
<clus scale="   24.429">  1  9  2 -1</clus>
<clus scale="   82.413">  5  6 -1 -1</clus>
<clus scale="   93.051">  7  8 -1 -1</clus>
<clus scale="   94.392">  1  7  2 -1</clus>
<clus scale="   98.315">  2 10  1 -1</clus>
<clus scale="   98.315">  2  5  1 -1</clus>
</clustering>
</event>
<event>
10    4  0.5389768E-005  0.1463903E+03  0.7546771E-02  0.1219814E+00
         21   -1    0    0  501  502  0.00000000000E+00  0.00000000000E+00  0.20440879291E+03  0.20440879291E+03  0.00000000000E+00 0.  1.
          2   -1    0    0  503    0 -0.00000000000E+00 -0.00000000000E+00 -0.50118929901E+03  0.50118929901E+03  0.00000000000E+00 0. -1.
         23    2    1    2    0    0 -0.53629397291E+02 -0.42214575984E+01 -0.77343035903E+02  0.12783329203E+03  0.86402965166E+02 0.  0.
         24    2    1    2    0    0  0.15046991552E+02 -0.12670383178E+03  0.11178804351E+03  0.18822713537E+03  0.81563563414E+02 0.  0.
        -13    1    4    4    0    0 -0.11240919402E+02 -0.97652577269E+02  0.11203833610E+03  0.14904688145E+03  0.00000000000E+00 0.  1.
         14    1    4    4    0    0  0.26287910954E+02 -0.29051254509E+02 -0.25029258196E+00  0.39180253920E+02  0.00000000000E+00 0. -1.
        -11    1    3    3    0    0 -0.53338410304E+02  0.24090662759E+02 -0.16630824193E+02  0.60843490689E+02  0.00000000000E+00 0.  1.
         11    1    3    3    0    0 -0.29098698757E+00 -0.28312120357E+02 -0.60712211709E+02  0.66989801337E+02  0.00000000000E+00 0. -1.
         21    1    1    2  503  502 -0.23439826972E+02  0.27167317050E+02 -0.22732514248E+03  0.23013954246E+03  0.00000000000E+00 0.  1.
          1    1    1    2  501    0  0.62022232711E+02  0.10375797233E+03 -0.10390037124E+03  0.15939812205E+03  0.00000000000E+00 0. -1.
<scales pt_clust_5="13000.00000" pt_clust_6="13000.00000" pt_clust_7="13000.00000" pt_clust_8="13000.00000" pt_clust_9="35.88159" pt_clust_10="121.56283"></scales>
<clustering>
<clus scale="   35.882">  2  9  1 -1</clus>
<clus scale="   81.564">  5  6 -1 -1</clus>
<clus scale="   86.403">  7  8 -1 -1</clus>
<clus scale="  106.781">  2  7  1 -1</clus>
<clus scale="  121.563">  1 10  2 -1</clus>
<clus scale="  121.563">  1  5  2 -1</clus>
</clustering>
</event>
<event>
10    4  0.5389768E-005  0.9189155E+02  0.7546771E-02  0.1298425E+00
          4   -1    0    0  503    0 -0.00000000000E+00  0.00000000000E+00  0.12617049167E+03  0.12617049167E+03  0.00000000000E+00 0. -1.
         21   -1    0    0  501  502  0.00000000000E+00 -0.00000000000E+00 -0.37724213428E+03  0.37724213428E+03  0.00000000000E+00 0. -1.
         23    2    1    2    0    0 -0.46201955503E+02  0.13689199284E+02 -0.58166930128E+02  0.11096777817E+03  0.81292319201E+02 0.  0.
         24    2    1    2    0    0  0.46920923998E+02  0.71320164386E+01 -0.27186269216E+03  0.28774680991E+03  0.81464498150E+02 0.  0.
        -13    1    4    4    0    0  0.30143049636E+02 -0.35464357805E+02 -0.10785659730E+03  0.11747071847E+03  0.00000000000E+00 0.  1.
         14    1    4    4    0    0  0.16777874362E+02  0.42596374244E+02 -0.16400609486E+03  0.17027609144E+03  0.00000000000E+00 0. -1.
        -11    1    3    3    0    0 -0.25602839642E+02  0.47933729252E+02 -0.29973575695E+02  0.62060962268E+02  0.00000000000E+00 0.  1.
         11    1    3    3    0    0 -0.20599115861E+02 -0.34244529968E+02 -0.28193354433E+02  0.48906815897E+02  0.00000000000E+00 0. -1.
         21    1    1    2  503  502  0.24649850160E+02 -0.14770623478E+02  0.91196573961E+01  0.30148873641E+02  0.00000000000E+00 0. -1.
          3    1    1    2  501    0 -0.25368818655E+02 -0.60505922453E+01  0.69838322289E+02  0.74549164225E+02  0.00000000000E+00 0. -1.
<scales pt_clust_5="13000.00000" pt_clust_6="13000.00000" pt_clust_7="13000.00000" pt_clust_8="13000.00000" pt_clust_9="28.21802" pt_clust_10="26.08040"></scales>
<clustering>
<clus scale="   26.080">  2 10  1 -1</clus>
<clus scale="   28.218">  1  9  2 -1</clus>
<clus scale="   81.292">  7  8 -1 -1</clus>
<clus scale="   81.464">  5  6 -1 -1</clus>
<clus scale="   91.739">  1  7  2 -1</clus>
<clus scale="   26.080">  2  5  1 -1</clus>
</clustering>
</event>
<event>
10    4  0.5389768E-005  0.1966861E+03  0.7546771E-02  0.1153266E+00
          2   -1    0    0  503    0 -0.00000000000E+00  0.00000000000E+00  0.55211594728E+03  0.55211594728E+03  0.00000000000E+00 0. -1.
         21   -1    0    0  501  502  0.00000000000E+00 -0.00000000000E+00 -0.17788808347E+03  0.17788808347E+03  0.00000000000E+00 0. -1.
         23    2    1    2    0    0 -0.15864817664E+03  0.72318725046E+02  0.19060218071E+03  0.27475559404E+03  0.93606640901E+02 0.  0.
         24    2    1    2    0    0  0.13403579541E+03 -0.10942756749E+03  0.23805353687E+03  0.30678150311E+03  0.86633811250E+02 0.  0.
        -11    1    4    4    0    0  0.53281224863E+02  0.49330729118E+01  0.66057571107E+02  0.85010745390E+02  0.00000000000E+00 0.  1.
         12    1    4    4    0    0  0.80754570549E+02 -0.11436064041E+03  0.17199596577E+03  0.22177075772E+03  0.00000000000E+00 0. -1.
        -13    1    3    3    0    0 -0.13826097115E+03  0.40276363389E+02  0.96695197529E+02  0.17345962878E+03  0.00000000000E+00 0.  1.
         13    1    3    3    0    0 -0.20387205496E+02  0.32042361657E+02  0.93906983181E+02  0.10129596526E+03  0.00000000000E+00 0. -1.
         21    1    1    2  503  502  0.30399398788E+02 -0.12871077170E+02  0.33581732284E+02  0.47090559748E+02  0.00000000000E+00 0.  1.
          1    1    1    2  501    0 -0.57870175578E+01  0.49979919619E+02 -0.88009586058E+02  0.10137637385E+03  0.00000000000E+00 0. -1.
<scales pt_clust_5="13000.00000" pt_clust_6="13000.00000" pt_clust_7="13000.00000" pt_clust_8="13000.00000" pt_clust_9="33.01194" pt_clust_10="50.10261"></scales>
<clustering>
<clus scale="   33.012">  1  9  2 -1</clus>
<clus scale="   50.103">  2 10  1 -1</clus>
<clus scale="   86.634">  5  6 -1 -1</clus>
<clus scale="   93.607">  7  8 -1 -1</clus>
<clus scale="  193.465">  2  5  1 -1</clus>
<clus scale="   50.103">  2  5  1 -1</clus>
</clustering>
</event>
<event>
10    4  0.5389768E-005  0.1006395E+03  0.7546771E-02  0.1285014E+00
          2   -1    0    0  503    0 -0.00000000000E+00  0.00000000000E+00  0.36547262659E+03  0.36547262659E+03  0.00000000000E+00 0. -1.
         21   -1    0    0  501  502  0.00000000000E+00 -0.00000000000E+00 -0.73585666340E+02  0.73585666340E+02  0.00000000000E+00 0.  1.
         24    2    1    2    0    0  0.18123391822E+02  0.38362937067E+02  0.26971777313E+03  0.28448631890E+03  0.79903793566E+02 0.  0.
         23    2    1    2    0    0 -0.27905805820E+02 -0.20527685159E+02  0.97773915930E+01  0.98791481318E+02  0.92000214881E+02 0.  0.
        -13    1    3    3    0    0  0.27117832777E+02  0.60508181849E+02  0.20741956444E+03  0.21776017229E+03  0.00000000000E+00 0.  1.
         14    1    3    3    0    0 -0.89944409547E+01 -0.22145244782E+02  0.62298208694E+02  0.66726146607E+02  0.00000000000E+00 0. -1.
        -13    1    4    4    0    0 -0.50849856761E+01  0.31116540519E+02 -0.17527943824E+02  0.36073882351E+02  0.00000000000E+00 0.  1.
         13    1    4    4    0    0 -0.22820820144E+02 -0.51644225678E+02  0.27305335417E+02  0.62717598967E+02  0.00000000000E+00 0. -1.
         21    1    1    2  503  502 -0.19084939124E+02 -0.80083372633E+01  0.14410434629E+02  0.25219615249E+02  0.00000000000E+00 0. -1.
          1    1    1    2  501    0  0.28867353122E+02 -0.98269146452E+01 -0.20186391016E+01  0.30560877467E+02  0.00000000000E+00 0. -1.
<scales pt_clust_5="13000.00000" pt_clust_6="13000.00000" pt_clust_7="13000.00000" pt_clust_8="13000.00000" pt_clust_9="20.69706" pt_clust_10="26.99431"></scales>
<clustering>
<clus scale="   20.697">  2  9  1 -1</clus>
<clus scale="   26.994">  2 10  1 -1</clus>
<clus scale="   79.904">  5  6 -1 -1</clus>
<clus scale="   89.716">  1  5  2 -1</clus>
<clus scale="   92.000">  7  8 -1 -1</clus>
<clus scale="   20.697">  2  5  1 -1</clus>
</clustering>
</event>
<event>
10    4  0.5389768E-005  0.9100455E+02  0.7546771E-02  0.1307057E+00
         21   -1    0    0  501  502  0.00000000000E+00  0.00000000000E+00  0.22281104859E+03  0.22281104859E+03  0.00000000000E+00 0. -1.
          2   -1    0    0  503    0 -0.00000000000E+00 -0.00000000000E+00 -0.78848354653E+02  0.78848354653E+02  0.00000000000E+00 0. -1.
         24    2    1    2    0    0 -0.30200382200E+01  0.70335408255E+01  0.15687632858E+02  0.81908940790E+02  0.80027379247E+02 0.  0.
         23    2    1    2    0    0 -0.20282025976E+01  0.10570361927E+02  0.11574854438E+03  0.14731730426E+03  0.90492079487E+02 0.  0.
        -11    1    3    3    0    0 -0.72508196620E+01  0.31991334085E+02 -0.19802112950E+02  0.38316360991E+02  0.00000000000E+00 0.  1.
         12    1    3    3    0    0  0.42307814420E+01 -0.24957793260E+02  0.35489745807E+02  0.43592579798E+02  0.00000000000E+00 0. -1.
        -11    1    4    4    0    0  0.15994126615E+02  0.20432154036E+02  0.12286539412E+03  0.12557543580E+03  0.00000000000E+00 0. -1.
         11    1    4    4    0    0 -0.18022329213E+02 -0.98617921095E+01 -0.71168497344E+01  0.21741868457E+02  0.00000000000E+00 0.  1.
         21    1    1    2  503  502  0.30331164840E+02 -0.29817882502E+02  0.12579234005E+02  0.44354512799E+02  0.00000000000E+00 0. -1.
          1    1    1    2  501    0 -0.25282924023E+02  0.12213979750E+02 -0.52717304657E-01  0.28078645402E+02  0.00000000000E+00 0. -1.
<scales pt_clust_5="13000.00000" pt_clust_6="13000.00000" pt_clust_7="13000.00000" pt_clust_8="13000.00000" pt_clust_9="38.92726" pt_clust_10="28.07861"></scales>
<clustering>
<clus scale="   28.079">  1 10  2 -1</clus>
<clus scale="   38.927">  2  9  1 -1</clus>
<clus scale="   80.027">  5  6 -1 -1</clus>
<clus scale="   80.606">  2  5  1 -1</clus>
<clus scale="   90.492">  7  8 -1 -1</clus>
<clus scale="   28.079">  1  5  2 -1</clus>
</clustering>
</event>
<event>
10    4  0.5389768E-005  0.4962279E+03  0.7546771E-02  0.1026456E+00
         21   -1    0    0  501  502  0.00000000000E+00  0.00000000000E+00  0.54084575695E+03  0.54084575695E+03  0.00000000000E+00 0. -1.
          2   -1    0    0  503    0 -0.00000000000E+00 -0.00000000000E+00 -0.13937451048E+04  0.13937451048E+04  0.00000000000E+00 0. -1.
         24    2    1    2    0    0  0.34195087351E+03  0.10278003074E+02 -0.41913316925E+03  0.54685685418E+03  0.79647775573E+02 0.  0.
         23    2    1    2    0    0  0.21226389167E+03 -0.26649552652E+03  0.37761198895E+02  0.35458894065E+03  0.90728073542E+02 0.  0.
        -11    1    3    3    0    0  0.19428705716E+03 -0.28515119301E+02 -0.20507407565E+03  0.28392947912E+03  0.00000000000E+00 0.  1.
         12    1    3    3    0    0  0.14766381635E+03  0.38793122376E+02 -0.21405909360E+03  0.26292737506E+03  0.00000000000E+00 0. -1.
        -13    1    4    4    0    0  0.11220849472E+03 -0.20637599761E+03  0.37358656528E+02  0.23786018560E+03  0.00000000000E+00 0.  1.
         13    1    4    4    0    0  0.10005539695E+03 -0.60119528909E+02  0.40254236667E+00  0.11672875505E+03  0.00000000000E+00 0. -1.
         21    1    1    2  503  502 -0.53073267380E+03  0.45781568128E+03 -0.28219230063E+03  0.75558246644E+03  0.00000000000E+00 0. -1.
          1    1    1    2  501    0 -0.23482091386E+02 -0.20159815783E+03 -0.18933507689E+03  0.27756260051E+03  0.00000000000E+00 0. -1.
<scales pt_clust_5="13000.00000" pt_clust_6="13000.00000" pt_clust_7="13000.00000" pt_clust_8="13000.00000" pt_clust_9="487.86327" pt_clust_10="202.96125"></scales>
<clustering>
<clus scale="   79.648">  5  6 -1 -1</clus>
<clus scale="   90.728">  7  8 -1 -1</clus>
<clus scale="  202.961">  1 10  2 -1</clus>
<clus scale="  348.516">  2  5  1 -1</clus>
<clus scale="  487.863">  2  9  1 -1</clus>
<clus scale="  202.961">  1  5  2 -1</clus>
</clustering>
</event>
<event>
10    4  0.5389768E-005  0.2396477E+03  0.7546771E-02  0.1120611E+00
          2   -1    0    0  503    0 -0.00000000000E+00  0.00000000000E+00  0.29811739169E+03  0.29811739169E+03  0.00000000000E+00 0. -1.
         21   -1    0    0  501  502  0.00000000000E+00 -0.00000000000E+00 -0.52851593643E+03  0.52851593643E+03  0.00000000000E+00 0. -1.
         24    2    1    2    0    0 -0.17390272209E+03  0.59319150602E+01 -0.18365530289E+02  0.19340736142E+03  0.82412198029E+02 0.  0.
         23    2    1    2    0    0  0.24936914826E+03  0.14874324463E+02 -0.29763339273E+03  0.39929252293E+03  0.91883974500E+02 0.  0.
        -13    1    3    3    0    0 -0.46422191595E+02  0.23770805692E+02 -0.36155919426E+02  0.63461181719E+02  0.00000000000E+00 0.  1.
         14    1    3    3    0    0 -0.12748053049E+03 -0.17838890632E+02  0.17790389138E+02  0.12994617970E+03  0.00000000000E+00 0. -1.
        -11    1    4    4    0    0  0.20102725887E+03 -0.16567560882E+02 -0.18959101930E+03  0.27682340487E+03  0.00000000000E+00 0. -1.
         11    1    4    4    0    0  0.48341889389E+02  0.31441885344E+02 -0.10804237343E+03  0.12246911807E+03  0.00000000000E+00 0.  1.
         21    1    1    2  503  502 -0.76722502370E+02 -0.69698519862E+02  0.13110435001E+03  0.16713041803E+03  0.00000000000E+00 0.  1.
          1    1    1    2  501    0  0.12560762007E+01  0.48892280339E+02 -0.45503971729E+02  0.66803025734E+02  0.00000000000E+00 0. -1.
<scales pt_clust_5="13000.00000" pt_clust_6="13000.00000" pt_clust_7="13000.00000" pt_clust_8="13000.00000" pt_clust_9="102.37409" pt_clust_10="48.90841"></scales>
<clustering>
<clus scale="   48.908">  2 10  1 -1</clus>
<clus scale="   82.412">  5  6 -1 -1</clus>
<clus scale="   91.884">  7  8 -1 -1</clus>
<clus scale="  102.374">  1  9  2 -1</clus>
<clus scale="  236.178">  1  5  2 -1</clus>
<clus scale="   48.908">  2  5  1 -1</clus>
</clustering>
</event>
<event>
10    4  0.5389768E-005  0.2725234E+03  0.7546771E-02  0.1135155E+00
         -1   -1    0    0    0  501 -0.00000000000E+00  0.00000000000E+00  0.41727541101E+03  0.41727541101E+03  0.00000000000E+00 0.  1.
         21   -1    0    0  503  502  0.00000000000E+00 -0.00000000000E+00 -0.11423680095E+04  0.11423680095E+04  0.00000000000E+00 0.  1.
         24    2    1    2    0    0 -0.79302562930E+02 -0.34623764563E+00 -0.78018178997E+02  0.13666542945E+03  0.79382535776E+02 0.  0.
         23    2    1    2    0    0  0.35842124053E+02 -0.56678139711E+02 -0.15089931814E+02  0.11498778344E+03  0.92181423950E+02 0.  0.
        -13    1    3    3    0    0 -0.84755181735E+02  0.14475927949E+02 -0.38693283788E+02  0.94287663728E+02  0.00000000000E+00 0.  1.
         14    1    3    3    0    0  0.54526188056E+01 -0.14822165595E+02 -0.39324895209E+02  0.42377765727E+02  0.00000000000E+00 0. -1.
        -11    1    4    4    0    0  0.26250607332E+02 -0.79808751936E+02  0.30449232868E+01  0.84070225578E+02  0.00000000000E+00 0. -1.
         11    1    4    4    0    0  0.95915167213E+01  0.23130612225E+02 -0.18134855101E+02  0.30917557867E+02  0.00000000000E+00 0.  1.
         21    1    1    2  503  501 -0.21937346751E+03 -0.27438778020E+02  0.27906741882E+03  0.35602841043E+03  0.00000000000E+00 0.  1.
         -2    1    1    2    0  502  0.26283390638E+03  0.84463155377E+02 -0.91105190647E+03  0.95196179716E+03  0.00000000000E+00 0.  1.
<scales pt_clust_5="13000.00000" pt_clust_6="13000.00000" pt_clust_7="13000.00000" pt_clust_8="13000.00000" pt_clust_9="13000.00000" pt_clust_10="272.52339"></scales>
<clustering>
<clus scale="   79.383">  5  6 -1 -1</clus>
<clus scale="   92.181">  7  8 -1 -1</clus>
<clus scale="  112.208">  1  5  2 -1</clus>
<clus scale="  111.229">  1  7  2 -1</clus>
<clus scale="  272.523">  2 10  1 -1</clus>
<clus scale="  272.523">  2  5  1 -1</clus>
</clustering>
</event>
<event>
10    4  0.5389768E-005  0.1099840E+03  0.7546771E-02  0.1265475E+00
         -3   -1    0    0    0  501 -0.00000000000E+00  0.00000000000E+00  0.36620123738E+03  0.36620123738E+03  0.00000000000E+00 0.  1.
         21   -1    0    0  501  502  0.00000000000E+00 -0.00000000000E+00 -0.12594996481E+03  0.12594996481E+03  0.00000000000E+00 0.  1.
         23    2    1    2    0    0  0.42969024635E+02 -0.15696326402E+02  0.70627896924E+01  0.10197294737E+03  0.90861913127E+02 0.  0.
         24    2    1    2    0    0 -0.48205072130E+02  0.83834534072E+02 -0.19636291457E+02  0.12606826679E+03  0.78458051633E+02 0.  0.
        -13    1    4    4    0    0  0.15401591608E+02  0.40247202165E+02  0.86177349977E+01  0.43946691145E+02  0.00000000000E+00 0.  1.
         14    1    4    4    0    0 -0.63606663738E+02  0.43587331907E+02 -0.28254026455E+02  0.82121575640E+02  0.00000000000E+00 0. -1.
        -11    1    3    3    0    0  0.68745055589E+02  0.42936178929E+01  0.79889677051E+01  0.69340763101E+02  0.00000000000E+00 0. -1.
         11    1    3    3    0    0 -0.25776030954E+02 -0.19989944295E+02 -0.92617801269E+00  0.32632184272E+02  0.00000000000E+00 0.  1.
         21    1    1    2  503  502 -0.14123653099E+02 -0.38178209898E+02  0.13402143421E+03  0.14006712004E+03  0.00000000000E+00 0.  1.
         -4    1    1    2    0  503  0.19359700594E+02 -0.29959997772E+02  0.11880334012E+03  0.12404286798E+03  0.00000000000E+00 0.  1.
<scales pt_clust_5="13000.00000" pt_clust_6="13000.00000" pt_clust_7="13000.00000" pt_clust_8="13000.00000" pt_clust_9="31.93027" pt_clust_10="76.37883"></scales>
<clustering>
<clus scale="   31.930">  9 10 -1 -1</clus>
<clus scale="   76.379">  2  9  1 -1</clus>
<clus scale="   78.458">  5  6 -1 -1</clus>
<clus scale="   90.862">  7  8 -1 -1</clus>
<clus scale="   99.981">  2  5  1 -1</clus>
<clus scale="   76.379">  2  5  1 -1</clus>
</clustering>
</event>
<event>
10    4  0.5389768E-005  0.1069345E+03  0.7546771E-02  0.1270719E+00
         21   -1    0    0  501  502  0.00000000000E+00  0.00000000000E+00  0.72556359252E+02  0.72556359252E+02  0.00000000000E+00 0.  1.
          2   -1    0    0  503    0 -0.00000000000E+00 -0.00000000000E+00 -0.42123509301E+03  0.42123509301E+03  0.00000000000E+00 0. -1.
         23    2    1    2    0    0 -0.27456010237E+02 -0.31513619050E+02 -0.15216771531E+03  0.18246921907E+03  0.91613654225E+02 0.  0.
         24    2    1    2    0    0  0.40100217157E+02  0.75505980152E+02 -0.24664947103E+02  0.12054179828E+03  0.81319032598E+02 0.  0.
        -11    1    4    4    0    0  0.85012800375E+01  0.83189295357E+02 -0.27170175219E+02  0.87925815581E+02  0.00000000000E+00 0.  1.
         12    1    4    4    0    0  0.31598937119E+02 -0.76833152046E+01  0.25052281156E+01  0.32615982700E+02  0.00000000000E+00 0. -1.
        -13    1    3    3    0    0 -0.48541508034E+02  0.65550549848E+01 -0.43873159857E+02  0.65757896133E+02  0.00000000000E+00 0. -1.
         13    1    3    3    0    0  0.21085497797E+02 -0.38068674034E+02 -0.10829455546E+03  0.11671132294E+03  0.00000000000E+00 0.  1.
         21    1    1    2  503  502  0.23129514458E+02 -0.20283748657E+02 -0.11788872929E+03  0.12183660120E+03  0.00000000000E+00 0. -1.
          1    1    1    2  501    0 -0.35773721378E+02 -0.23708612445E+02 -0.53957342052E+02  0.68943833710E+02  0.00000000000E+00 0. -1.
<scales pt_clust_5="13000.00000" pt_clust_6="13000.00000" pt_clust_7="13000.00000" pt_clust_8="13000.00000" pt_clust_9="30.76369" pt_clust_10="41.71200"></scales>
<clustering>
<clus scale="   30.764">  2  9  1 -1</clus>
<clus scale="   41.712">  1 10  2 -1</clus>
<clus scale="   81.319">  5  6 -1 -1</clus>
<clus scale="   91.614">  7  8 -1 -1</clus>
<clus scale="   98.258">  1  5  2 -1</clus>
<clus scale="   41.712">  1  5  2 -1</clus>
</clustering>
</event>
<event>
10    4  0.5389768E-005  0.1532929E+03  0.7546771E-02  0.1198266E+00
         21   -1    0    0  501  502  0.00000000000E+00  0.00000000000E+00  0.11019069857E+03  0.11019069857E+03  0.00000000000E+00 0. -1.
          2   -1    0    0  503    0 -0.00000000000E+00 -0.00000000000E+00 -0.70502721748E+03  0.70502721748E+03  0.00000000000E+00 0. -1.
         24    2    1    2    0    0  0.39642359010E+02 -0.12950393115E+03 -0.54034471708E+03  0.56290956494E+03  0.80944303160E+02 0.  0.
         23    2    1    2    0    0  0.21706128800E+02  0.13455524122E+03 -0.14324488505E+02  0.16459482463E+03  0.91159181418E+02 0.  0.
        -13    1    3    3    0    0  0.24059263684E+01 -0.67308680847E+02 -0.13210040120E+03  0.14827934110E+03  0.00000000000E+00 0.  1.
         14    1    3    3    0    0  0.37236432642E+02 -0.62195250304E+02 -0.40824431587E+03  0.41463022384E+03  0.00000000000E+00 0. -1.
        -13    1    4    4    0    0  0.53124120493E+02  0.47502335376E+02 -0.26654955674E+01  0.71314436904E+02  0.00000000000E+00 0. -1.
         13    1    4    4    0    0 -0.31417991693E+02  0.87052905847E+02 -0.11658992938E+02  0.93280387728E+02  0.00000000000E+00 0.  1.
         21    1    1    2  503  502 -0.22971666295E+02  0.11446850062E+02 -0.38037295779E+02  0.45886421727E+02  0.00000000000E+00 0.  1.
          1    1    1    2  501    0 -0.38376821516E+02 -0.16498160133E+02 -0.21300175500E+01  0.41827104755E+02  0.00000000000E+00 0. -1.
<scales pt_clust_5="13000.00000" pt_clust_6="13000.00000" pt_clust_7="13000.00000" pt_clust_8="13000.00000" pt_clust_9="25.66569" pt_clust_10="42.32750"></scales>
<clustering>
<clus scale="   25.666">  2  9  1 -1</clus>
<clus scale="   42.327">  1 10  2 -1</clus>
<clus scale="   80.944">  5  6 -1 -1</clus>
<clus scale="   91.159">  7  8 -1 -1</clus>
<clus scale="  147.447">  2  5  1 -1</clus>
<clus scale="   42.327">  1  5  2 -1</clus>
</clustering>
</event>
<event>
10    4  0.5389768E-005  0.2330244E+03  0.7546771E-02  0.1165918E+00
          2   -1    0    0  503    0 -0.00000000000E+00  0.00000000000E+00  0.25815817601E+03  0.25815817601E+03  0.00000000000E+00 0. -1.
         21   -1    0    0  501  502  0.00000000000E+00 -0.00000000000E+00 -0.12421131328E+04  0.12421131328E+04  0.00000000000E+00 0. -1.
         24    2    1    2    0    0  0.24218278446E+02  0.10455961355E+02  0.53922001667E+02  0.10204957914E+03  0.82526857446E+02 0.  0.
         23    2    1    2    0    0  0.96920935925E+02 -0.94071775714E+02 -0.14811642622E+03  0.21985027101E+03  0.90291190813E+02 0.  0.
        -11    1    3    3    0    0 -0.70858542020E+01  0.31501277479E+02  0.55595739579E+02  0.64291726310E+02  0.00000000000E+00 0.  1.
         12    1    3    3    0    0  0.31304132648E+02 -0.21045316124E+02 -0.16737379122E+01  0.37757852828E+02  0.00000000000E+00 0. -1.
        -13    1    4    4    0    0  0.35076860185E+02 -0.57683526202E+02 -0.12899109443E+03  0.14559010185E+03  0.00000000000E+00 0.  1.
         13    1    4    4    0    0  0.61844075740E+02 -0.36388249512E+02 -0.19125331793E+02  0.74260169155E+02  0.00000000000E+00 0. -1.
         21    1    1    2  503  502 -0.27498091430E+03  0.10271307689E+03 -0.19253380844E+02  0.29416861163E+03  0.00000000000E+00 0. -1.
          1    1    1    2  501    0  0.15384169993E+03 -0.19097262532E+02 -0.87050715143E+03  0.88420284707E+03  0.00000000000E+00 0. -1.
<scales pt_clust_5="13000.00000" pt_clust_6="13000.00000" pt_clust_7="13000.00000" pt_clust_8="13000.00000" pt_clust_9="214.82053" pt_clust_10="155.88782"></scales>
<clustering>
<clus scale="   82.527">  5  6 -1 -1</clus>
<clus scale="   86.640">  1  5  2 -1</clus>
<clus scale="   90.291">  7  8 -1 -1</clus>
<clus scale="  155.888">  2 10  1 -1</clus>
<clus scale="  214.821">  1  9  2 -1</clus>
<clus scale="  155.888">  2  5  1 -1</clus>
</clustering>
</event>
<event>
10    4  0.5389768E-005  0.2541637E+03  0.7546771E-02  0.1146957E+00
          2   -1    0    0  503    0 -0.00000000000E+00  0.00000000000E+00  0.63608342468E+03  0.63608342468E+03  0.00000000000E+00 0. -1.
         21   -1    0    0  501  502  0.00000000000E+00 -0.00000000000E+00 -0.17561149711E+03  0.17561149711E+03  0.00000000000E+00 0.  1.
         24    2    1    2    0    0 -0.12821044746E+02 -0.59194093170E+02  0.50207959640E+02  0.11309189268E+03  0.81244182092E+02 0.  0.
         23    2    1    2    0    0 -0.14011868888E+03  0.20242216139E+03  0.12030352780E+03  0.28885724427E+03  0.91419857625E+02 0.  0.
        -13    1    3    3    0    0  0.26027757870E+02 -0.32271478624E+02 -0.34286222264E+01  0.41601057230E+02  0.00000000000E+00 0.  1.
         14    1    3    3    0    0 -0.38848802617E+02 -0.26922614546E+02  0.53636581866E+02  0.71490835448E+02  0.00000000000E+00 0. -1.
        -11    1    4    4    0    0 -0.12061605401E+03  0.13757282517E+03  0.12402671604E+03  0.22103651508E+03  0.00000000000E+00 0.  1.
         11    1    4    4    0    0 -0.19502634874E+02  0.64849336228E+02 -0.37231882455E+01  0.67820729183E+02  0.00000000000E+00 0. -1.
         21    1    1    2  503  502 -0.48980860673E+02 -0.19886625546E+02  0.50624382721E+02  0.73194471880E+02  0.00000000000E+00 0.  1.
          1    1    1    2  501    0  0.20192059430E+03 -0.12334144268E+03  0.23933605741E+03  0.33655131297E+03  0.00000000000E+00 0. -1.
<scales pt_clust_5="13000.00000" pt_clust_6="13000.00000" pt_clust_7="13000.00000" pt_clust_8="13000.00000" pt_clust_9="52.86400" pt_clust_10="237.15319"></scales>
<clustering>
<clus scale="   52.864">  1  9  2 -1</clus>
<clus scale="   81.244">  5  6 -1 -1</clus>
<clus scale="   91.420">  7  8 -1 -1</clus>
<clus scale="  104.110">  1  5  2 -1</clus>
<clus scale="  237.153">  2 10  1 -1</clus>
<clus scale="  237.153">  2  5  1 -1</clus>
</clustering>
</event>
<event>
10    4  0.5389768E-005  0.9767779E+02  0.7546771E-02  0.1290362E+00
          2   -1    0    0  503    0 -0.00000000000E+00  0.00000000000E+00  0.58125658473E+03  0.58125658473E+03  0.00000000000E+00 0. -1.
         21   -1    0    0  501  502  0.00000000000E+00 -0.00000000000E+00 -0.65327445029E+02  0.65327445029E+02  0.00000000000E+00 0. -1.
         23    2    1    2    0    0 -0.31432384969E+02  0.24806407985E+02  0.45882723022E+03  0.46932850032E+03  0.90241128725E+02 0.  0.
         24    2    1    2    0    0  0.27471219295E+02  0.13452162280E+02 -0.49930985629E+01  0.86243260766E+02  0.80481926137E+02 0.  0.
        -11    1    4    4    0    0  0.25171366891E+02 -0.30148468684E+02  0.91904487611E+01  0.40335991665E+02  0.00000000000E+00 0.  1.
         12    1    4    4    0    0  0.22998524036E+01  0.43600630964E+02 -0.14183547324E+02  0.45907269100E+02  0.00000000000E+00 0. -1.
        -11    1    3    3    0    0  0.18930532861E+02 -0.17580594977E+02  0.63432518751E+02  0.68491801183E+02  0.00000000000E+00 0.  1.
         11    1    3    3    0    0 -0.50362917831E+02  0.42387002962E+02  0.39539471147E+03  0.40083669913E+03  0.00000000000E+00 0. -1.
         21    1    1    2  503  502  0.26603741149E+02 -0.28329615615E+02  0.50450527607E+02  0.63683450753E+02  0.00000000000E+00 0. -1.
          1    1    1    2  501    0 -0.22642575475E+02 -0.99289546503E+01  0.11644480437E+02  0.27328817926E+02  0.00000000000E+00 0. -1.
<scales pt_clust_5="13000.00000" pt_clust_6="13000.00000" pt_clust_7="13000.00000" pt_clust_8="13000.00000" pt_clust_9="38.00670" pt_clust_10="24.72388"></scales>
<clustering>
<clus scale="   24.724">  2 10  1 -1</clus>
<clus scale="   38.007">  2  9  1 -1</clus>
<clus scale="   80.482">  5  6 -1 -1</clus>
<clus scale="   88.740">  2  5  1 -1</clus>
<clus scale="   90.241">  7  8 -1 -1</clus>
<clus scale="   24.724">  2  5  1 -1</clus>
</clustering>
</event>
<event>
10    4  0.5389768E-005  0.1048957E+03  0.7546771E-02  0.1272250E+00
          2   -1    0    0  503    0 -0.00000000000E+00  0.00000000000E+00  0.10385135757E+04  0.10385135757E+04  0.00000000000E+00 0. -1.
         21   -1    0    0  501  502  0.00000000000E+00 -0.00000000000E+00 -0.33346084801E+02  0.33346084801E+02  0.00000000000E+00 0. -1.
         24    2    1    2    0    0  0.25371983626E+02 -0.46883461010E+02  0.29582056506E+03  0.31138450088E+03  0.81293937062E+02 0.  0.
         23    2    1    2    0    0  0.28540328895E+02  0.72958900204E+02  0.12551049339E+03  0.17113368095E+03  0.86001751807E+02 0.  0.
        -13    1    3    3    0    0 -0.20339527745E+02 -0.37946334312E+02  0.20321196517E+03  0.20772270811E+03  0.00000000000E+00 0.  1.
         14    1    3    3    0    0  0.45711511371E+02 -0.89371266978E+01  0.92608599892E+02  0.10366179277E+03  0.00000000000E+00 0. -1.
        -13    1    4    4    0    0  0.49732061534E+02  0.69540827771E+02  0.66412789767E+02  0.10825831754E+03  0.00000000000E+00 0. -1.
         13    1    4    4    0    0 -0.21191732639E+02  0.34180724326E+01  0.59097703619E+02  0.62875363414E+02  0.00000000000E+00 0.  1.
         21    1    1    2  503  502  0.11147948167E+01 -0.24670500412E+02  0.14861047403E+03  0.15064842963E+03  0.00000000000E+00 0. -1.
          1    1    1    2  501    0 -0.55027107337E+02 -0.14049387812E+01  0.43522595841E+03  0.43869304904E+03  0.00000000000E+00 0. -1.
<scales pt_clust_5="13000.00000" pt_clust_6="13000.00000" pt_clust_7="13000.00000" pt_clust_8="13000.00000" pt_clust_9="24.69567" pt_clust_10="56.13469"></scales>
<clustering>
<clus scale="   24.696">  1  9  2 -1</clus>
<clus scale="   56.135">  2 10  1 -1</clus>
<clus scale="   81.294">  5  6 -1 -1</clus>
<clus scale="   86.002">  7  8 -1 -1</clus>
<clus scale="  101.072">  1  5  2 -1</clus>
<clus scale="   56.135">  2  5  1 -1</clus>
</clustering>
</event>
<event>
10    4  0.5389768E-005  0.2763493E+03  0.7546771E-02  0.1129531E+00
         21   -1    0    0  501  502  0.00000000000E+00  0.00000000000E+00  0.49391122960E+03  0.49391122960E+03  0.00000000000E+00 0. -1.
          2   -1    0    0  503    0 -0.00000000000E+00 -0.00000000000E+00 -0.73568548012E+03  0.73568548012E+03  0.00000000000E+00 0. -1.
         23    2    1    2    0    0  0.65424470826E+02 -0.48912552734E+02  0.28450049330E+02  0.12671483249E+03  0.92598295173E+02 0.  0.
         24    2    1    2    0    0 -0.55749097576E+02  0.25021956587E+03 -0.32852479677E+03  0.42324201340E+03  0.74077437836E+02 0.  0.
        -11    1    4    4    0    0 -0.71320079027E+02  0.23251782648E+03 -0.30193201681E+03  0.38770354148E+03  0.00000000000E+00 0.  1.
         12    1    4    4    0    0  0.15570981451E+02  0.17701739387E+02 -0.26592779957E+02  0.35538471921E+02  0.00000000000E+00 0. -1.
        -13    1    3    3    0    0 -0.27477664072E+01 -0.38824990050E+02  0.41148262206E+02  0.56640176157E+02  0.00000000000E+00 0.  1.
         13    1    3    3    0    0  0.68172237233E+02 -0.10087562685E+02 -0.12698212876E+02  0.70074656336E+02  0.00000000000E+00 0. -1.
         21    1    1    2  503  502 -0.26029008099E+03 -0.41554331774E+02 -0.16227098064E+03  0.30953119376E+03  0.00000000000E+00 0. -1.
          1    1    1    2  501    0  0.25061470774E+03 -0.15975268136E+03  0.22057147756E+03  0.37010867006E+03  0.00000000000E+00 0. -1.
<scales pt_clust_5="13000.00000" pt_clust_6="13000.00000" pt_clust_7="13000.00000" pt_clust_8="13000.00000" pt_clust_9="276.34932" pt_clust_10="13000.00000"></scales>
<clustering>
<clus scale="   74.077">  5  6 -1 -1</clus>
<clus scale="   92.598">  7  8 -1 -1</clus>
<clus scale="  123.480">  2  7  1 -1</clus>
<clus scale="  236.242">  2  5  1 -1</clus>
<clus scale="  276.349">  2  9  1 -1</clus>
<clus scale="  276.349">  1  5  2 -1</clus>
</clustering>
</event>
<event>
10    4  0.5389768E-005  0.1343474E+03  0.7546771E-02  0.1223494E+00
          2   -1    0    0  503    0 -0.00000000000E+00  0.00000000000E+00  0.60240311127E+03  0.60240311127E+03  0.00000000000E+00 0. -1.
         21   -1    0    0  501  502  0.00000000000E+00 -0.00000000000E+00 -0.22805762616E+03  0.22805762616E+03  0.00000000000E+00 0. -1.
         24    2    1    2    0    0 -0.81337262346E+02  0.27246374108E+02  0.13903080416E+03  0.18238882054E+03  0.81104883973E+02 0.  0.
         23    2    1    2    0    0  0.14570090110E+03 -0.32102497630E+02 -0.15363925731E+03  0.23266388697E+03  0.90929313079E+02 0.  0.
        -11    1    3    3    0    0 -0.38211794378E+01 -0.24525932946E+02  0.30394541085E+02  0.39242208487E+02  0.00000000000E+00 0.  1.
         12    1    3    3    0    0 -0.77516082908E+02  0.51772307054E+02  0.10863626307E+03  0.14314661205E+03  0.00000000000E+00 0. -1.
        -11    1    4    4    0    0  0.52268947276E+02 -0.16779212807E+02 -0.33002580456E+01  0.54995241021E+02  0.00000000000E+00 0.  1.
         11    1    4    4    0    0  0.93431953823E+02 -0.15323284823E+02 -0.15033899926E+03  0.17766864595E+03  0.00000000000E+00 0. -1.
         21    1    1    2  503  502  0.39220884494E+01  0.46615215640E+02  0.25584508677E+03  0.26008665773E+03  0.00000000000E+00 0. -1.
          1    1    1    2  501    0 -0.68285727202E+02 -0.41759092118E+02  0.13310885149E+03  0.15532137219E+03  0.00000000000E+00 0. -1.
<scales pt_clust_5="13000.00000" pt_clust_6="13000.00000" pt_clust_7="13000.00000" pt_clust_8="13000.00000" pt_clust_9="46.77992" pt_clust_10="70.25702"></scales>
<clustering>
<clus scale="   46.780">  1  9  2 -1</clus>
<clus scale="   70.257">  2 10  1 -1</clus>
<clus scale="   81.105">  5  6 -1 -1</clus>
<clus scale="   90.929">  7  8 -1 -1</clus>
<clus scale="  127.903">  1  5  2 -1</clus>
<clus scale="   70.257">  2  5  1 -1</clus>
</clustering>
</event>
<event>
10    4  0.5389768E-005  0.1259315E+03  0.7546771E-02  0.1235358E+00
         21   -1    0    0  501  502  0.00000000000E+00  0.00000000000E+00  0.22068900872E+03  0.22068900872E+03  0.00000000000E+00 0.  1.
          2   -1    0    0  503    0 -0.00000000000E+00 -0.00000000000E+00 -0.17753105402E+03  0.17753105402E+03  0.00000000000E+00 0. -1.
         23    2    1    2    0    0 -0.43872133809E+02  0.48219829887E+02 -0.41399576028E+02  0.11615194486E+03  0.86760781929E+02 0.  0.
         24    2    1    2    0    0  0.87081535320E+02 -0.91170763466E+02  0.11428059948E+03  0.18812948578E+03  0.80233073593E+02 0.  0.
        -13    1    4    4    0    0  0.96206398148E+02 -0.92086199398E+02  0.11828712329E+03  0.17812181983E+03  0.00000000000E+00 0.  1.
         14    1    4    4    0    0 -0.91248628277E+01  0.91543593266E+00 -0.40065238163E+01  0.10007665945E+02  0.00000000000E+00 0. -1.
        -11    1    3    3    0    0 -0.67409172528E+02  0.39095381289E+02 -0.14501843599E+02  0.79263792786E+02  0.00000000000E+00 0.  1.
         11    1    3    3    0    0  0.23537038719E+02  0.91244485988E+01 -0.26897732429E+02  0.36888152078E+02  0.00000000000E+00 0. -1.
         21    1    1    2  503  502 -0.66332208081E+01  0.30139486224E+02 -0.43038977288E+02  0.52959813199E+02  0.00000000000E+00 0. -1.
          1    1    1    2  501    0 -0.36576180703E+02  0.12811447354E+02  0.13315908539E+02  0.40978818899E+02  0.00000000000E+00 0. -1.
<scales pt_clust_5="13000.00000" pt_clust_6="13000.00000" pt_clust_7="13000.00000" pt_clust_8="13000.00000" pt_clust_9="30.86079" pt_clust_10="40.58430"></scales>
<clustering>
<clus scale="   30.861">  2  9  1 -1</clus>
<clus scale="   40.584">  1 10  2 -1</clus>
<clus scale="   80.233">  5  6 -1 -1</clus>
<clus scale="   86.761">  7  8 -1 -1</clus>
<clus scale="  121.526">  1  5  2 -1</clus>
<clus scale="   40.584">  1  5  2 -1</clus>
</clustering>
</event>
<event>
10    4  0.5389768E-005  0.1224749E+03  0.7546771E-02  0.1242425E+00
         21   -1    0    0  503  502  0.00000000000E+00  0.00000000000E+00  0.14824057225E+03  0.14824057225E+03  0.00000000000E+00 0.  1.
         -1   -1    0    0    0  501 -0.00000000000E+00 -0.00000000000E+00 -0.28062596777E+03  0.28062596777E+03  0.00000000000E+00 0.  1.
         24    2    1    2    0    0 -0.68636764174E+02 -0.42610724755E+02 -0.98533056181E+02  0.15053690069E+03  0.80161811658E+02 0.  0.
         23    2    1    2    0    0  0.86024364549E+02  0.16281362766E+02 -0.98452955074E+01  0.12687546840E+03  0.91297210074E+02 0.  0.
        -13    1    3    3    0    0 -0.99390727582E+01 -0.52634278943E+02 -0.38382886594E+02  0.65896877547E+02  0.00000000000E+00 0.  1.
         14    1    3    3    0    0 -0.58697691416E+02  0.10023554188E+02 -0.60150169586E+02  0.84640023141E+02  0.00000000000E+00 0. -1.
        -11    1    4    4    0    0  0.64008432061E+02  0.40231137273E+02  0.24593335518E+02  0.79501295166E+02  0.00000000000E+00 0.  1.
         11    1    4    4    0    0  0.22015932488E+02 -0.23949774507E+02 -0.34438631025E+02  0.47374173229E+02  0.00000000000E+00 0. -1.
         21    1    1    2  503  501  0.32501643809E+02  0.65806317679E+02 -0.42996187020E+02  0.85061744604E+02  0.00000000000E+00 0.  1.
         -2    1    1    2    0  502 -0.49889244184E+02 -0.39476955691E+02  0.18989143187E+02  0.66392426336E+02  0.00000000000E+00 0.  1.
<scales pt_clust_5="13000.00000" pt_clust_6="13000.00000" pt_clust_7="13000.00000" pt_clust_8="13000.00000" pt_clust_9="62.17705" pt_clust_10="63.61892"></scales>
<clustering>
<clus scale="   63.619">  1 10  2 -1</clus>
<clus scale="   62.177">  1  9  2 -1</clus>
<clus scale="   80.162">  5  6 -1 -1</clus>
<clus scale="   91.297">  7  8 -1 -1</clus>
<clus scale="  114.415">  2  5  1 -1</clus>
<clus scale="   63.619">  1  5  2 -1</clus>
</clustering>
</event>
<event>
10    4  0.5389768E-005  0.1384929E+03  0.7546771E-02  0.1217992E+00
         21   -1    0    0  503  502  0.00000000000E+00  0.00000000000E+00  0.32298527043E+03  0.32298527043E+03  0.00000000000E+00 0.  1.
         -1   -1    0    0    0  501 -0.00000000000E+00 -0.00000000000E+00 -0.14992343606E+03  0.14992343606E+03  0.00000000000E+00 0.  1.
         24    2    1    2    0    0  0.12996909699E+03 -0.45923332069E+02  0.56294794863E+02  0.16910433323E+03  0.80163913260E+02 0.  0.
         23    2    1    2    0    0 -0.86735873857E+02 -0.41171767812E+02  0.96764986479E+02  0.16436952132E+03  0.91845798224E+02 0.  0.
        -13    1    3    3    0    0  0.82916183866E+02  0.12798049601E+02  0.34962914874E+02  0.90891633481E+02  0.00000000000E+00 0.  1.
         14    1    3    3    0    0  0.47052913122E+02 -0.58721381669E+02  0.21331879989E+02  0.78212699751E+02  0.00000000000E+00 0. -1.
        -11    1    4    4    0    0 -0.69974733835E+02 -0.70219185641E+02  0.68319609511E+02  0.12039421270E+03  0.00000000000E+00 0.  1.
         11    1    4    4    0    0 -0.16761140021E+02  0.29047417829E+02  0.28445376968E+02  0.43975308620E+02  0.00000000000E+00 0. -1.
         21    1    1    2  503  501 -0.45304171668E+02  0.37008401168E+02 -0.32436774173E+02  0.66889715549E+02  0.00000000000E+00 0. -1.
         -2    1    1    2    0  502  0.20709485368E+01  0.50086698713E+02  0.52438827204E+02  0.72545136393E+02  0.00000000000E+00 0.  1.
<scales pt_clust_5="13000.00000" pt_clust_6="13000.00000" pt_clust_7="13000.00000" pt_clust_8="13000.00000" pt_clust_9="60.54612" pt_clust_10="50.12949"></scales>
<clustering>
<clus scale="   50.129">  1 10  2 -1</clus>
<clus scale="   60.546">  2  9  1 -1</clus>
<clus scale="   80.164">  5  6 -1 -1</clus>
<clus scale="   91.846">  7  8 -1 -1</clus>
<clus scale="  131.038">  2  5  1 -1</clus>
<clus scale="   50.129">  1  5  2 -1</clus>
</clustering>
</event>
<event>
10    4  0.5389768E-005  0.2043711E+03  0.7546771E-02  0.1162969E+00
         21   -1    0    0  503  502  0.00000000000E+00  0.00000000000E+00  0.11733807561E+03  0.11733807561E+03  0.00000000000E+00 0.  1.
         -1   -1    0    0    0  501 -0.00000000000E+00 -0.00000000000E+00 -0.91487231213E+03  0.91487231213E+03  0.00000000000E+00 0.  1.
         23    2    1    2    0    0 -0.10043196368E+03 -0.33670800233E+02 -0.10934367140E+03  0.17913521867E+03  0.94409141370E+02 0.  0.
         24    2    1    2    0    0 -0.11900803043E+03  0.13605147658E+03 -0.15538712569E+03  0.25125390576E+03  0.79438345549E+02 0.  0.
        -13    1    4    4    0    0 -0.73712711230E+02  0.57652122542E+02 -0.12415994651E+03  0.15547676144E+03  0.00000000000E+00 0.  1.
         14    1    4    4    0    0 -0.45295319202E+02  0.78399354035E+02 -0.31227179181E+02  0.95777144321E+02  0.00000000000E+00 0. -1.
        -11    1    3    3    0    0 -0.81460000332E+02 -0.22325762805E+02 -0.12583644410E+03  0.15155521108E+03  0.00000000000E+00 0.  1.
         11    1    3    3    0    0 -0.18971963347E+02 -0.11345037427E+02  0.16492772701E+02  0.27580007593E+02  0.00000000000E+00 0. -1.
         21    1    1    2  503  501  0.32580684526E+02 -0.77616351252E+01 -0.23710350179E+03  0.23945733345E+03  0.00000000000E+00 0.  1.
         -2    1    1    2    0  502  0.18685930959E+03 -0.94619041219E+02 -0.29569993764E+03  0.36236392985E+03  0.00000000000E+00 0.  1.
<scales pt_clust_5="13000.00000" pt_clust_6="13000.00000" pt_clust_7="13000.00000" pt_clust_8="13000.00000" pt_clust_9="33.49245" pt_clust_10="188.30061"></scales>
<clustering>
<clus scale="   33.492">  2  9  1 -1</clus>
<clus scale="   79.438">  5  6 -1 -1</clus>
<clus scale="   94.409">  7  8 -1 -1</clus>
<clus scale="  137.480">  2  7  1 -1</clus>
<clus scale="  188.301">  1 10  2 -1</clus>
<clus scale="  188.301">  1  5  2 -1</clus>
</clustering>
</event>
<event>
10    4  0.5389768E-005  0.9221948E+02  0.7546771E-02  0.1303109E+00
         21   -1    0    0  503  502  0.00000000000E+00  0.00000000000E+00  0.10066341477E+03  0.10066341477E+03  0.00000000000E+00 0. -1.
         -3   -1    0    0    0  501 -0.00000000000E+00 -0.00000000000E+00 -0.45512565071E+03  0.45512565071E+03  0.00000000000E+00 0.  1.
         23    2    1    2    0    0  0.14067550860E+02 -0.29780764582E+01 -0.21739764005E+03  0.23628311376E+03  0.91439657820E+02 0.  0.
         24    2    1    2    0    0  0.23031469148E+02 -0.27452959294E+02 -0.27485968684E+02  0.93963175092E+02  0.82398338902E+02 0.  0.
        -11    1    4    4    0    0  0.98495419717E+00  0.26501667564E+02  0.53657978408E+01  0.27057352142E+02  0.00000000000E+00 0.  1.
         12    1    4    4    0    0  0.22046514950E+02 -0.53954626858E+02 -0.32851766525E+02  0.66905822950E+02  0.00000000000E+00 0. -1.
        -13    1    3    3    0    0  0.44282344204E+02 -0.46118704410E+01 -0.19102392103E+03  0.19614365593E+03  0.00000000000E+00 0.  1.
         13    1    3    3    0    0 -0.30214793344E+02  0.16337939828E+01 -0.26373719016E+02  0.40139457824E+02  0.00000000000E+00 0. -1.
         21    1    1    2  503  501 -0.16678390018E+02  0.12940478845E+02 -0.16372921323E+03  0.16508446308E+03  0.00000000000E+00 0.  1.
         -4    1    1    2    0  502 -0.20420629989E+02  0.17490556907E+02  0.54150586028E+02  0.60458313550E+02  0.00000000000E+00 0.  1.
<scales pt_clust_5="13000.00000" pt_clust_6="13000.00000" pt_clust_7="13000.00000" pt_clust_8="13000.00000" pt_clust_9="21.10982" pt_clust_10="27.11595"></scales>
<clustering>
<clus scale="   21.110">  2  9  1 -1</clus>
<clus scale="   27.116">  1 10  2 -1</clus>
<clus scale="   82.398">  5  6 -1 -1</clus>
<clus scale="   83.263">  1  5  2 -1</clus>
<clus scale="   91.440">  7  8 -1 -1</clus>
<clus scale="   27.116">  1  5  2 -1</clus>
</clustering>
</event>
<event>
10    4  0.5389768E-005  0.2341034E+03  0.7546771E-02  0.1152413E+00
         -1   -1    0    0    0  501 -0.00000000000E+00  0.00000000000E+00  0.12566706097E+04  0.12566706097E+04  0.00000000000E+00 0.  1.
         21   -1    0    0  503  502  0.00000000000E+00 -0.00000000000E+00 -0.10807346589E+03  0.10807346589E+03  0.00000000000E+00 0.  1.
         23    2    1    2    0    0  0.15440583279E+02  0.65286753998E+02  0.15959913337E+03  0.19494009243E+03  0.89604600352E+02 0.  0.
         24    2    1    2    0    0  0.20503868642E+03 -0.13269040880E+03  0.57944480734E+03  0.63281793892E+03  0.71096072664E+02 0.  0.
        -13    1    4    4    0    0  0.18126189369E+03 -0.83402280533E+02  0.44679556616E+03  0.48932411799E+03  0.00000000000E+00 0.  1.
         14    1    4    4    0    0  0.23776792730E+02 -0.49288128263E+02  0.13264924117E+03  0.14349382093E+03  0.00000000000E+00 0. -1.
        -11    1    3    3    0    0 -0.79876762102E+01  0.47813023893E+02  0.15844036015E+03  0.16569018060E+03  0.00000000000E+00 0. -1.
         11    1    3    3    0    0  0.23428259489E+02  0.17473730105E+02  0.11587732239E+01  0.29249911826E+02  0.00000000000E+00 0.  1.
         21    1    1    2  503  501  0.13895695466E+01  0.46637543903E+02  0.27011956430E+03  0.27411962794E+03  0.00000000000E+00 0.  1.
         -2    1    1    2    0  502 -0.22186883925E+03  0.20766110895E+02  0.13943363882E+03  0.26286641632E+03  0.00000000000E+00 0.  1.
<scales pt_clust_5="13000.00000" pt_clust_6="13000.00000" pt_clust_7="13000.00000" pt_clust_8="13000.00000" pt_clust_9="46.65824" pt_clust_10="223.04655"></scales>
<clustering>
<clus scale="   46.658">  1  9  2 -1</clus>
<clus scale="   71.096">  5  6 -1 -1</clus>
<clus scale="   89.605">  7  8 -1 -1</clus>
<clus scale="  117.066">  1  7  2 -1</clus>
<clus scale="  223.047">  2 10  1 -1</clus>
<clus scale="  223.047">  2  5  1 -1</clus>
</clustering>
</event>
<event>
10    4  0.5389768E-005  0.2892747E+03  0.7546771E-02  0.1138692E+00
          2   -1    0    0  503    0 -0.00000000000E+00  0.00000000000E+00  0.26138899708E+04  0.26138899708E+04  0.00000000000E+00 0. -1.
         21   -1    0    0  501  502  0.00000000000E+00 -0.00000000000E+00 -0.49475823544E+02  0.49475823544E+02  0.00000000000E+00 0. -1.
         24    2    1    2    0    0  0.16074864464E+02  0.17465496251E+02  0.58109774411E+03  0.58698318138E+03  0.79443201011E+02 0.  0.
         23    2    1    2    0    0  0.13470828888E+03 -0.23911342347E+03  0.82734021151E+03  0.87659388142E+03  0.92754811103E+02 0.  0.
        -11    1    3    3    0    0 -0.61510729500E+01  0.44964179095E+02  0.25849818074E+03  0.26245175279E+03  0.00000000000E+00 0.  1.
         12    1    3    3    0    0  0.22225937414E+02 -0.27498682844E+02  0.32259956338E+03  0.32453142859E+03  0.00000000000E+00 0. -1.
        -11    1    4    4    0    0  0.40216314039E+02 -0.35513859069E+02  0.80405255001E+02  0.96662252884E+02  0.00000000000E+00 0.  1.
         11    1    4    4    0    0  0.94491974844E+02 -0.20359956440E+03  0.74693495651E+03  0.77993162854E+03  0.00000000000E+00 0. -1.
         21    1    1    2  503  502  0.37174152425E+02  0.17610161959E+02  0.20923619230E+03  0.21324122393E+03  0.00000000000E+00 0. -1.
          1    1    1    2  501    0 -0.18795730577E+03  0.20403776526E+03  0.94673999930E+03  0.98654750759E+03  0.00000000000E+00 0. -1.
<scales pt_clust_5="13000.00000" pt_clust_6="13000.00000" pt_clust_7="13000.00000" pt_clust_8="13000.00000" pt_clust_9="41.13436" pt_clust_10="274.00090"></scales>
<clustering>
<clus scale="   41.134">  1  9  2 -1</clus>
<clus scale="   79.443">  5  6 -1 -1</clus>
<clus scale="   86.109">  1  5  2 -1</clus>
<clus scale="   92.755">  7  8 -1 -1</clus>
<clus scale="  274.001">  2 10  1 -1</clus>
<clus scale="  274.001">  2  5  1 -1</clus>
</clustering>
</event>
<event>
10    4  0.5389768E-005  0.1466195E+03  0.7546771E-02  0.1206675E+00
          2   -1    0    0  503    0 -0.00000000000E+00  0.00000000000E+00  0.10064084191E+03  0.10064084191E+03  0.00000000000E+00 0. -1.
         21   -1    0    0  501  502  0.00000000000E+00 -0.00000000000E+00 -0.63134597178E+03  0.63134597178E+03  0.00000000000E+00 0. -1.
         24    2    1    2    0    0  0.94842672790E+02 -0.85471934416E+02 -0.11642738433E+03  0.19035290106E+03  0.79864303444E+02 0.  0.
         23    2    1    2    0    0 -0.97280511837E+02  0.16049534965E+02 -0.35503863580E+03  0.37935697693E+03  0.90211958659E+02 0.  0.
        -13    1    3    3    0    0  0.34162398712E+02  0.61769027437E+01 -0.53268967396E+02  0.63583067720E+02  0.00000000000E+00 0.  1.
         14    1    3    3    0    0  0.60680274078E+02 -0.91648837160E+02 -0.63158416931E+02  0.12676983334E+03  0.00000000000E+00 0. -1.
        -13    1    4    4    0    0 -0.31537006078E+02  0.77953460772E-02 -0.19536452563E+02  0.37097921665E+02  0.00000000000E+00 0.  1.
         13    1    4    4    0    0 -0.65743505759E+02  0.16041739619E+02 -0.33550218323E+03  0.34225905527E+03  0.00000000000E+00 0. -1.
         21    1    1    2  503  502 -0.33925960959E+02 -0.13020406001E+02 -0.62294687715E+02  0.72118859648E+02  0.00000000000E+00 0.  1.
          1    1    1    2  501    0  0.36363800007E+02  0.82442805452E+02  0.30555779703E+01  0.90158076058E+02  0.00000000000E+00 0. -1.
<scales pt_clust_5="13000.00000" pt_clust_6="13000.00000" pt_clust_7="13000.00000" pt_clust_8="13000.00000" pt_clust_9="36.33871" pt_clust_10="88.15216"></scales>
<clustering>
<clus scale="   36.339">  2  9  1 -1</clus>
<clus scale="   79.864">  5  6 -1 -1</clus>
<clus scale="   88.152">  2 10  1 -1</clus>
<clus scale="   90.212">  7  8 -1 -1</clus>
<clus scale="  140.490">  1  5  2 -1</clus>
<clus scale="   36.339">  2  5  1 -1</clus>
</clustering>
</event>
<event>
10    4  0.5389768E-005  0.1455634E+03  0.7546771E-02  0.1208620E+00
          2   -1    0    0  503    0 -0.00000000000E+00  0.00000000000E+00  0.51868253134E+03  0.51868253134E+03  0.00000000000E+00 0. -1.
         21   -1    0    0  501  502  0.00000000000E+00 -0.00000000000E+00 -0.10664547957E+03  0.10664547957E+03  0.00000000000E+00 0.  1.
         24    2    1    2    0    0 -0.89819787553E+02  0.49601354914E+02  0.29671218264E+03  0.32377418535E+03  0.79143636073E+02 0.  0.
         23    2    1    2    0    0  0.12514188270E+03 -0.81515653768E+02  0.10898037119E+03  0.20656987410E+03  0.92136306460E+02 0.  0.
        -13    1    3    3    0    0 -0.52780401000E+02  0.48103683623E+02  0.95894483774E+02  0.11956373667E+03  0.00000000000E+00 0.  1.
         14    1    3    3    0    0 -0.37039386553E+02  0.14976712903E+01  0.20081769886E+03  0.20421044869E+03  0.00000000000E+00 0. -1.
        -11    1    4    4    0    0  0.98030430494E+02 -0.19195666894E+02  0.93594563988E+02  0.13688820745E+03  0.00000000000E+00 0. -1.
         11    1    4    4    0    0  0.27111452202E+02 -0.62319986874E+02  0.15385807203E+02  0.69681666655E+02  0.00000000000E+00 0.  1.
         21    1    1    2  503  502 -0.43261811141E+02  0.89127890297E+01  0.35743547930E+02  0.56820976145E+02  0.00000000000E+00 0.  1.
          1    1    1    2  501    0  0.79397159978E+01  0.23001509825E+02 -0.29399049981E+02  0.38162975305E+02  0.00000000000E+00 0. -1.
<scales pt_clust_5="13000.00000" pt_clust_6="13000.00000" pt_clust_7="13000.00000" pt_clust_8="13000.00000" pt_clust_9="43.85602" pt_clust_10="24.33328"></scales>
<clustering>
<clus scale="   24.333">  2 10  1 -1</clus>
<clus scale="   43.856">  2  9  1 -1</clus>
<clus scale="   79.144">  5  6 -1 -1</clus>
<clus scale="   92.136">  7  8 -1 -1</clus>
<clus scale="  137.707">  1  5  2 -1</clus>
<clus scale="   24.333">  2  5  1 -1</clus>
</clustering>
</event>
<event>
10    4  0.5389768E-005  0.7596953E+03  0.7546771E-02  0.9920638E-01
         21   -1    0    0  501  502  0.00000000000E+00  0.00000000000E+00  0.94265739864E+03  0.94265739864E+03  0.00000000000E+00 0. -1.
          2   -1    0    0  503    0 -0.00000000000E+00 -0.00000000000E+00 -0.10215427436E+04  0.10215427436E+04  0.00000000000E+00 0. -1.
         23    2    1    2    0    0  0.23890789268E+03  0.89514656455E+02  0.24155102247E+02  0.27512316254E+03  0.10009710634E+03 0.  0.
         24    2    1    2    0    0 -0.36681957904E+02  0.65948496945E+03 -0.81696621314E+02  0.67087985844E+03  0.84495299025E+02 0.  0.
        -13    1    4    4    0    0 -0.46191470540E+01  0.13717009876E+03 -0.51903886906E+02  0.14673440629E+03  0.00000000000E+00 0.  1.
         14    1    4    4    0    0 -0.32062810850E+02  0.52231487070E+03 -0.29792734408E+02  0.52414545216E+03  0.00000000000E+00 0. -1.
        -11    1    3    3    0    0  0.14916366397E+03  0.19506723939E+02  0.49775290452E+02  0.15845469531E+03  0.00000000000E+00 0.  1.
         11    1    3    3    0    0  0.89744228710E+02  0.70007932515E+02 -0.25620188205E+02  0.11666846723E+03  0.00000000000E+00 0. -1.
         21    1    1    2  503  502  0.23104893840E+02  0.96481581008E+02 -0.98508127447E+02  0.13980837874E+03  0.00000000000E+00 0. -1.
          1    1    1    2  501    0 -0.22533082861E+03 -0.84548120692E+03  0.77164301540E+02  0.87838874253E+03  0.00000000000E+00 0. -1.
<scales pt_clust_5="13000.00000" pt_clust_6="13000.00000" pt_clust_7="13000.00000" pt_clust_8="13000.00000" pt_clust_9="99.20953" pt_clust_10="754.98213"></scales>
<clustering>
<clus scale="   84.495">  5  6 -1 -1</clus>
<clus scale="   99.210">  2  9  1 -1</clus>
<clus scale="  100.097">  7  8 -1 -1</clus>
<clus scale="  281.490">  2  7  1 -1</clus>
<clus scale="  754.982">  1 10  2 -1</clus>
<clus scale="  754.982">  1  5  2 -1</clus>
</clustering>
</event>
<event>
10    4  0.5389768E-005  0.9765406E+02  0.7546771E-02  0.1292370E+00
         21   -1    0    0  501  502  0.00000000000E+00  0.00000000000E+00  0.13563412630E+03  0.13563412630E+03  0.00000000000E+00 0.  1.
          2   -1    0    0  503    0 -0.00000000000E+00 -0.00000000000E+00 -0.32158100450E+03  0.32158100450E+03  0.00000000000E+00 0. -1.
         24    2    1    2    0    0  0.53900253936E+00 -0.21423066125E+02 -0.23649704808E+03  0.25059813030E+03  0.80058296704E+02 0.  0.
         23    2    1    2    0    0 -0.14327080772E+02 -0.23950752875E+01  0.56749943445E+02  0.10982251804E+03  0.92894713302E+02 0.  0.
        -11    1    3    3    0    0 -0.38904713466E+02 -0.25476208361E+01 -0.11930158843E+03  0.12551070116E+03  0.00000000000E+00 0.  1.
         12    1    3    3    0    0  0.39443716005E+02 -0.18875445289E+02 -0.11719545965E+03  0.12508742914E+03  0.00000000000E+00 0. -1.
        -11    1    4    4    0    0  0.16649465885E+02 -0.35510766044E+02  0.27610181702E+01  0.39317202859E+02  0.00000000000E+00 0. -1.
         11    1    4    4    0    0 -0.30976546657E+02  0.33115690756E+02  0.53988925275E+02  0.70505315186E+02  0.00000000000E+00 0.  1.
         21    1    1    2  503  502  0.22794577732E+02 -0.52718629005E+01 -0.43045767092E+02  0.48993095197E+02  0.00000000000E+00 0.  1.
          1    1    1    2  501    0 -0.90064994993E+01  0.29090004313E+02  0.36845993539E+02  0.47801387260E+02  0.00000000000E+00 0. -1.
<scales pt_clust_5="13000.00000" pt_clust_6="13000.00000" pt_clust_7="13000.00000" pt_clust_8="13000.00000" pt_clust_9="23.39627" pt_clust_10="30.22090"></scales>
<clustering>
<clus scale="   23.396">  2  9  1 -1</clus>
<clus scale="   30.221">  1 10  2 -1</clus>
<clus scale="   80.058">  5  6 -1 -1</clus>
<clus scale="   85.535">  2  5  1 -1</clus>
<clus scale="   92.895">  7  8 -1 -1</clus>
<clus scale="   30.221">  1  5  2 -1</clus>
</clustering>
</event>
<event>
10    4  0.5389768E-005  0.1098631E+03  0.7546771E-02  0.1265962E+00
         21   -1    0    0  501  502  0.00000000000E+00  0.00000000000E+00  0.71762431141E+02  0.71762431141E+02  0.00000000000E+00 0. -1.
          2   -1    0    0  503    0 -0.00000000000E+00 -0.00000000000E+00 -0.80950220429E+03  0.80950220429E+03  0.00000000000E+00 0. -1.
         24    2    1    2    0    0  0.29289361013E+02 -0.35215398478E+02 -0.24473267164E+03  0.26135515939E+03  0.79463499880E+02 0.  0.
         23    2    1    2    0    0 -0.82440323871E+02 -0.24492483073E+02 -0.14592503748E+03  0.19287676528E+03  0.92255304958E+02 0.  0.
        -11    1    3    3    0    0 -0.27099897754E+02 -0.14348514892E+02 -0.10102617197E+03  0.10557732598E+03  0.00000000000E+00 0.  1.
         12    1    3    3    0    0  0.56389258767E+02 -0.20866883586E+02 -0.14370649967E+03  0.15577783341E+03  0.00000000000E+00 0. -1.
        -13    1    4    4    0    0  0.16283579081E+02  0.11722221873E+02 -0.32594953481E+02  0.38275271727E+02  0.00000000000E+00 0. -1.
         13    1    4    4    0    0 -0.98723902952E+02 -0.36214704946E+02 -0.11333008400E+03  0.15460149355E+03  0.00000000000E+00 0.  1.
         21    1    1    2  503  502  0.44929042276E+02  0.80270062868E+02 -0.37798328069E+03  0.38901576101E+03  0.00000000000E+00 0. -1.
          1    1    1    2  501    0  0.82219205826E+01 -0.20562181317E+02  0.30901216653E+02  0.38016949762E+02  0.00000000000E+00 0. -1.
<scales pt_clust_5="13000.00000" pt_clust_6="13000.00000" pt_clust_7="13000.00000" pt_clust_8="13000.00000" pt_clust_9="89.96517" pt_clust_10="22.14505"></scales>
<clustering>
<clus scale="   22.145">  1 10  2 -1</clus>
<clus scale="   79.463">  5  6 -1 -1</clus>
<clus scale="   89.965">  2  9  1 -1</clus>
<clus scale="   92.255">  7  8 -1 -1</clus>
<clus scale="   99.365">  2  5  1 -1</clus>
<clus scale="   22.145">  1  5  2 -1</clus>
</clustering>
</event>
<event>
10    4  0.5389768E-005  0.2133949E+03  0.7546771E-02  0.1145391E+00
          2   -1    0    0  503    0 -0.00000000000E+00  0.00000000000E+00  0.59871516695E+03  0.59871516695E+03  0.00000000000E+00 0. -1.
         21   -1    0    0  501  502  0.00000000000E+00 -0.00000000000E+00 -0.25111694409E+03  0.25111694409E+03  0.00000000000E+00 0. -1.
         23    2    1    2    0    0  0.83094477017E+02  0.12760669128E+03  0.82025306183E+02  0.19576991554E+03  0.91703594302E+02 0.  0.
         24    2    1    2    0    0 -0.16747539824E+03  0.91623325079E+02 -0.29005013959E+02  0.21002473312E+03  0.82621153306E+02 0.  0.
        -13    1    4    4    0    0 -0.19608885942E+02  0.25553946574E+02 -0.35504875963E+02  0.47938594165E+02  0.00000000000E+00 0.  1.
         14    1    4    4    0    0 -0.14786651230E+03  0.66069378505E+02  0.64998620047E+01  0.16208613896E+03  0.00000000000E+00 0. -1.
        -11    1    3    3    0    0 -0.67796235581E+01  0.21122417131E+02 -0.14282972882E+02  0.26384145152E+02  0.00000000000E+00 0.  1.
         11    1    3    3    0    0  0.89874100575E+02  0.10648427415E+03  0.96308279065E+02  0.16938577039E+03  0.00000000000E+00 0. -1.
         21    1    1    2  503  502  0.57563454602E+00  0.21171273674E+02  0.14953964798E+03  0.15103198503E+03  0.00000000000E+00 0. -1.
          1    1    1    2  501    0  0.83805286679E+02 -0.24040129003E+03  0.14503828266E+03  0.29300547735E+03  0.00000000000E+00 0. -1.
<scales pt_clust_5="13000.00000" pt_clust_6="13000.00000" pt_clust_7="13000.00000" pt_clust_8="13000.00000" pt_clust_9="21.17910" pt_clust_10="196.75151"></scales>
<clustering>
<clus scale="   21.179">  1  9  2 -1</clus>
<clus scale="   82.621">  5  6 -1 -1</clus>
<clus scale="   91.704">  7  8 -1 -1</clus>
<clus scale="  182.603">  1  7  2 -1</clus>
<clus scale="  196.752">  2 10  1 -1</clus>
<clus scale="  196.752">  2  5  1 -1</clus>
</clustering>
</event>
<event>
10    4  0.5389768E-005  0.1408580E+03  0.7546771E-02  0.1220462E+00
          2   -1    0    0  503    0 -0.00000000000E+00  0.00000000000E+00  0.11745592560E+04  0.11745592560E+04  0.00000000000E+00 0. -1.
         21   -1    0    0  501  502  0.00000000000E+00 -0.00000000000E+00 -0.54664179513E+02  0.54664179513E+02  0.00000000000E+00 0.  1.
         23    2    1    2    0    0  0.83222074000E+02 -0.64092244572E+02  0.50345848636E+03  0.52206936752E+03  0.89734316769E+02 0.  0.
         24    2    1    2    0    0  0.37313370505E+02  0.10951552025E+03  0.14452284309E+03  0.20163613791E+03  0.79902084727E+02 0.  0.
        -11    1    4    4    0    0  0.56069200963E+02  0.45945172415E+02  0.59179318918E+02  0.93578341257E+02  0.00000000000E+00 0.  1.
         12    1    4    4    0    0 -0.18755830458E+02  0.63570347835E+02  0.85343524171E+02  0.10805779666E+03  0.00000000000E+00 0. -1.
        -11    1    3    3    0    0  0.40104437481E+02 -0.10773304013E+01  0.60598380420E+02  0.72675238259E+02  0.00000000000E+00 0.  1.
         11    1    3    3    0    0  0.43117636520E+02 -0.63014914171E+02  0.44286010594E+03  0.44939412926E+03  0.00000000000E+00 0. -1.
         21    1    1    2  503  502 -0.35955827386E+02  0.44766157754E+02  0.16006481079E+03  0.17005168054E+03  0.00000000000E+00 0.  1.
          1    1    1    2  501    0 -0.84579617119E+02 -0.90189433431E+02  0.31184893627E+03  0.33546624955E+03  0.00000000000E+00 0. -1.
<scales pt_clust_5="13000.00000" pt_clust_6="13000.00000" pt_clust_7="13000.00000" pt_clust_8="13000.00000" pt_clust_9="57.41803" pt_clust_10="116.00277"></scales>
<clustering>
<clus scale="   57.418">  1  9  2 -1</clus>
<clus scale="   79.902">  5  6 -1 -1</clus>
<clus scale="   89.734">  7  8 -1 -1</clus>
<clus scale="  118.246">  1  7  2 -1</clus>
<clus scale="  116.003">  2 10  1 -1</clus>
<clus scale="  116.003">  2  5  1 -1</clus>
</clustering>
</event>
<event>
10    4  0.5389768E-005  0.1289232E+03  0.7546771E-02  0.1231612E+00
         21   -1    0    0  501  502  0.00000000000E+00  0.00000000000E+00  0.14737447063E+03  0.14737447063E+03  0.00000000000E+00 0.  1.
          2   -1    0    0  503    0 -0.00000000000E+00 -0.00000000000E+00 -0.23674455815E+03  0.23674455815E+03  0.00000000000E+00 0. -1.
         24    2    1    2    0    0  0.67815506881E+02  0.79150633534E+02 -0.14711819363E+03  0.19749613730E+03  0.80605183386E+02 0.  0.
         23    2    1    2    0    0 -0.37399086375E+02 -0.38811770793E+02  0.43472761627E+02  0.11380740435E+03  0.90317213567E+02 0.  0.
        -13    1    3    3    0    0  0.45939879513E+02  0.19414697820E+02 -0.11684679434E+03  0.12704556808E+03  0.00000000000E+00 0.  1.
         14    1    3    3    0    0  0.21875627368E+02  0.59735935714E+02 -0.30271399291E+02  0.70450569219E+02  0.00000000000E+00 0. -1.
        -11    1    4    4    0    0 -0.34036765686E+01 -0.46516598796E+02 -0.12120277768E+02  0.48190041615E+02  0.00000000000E+00 0.  1.
         11    1    4    4    0    0 -0.33995409807E+02  0.77048280023E+01  0.55593039395E+02  0.65617362730E+02  0.00000000000E+00 0. -1.
         21    1    1    2  503  502 -0.43604011046E+01 -0.42632931690E+02 -0.33132919804E+00  0.42856618407E+02  0.00000000000E+00 0.  1.
          1    1    1    2  501    0 -0.26056019401E+02  0.22940689498E+01  0.14606673689E+02  0.29958868731E+02  0.00000000000E+00 0. -1.
<scales pt_clust_5="13000.00000" pt_clust_6="13000.00000" pt_clust_7="13000.00000" pt_clust_8="13000.00000" pt_clust_9="43.14768" pt_clust_10="26.15681"></scales>
<clustering>
<clus scale="   26.157">  1 10  2 -1</clus>
<clus scale="   43.148">  1  9  2 -1</clus>
<clus scale="   80.605">  5  6 -1 -1</clus>
<clus scale="   90.317">  7  8 -1 -1</clus>
<clus scale="  122.316">  2  5  1 -1</clus>
<clus scale="   26.157">  1  5  2 -1</clus>
</clustering>
</event>
<event>
10    4  0.5389768E-005  0.1201195E+03  0.7546771E-02  0.1250920E+00
          2   -1    0    0  503    0 -0.00000000000E+00  0.00000000000E+00  0.50067717605E+03  0.50067717605E+03  0.00000000000E+00 0. -1.
         21   -1    0    0  501  502  0.00000000000E+00 -0.00000000000E+00 -0.89891353321E+02  0.89891353321E+02  0.00000000000E+00 0.  1.
         23    2    1    2    0    0 -0.57087837912E+02  0.41358602143E+02  0.28232858162E+03  0.30865128787E+03  0.10289137135E+03 0.  0.
         24    2    1    2    0    0  0.70222189543E+02 -0.43460915814E+02  0.11870132108E+02  0.11650905066E+03  0.81323131650E+02 0.  0.
        -13    1    4    4    0    0  0.69597318378E+02  0.25054594116E+01  0.31142056852E+01  0.69711995592E+02  0.00000000000E+00 0.  1.
         14    1    4    4    0    0  0.62487116471E+00 -0.45966375226E+02  0.87559264230E+01  0.46797055066E+02  0.00000000000E+00 0. -1.
        -13    1    3    3    0    0 -0.12856149636E+02 -0.18646034393E+02  0.74475861428E+01  0.23841596453E+02  0.00000000000E+00 0.  1.
         13    1    3    3    0    0 -0.44231688275E+02  0.60004636536E+02  0.27488099548E+03  0.28480969142E+03  0.00000000000E+00 0. -1.
         21    1    1    2  503  502  0.25111135085E+02  0.23049040227E+01  0.12392502977E+03  0.12646459857E+03  0.00000000000E+00 0.  1.
          1    1    1    2  501    0 -0.38245486716E+02 -0.20259035184E+00 -0.73379207762E+01  0.38943592263E+02  0.00000000000E+00 0. -1.
<scales pt_clust_5="13000.00000" pt_clust_6="13000.00000" pt_clust_7="13000.00000" pt_clust_8="13000.00000" pt_clust_9="25.21669" pt_clust_10="37.18879"></scales>
<clustering>
<clus scale="   25.217">  1  9  2 -1</clus>
<clus scale="   37.189">  2 10  1 -1</clus>
<clus scale="   81.323">  5  6 -1 -1</clus>
<clus scale="  102.252">  2  5  1 -1</clus>
<clus scale="  102.891">  7  8 -1 -1</clus>
<clus scale="   37.189">  2  5  1 -1</clus>
</clustering>
</event>
<event>
10    4  0.5389768E-005  0.1051800E+03  0.7546771E-02  0.1283431E+00
         21   -1    0    0  501  502  0.00000000000E+00  0.00000000000E+00  0.92787836959E+02  0.92787836959E+02  0.00000000000E+00 0. -1.
          2   -1    0    0  503    0 -0.00000000000E+00 -0.00000000000E+00 -0.47836231272E+03  0.47836231272E+03  0.00000000000E+00 0. -1.
         24    2    1    2    0    0  0.18562545826E+02  0.32045705307E+02 -0.34852226225E+03  0.35933610069E+03  0.79266453414E+02 0.  0.
         23    2    1    2    0    0  0.10875859969E+02 -0.96633596437E+01 -0.18827977899E+02  0.10655826862E+03  0.10386773806E+03 0.  0.
        -13    1    3    3    0    0 -0.26643876674E+02 -0.30863180871E+01 -0.69405612821E+02  0.74408068209E+02  0.00000000000E+00 0.  1.
         14    1    3    3    0    0  0.45206422500E+02  0.35132023394E+02 -0.27911664943E+03  0.28492803248E+03  0.00000000000E+00 0. -1.
        -13    1    4    4    0    0  0.51499490061E+02 -0.91712434615E+01 -0.34883433786E+02  0.62874184972E+02  0.00000000000E+00 0. -1.
         13    1    4    4    0    0 -0.40623630092E+02 -0.49211618218E+00  0.16055455887E+02  0.43684083645E+02  0.00000000000E+00 0.  1.
         21    1    1    2  503  502 -0.16358631724E+01 -0.26820320946E+02 -0.53651162007E+02  0.60003773620E+02  0.00000000000E+00 0.  1.
          1    1    1    2  501    0 -0.27802542622E+02  0.44379752826E+01  0.35426926399E+02  0.45252006751E+02  0.00000000000E+00 0. -1.
<scales pt_clust_5="13000.00000" pt_clust_6="13000.00000" pt_clust_7="13000.00000" pt_clust_8="13000.00000" pt_clust_9="26.87016" pt_clust_10="28.12580"></scales>
<clustering>
<clus scale="   26.870">  2  9  1 -1</clus>
<clus scale="   28.126">  1 10  2 -1</clus>
<clus scale="   79.266">  5  6 -1 -1</clus>
<clus scale="   80.978">  2  5  1 -1</clus>
<clus scale="  103.868">  7  8 -1 -1</clus>
<clus scale="   28.126">  1  5  2 -1</clus>
</clustering>
</event>
<event>
10    4  0.5389768E-005  0.1526241E+03  0.7546771E-02  0.1198973E+00
          2   -1    0    0  503    0 -0.00000000000E+00  0.00000000000E+00  0.45467775075E+03  0.45467775075E+03  0.00000000000E+00 0. -1.
         21   -1    0    0  501  502  0.00000000000E+00 -0.00000000000E+00 -0.52692627642E+03  0.52692627642E+03  0.00000000000E+00 0.  1.
         23    2    1    2    0    0 -0.10715975521E+03 -0.46973488699E+02 -0.21865104437E+03  0.26422312452E+03  0.91191329354E+02 0.  0.
         24    2    1    2    0    0  0.62084052894E+02  0.13446472614E+03 -0.19293448653E+03  0.25655883762E+03  0.81630440832E+02 0.  0.
        -11    1    4    4    0    0  0.15927490419E+02  0.76364383754E+02 -0.42535234050E+02  0.88850718584E+02  0.00000000000E+00 0.  1.
         12    1    4    4    0    0  0.46156562475E+02  0.58100342383E+02 -0.15039925248E+03  0.16770811904E+03  0.00000000000E+00 0. -1.
        -13    1    3    3    0    0 -0.69680391257E+02 -0.31936979115E+02 -0.20912747415E+03  0.22273218897E+03  0.00000000000E+00 0.  1.
         13    1    3    3    0    0 -0.37479363949E+02 -0.15036509584E+02 -0.95235702188E+01  0.41490935543E+02  0.00000000000E+00 0. -1.
         21    1    1    2  503  502  0.11286014469E+03  0.20131661923E+01  0.32928808825E+03  0.34809784567E+03  0.00000000000E+00 0. -1.
          1    1    1    2  501    0 -0.67784442373E+02 -0.89504403630E+02  0.10048916987E+02  0.11272421936E+03  0.00000000000E+00 0. -1.
<scales pt_clust_5="13000.00000" pt_clust_6="13000.00000" pt_clust_7="13000.00000" pt_clust_8="13000.00000" pt_clust_9="111.51996" pt_clust_10="112.27547"></scales>
<clustering>
<clus scale="   81.630">  5  6 -1 -1</clus>
<clus scale="   91.191">  7  8 -1 -1</clus>
<clus scale="  112.275">  2 10  1 -1</clus>
<clus scale="  111.520">  1  9  2 -1</clus>
<clus scale="  147.112">  2  5  1 -1</clus>
<clus scale="  112.275">  2  5  1 -1</clus>
</clustering>
</event>
<event>
10    4  0.5389768E-005  0.1010824E+03  0.7546771E-02  0.1289793E+00
         21   -1    0    0  503  502  0.00000000000E+00  0.00000000000E+00  0.28544334847E+03  0.28544334847E+03  0.00000000000E+00 0.  1.
         -3   -1    0    0    0  501 -0.00000000000E+00 -0.00000000000E+00 -0.11160524632E+03  0.11160524632E+03  0.00000000000E+00 0.  1.
         24    2    1    2    0    0  0.23116790870E+02 -0.12703279803E+02  0.10211693130E+01  0.84873194568E+02  0.80663852075E+02 0.  0.
         23    2    1    2    0    0  0.44314364886E+02 -0.23479806670E+02  0.16275072600E+03  0.19793317812E+03  0.10086961847E+03 0.  0.
        -11    1    3    3    0    0 -0.60112208801E+01 -0.37630594929E+02 -0.17920524513E+02  0.42111063273E+02  0.00000000000E+00 0.  1.
         12    1    3    3    0    0  0.29128011750E+02  0.24927315126E+02  0.18941693826E+02  0.42762131295E+02  0.00000000000E+00 0. -1.
        -13    1    4    4    0    0  0.46134044771E+02 -0.54863741644E+02  0.14519718457E+03  0.16192776983E+03  0.00000000000E+00 0.  1.
         13    1    4    4    0    0 -0.18196798855E+01  0.31383934974E+02  0.17553541430E+02  0.36005408289E+02  0.00000000000E+00 0. -1.
         21    1    1    2  503  501 -0.22196031965E+02 -0.24149086088E+01 -0.33687989575E+02  0.40415049922E+02  0.00000000000E+00 0.  1.
         -4    1    1    2    0  502 -0.45235123790E+02  0.38597995082E+02  0.43754196404E+02  0.73827172176E+02  0.00000000000E+00 0.  1.
<scales pt_clust_5="13000.00000" pt_clust_6="13000.00000" pt_clust_7="13000.00000" pt_clust_8="13000.00000" pt_clust_9="22.32702" pt_clust_10="62.63947"></scales>
<clustering>
<clus scale="   22.327">  2  9  1 -1</clus>
<clus scale="   62.639">  1 10  2 -1</clus>
<clus scale="   80.664">  5  6 -1 -1</clus>
<clus scale="   80.930">  2  5  1 -1</clus>
<clus scale="  100.870">  7  8 -1 -1</clus>
<clus scale="   62.639">  1  5  2 -1</clus>
</clustering>
</event>
<event>
10    4  0.5389768E-005  0.9258272E+02  0.7546771E-02  0.1304316E+00
          2   -1    0    0  503    0 -0.00000000000E+00  0.00000000000E+00  0.48928255012E+03  0.48928255012E+03  0.00000000000E+00 0. -1.
         21   -1    0    0  501  502  0.00000000000E+00 -0.00000000000E+00 -0.46921540739E+02  0.46921540739E+02  0.00000000000E+00 0.  1.
         24    2    1    2    0    0 -0.26599110337E+01  0.10906902269E+02  0.30802081530E+03  0.31803967784E+03  0.78398841698E+02 0.  0.
         23    2    1    2    0    0  0.18309944077E+02 -0.42645721542E+02  0.10993878540E+03  0.14993450230E+03  0.90773932522E+02 0.  0.
        -11    1    3    3    0    0  0.57719028169E+01 -0.31931533332E+02  0.89522026933E+02  0.95221483864E+02  0.00000000000E+00 0.  1.
         12    1    3    3    0    0 -0.84318138507E+01  0.42838435600E+02  0.21849878837E+03  0.22281819398E+03  0.00000000000E+00 0. -1.
        -13    1    4    4    0    0 -0.10029196449E+02  0.21226865382E+02  0.52328317592E+01  0.24053006539E+02  0.00000000000E+00 0. -1.
         13    1    4    4    0    0  0.28339140526E+02 -0.63872586924E+02  0.10470595364E+03  0.12588149576E+03  0.00000000000E+00 0.  1.
         21    1    1    2  503  502 -0.25056493282E+02  0.66388667173E+01  0.31213493830E+02  0.40573200563E+02  0.00000000000E+00 0. -1.
          1    1    1    2  501    0  0.94064602389E+01  0.25099952557E+02 -0.68120851505E+01  0.27656710156E+02  0.00000000000E+00 0. -1.
<scales pt_clust_5="13000.00000" pt_clust_6="13000.00000" pt_clust_7="13000.00000" pt_clust_8="13000.00000" pt_clust_9="25.92108" pt_clust_10="27.82056"></scales>
<clustering>
<clus scale="   25.921">  2  9  1 -1</clus>
<clus scale="   27.821">  2 10  1 -1</clus>
<clus scale="   78.399">  5  6 -1 -1</clus>
<clus scale="   80.486">  1  5  2 -1</clus>
<clus scale="   90.774">  7  8 -1 -1</clus>
<clus scale="   25.921">  2  5  1 -1</clus>
</clustering>
</event>
<event>
10    4  0.5389768E-005  0.1071591E+03  0.7546771E-02  0.1271278E+00
          2   -1    0    0  503    0 -0.00000000000E+00  0.00000000000E+00  0.22661165639E+03  0.22661165639E+03  0.00000000000E+00 0. -1.
         21   -1    0    0  501  502  0.00000000000E+00 -0.00000000000E+00 -0.18278567421E+03  0.18278567421E+03  0.00000000000E+00 0.  1.
         23    2    1    2    0    0 -0.21606544369E+02  0.39116141848E+02  0.91422941633E+02  0.13796278991E+03  0.93159335708E+02 0.  0.
         24    2    1    2    0    0  0.75532486816E+02 -0.37014675289E+01 -0.90323910406E+02  0.14284015890E+03  0.80783938856E+02 0.  0.
        -13    1    4    4    0    0  0.55681835063E+02  0.33330934407E+02 -0.72206139610E+02  0.97083183620E+02  0.00000000000E+00 0.  1.
         14    1    4    4    0    0  0.19850651753E+02 -0.37032401936E+02 -0.18117770797E+02  0.45756975280E+02  0.00000000000E+00 0. -1.
        -11    1    3    3    0    0  0.19046082085E+02  0.98994324051E+01 -0.10881795222E+02  0.24065856976E+02  0.00000000000E+00 0.  1.
         11    1    3    3    0    0 -0.40652626454E+02  0.29216709443E+02  0.10230473685E+03  0.11389693293E+03  0.00000000000E+00 0. -1.
         21    1    1    2  503  502 -0.26618397816E+02 -0.16536776896E+02  0.75622996713E+02  0.81858669206E+02  0.00000000000E+00 0. -1.
          1    1    1    2  501    0 -0.27307544631E+02 -0.18877897424E+02 -0.32896045759E+02  0.46735712592E+02  0.00000000000E+00 0. -1.
<scales pt_clust_5="13000.00000" pt_clust_6="13000.00000" pt_clust_7="13000.00000" pt_clust_8="13000.00000" pt_clust_9="31.33694" pt_clust_10="34.66232"></scales>
<clustering>
<clus scale="   31.337">  1  9  2 -1</clus>
<clus scale="   34.662">  2 10  1 -1</clus>
<clus scale="   80.784">  5  6 -1 -1</clus>
<clus scale="   93.159">  7  8 -1 -1</clus>
<clus scale="   96.594">  2  5  1 -1</clus>
<clus scale="   34.662">  2  5  1 -1</clus>
</clustering>
</event>
<event>
10    4  0.5389768E-005  0.1644793E+03  0.7546771E-02  0.1193398E+00
         -1   -1    0    0    0  501 -0.00000000000E+00  0.00000000000E+00  0.92204754211E+03  0.92204754211E+03  0.00000000000E+00 0.  1.
         21   -1    0    0  501  502  0.00000000000E+00 -0.00000000000E+00 -0.98237383408E+02  0.98237383408E+02  0.00000000000E+00 0.  1.
         24    2    1    2    0    0 -0.26950097023E+02  0.96335205659E+02  0.13351143234E+03  0.18566460388E+03  0.81481672721E+02 0.  0.
         23    2    1    2    0    0  0.89285684519E+02 -0.76907477362E+02  0.19922638067E+03  0.24982468685E+03  0.93992179852E+02 0.  0.
        -11    1    3    3    0    0 -0.45767767999E+02  0.93008415246E+02  0.12994424154E+03  0.16622502761E+03  0.00000000000E+00 0.  1.
         12    1    3    3    0    0  0.18817670975E+02  0.33267904138E+01  0.35671908005E+01  0.19439576271E+02  0.00000000000E+00 0. -1.
        -13    1    4    4    0    0  0.31375389578E+02 -0.69075231394E+02  0.16620749333E+03  0.18270395043E+03  0.00000000000E+00 0.  1.
         13    1    4    4    0    0  0.57910294941E+02 -0.78322459685E+01  0.33018887335E+02  0.67120736423E+02  0.00000000000E+00 0. -1.
         21    1    1    2  503  502  0.10154068415E+03  0.19929731247E+02  0.54781932526E+02  0.11708443473E+03  0.00000000000E+00 0.  1.
         -2    1    1    2    0  503 -0.16387627165E+03 -0.39357459544E+02  0.43629041317E+03  0.46771120005E+03  0.00000000000E+00 0.  1.
<scales pt_clust_5="13000.00000" pt_clust_6="13000.00000" pt_clust_7="13000.00000" pt_clust_8="13000.00000" pt_clust_9="103.47804" pt_clust_10="134.97748"></scales>
<clustering>
<clus scale="   81.482">  5  6 -1 -1</clus>
<clus scale="   93.992">  7  8 -1 -1</clus>
<clus scale="  103.478">  2  9  1 -1</clus>
<clus scale="  132.774">  1  5  2 -1</clus>
<clus scale="  134.977">  2 10  1 -1</clus>
<clus scale="  103.478">  2  5  1 -1</clus>
</clustering>
</event>
<event>
10    4  0.5389768E-005  0.1203840E+03  0.7546771E-02  0.1255010E+00
          2   -1    0    0  503    0 -0.00000000000E+00  0.00000000000E+00  0.24571033445E+03  0.24571033445E+03  0.00000000000E+00 0. -1.
         21   -1    0    0  501  502  0.00000000000E+00 -0.00000000000E+00 -0.19647079658E+03  0.19647079658E+03  0.00000000000E+00 0.  1.
         24    2    1    2    0    0  0.67559504416E+02 -0.67120562575E+01  0.94505473905E+02  0.14143734462E+03  0.80398380084E+02 0.  0.
         23    2    1    2    0    0  0.27932575250E+02 -0.96115126706E+01 -0.11588775494E+03  0.16275460770E+03  0.11039239397E+03 0.  0.
        -13    1    3    3    0    0  0.12774271638E+02  0.34151430454E+02  0.39012151061E+02  0.53398971417E+02  0.00000000000E+00 0.  1.
         14    1    3    3    0    0  0.54785232779E+02 -0.40863486711E+02  0.55493322843E+02  0.88038373207E+02  0.00000000000E+00 0. -1.
        -11    1    4    4    0    0  0.59837433189E+01 -0.59386091980E+02 -0.55928655693E+02  0.81795645559E+02  0.00000000000E+00 0.  1.
         11    1    4    4    0    0  0.21948831931E+02  0.49774579310E+02 -0.59959099246E+02  0.80958962141E+02  0.00000000000E+00 0. -1.
         21    1    1    2  503  502 -0.12336527682E+02  0.24492153391E+02  0.41024195043E+02  0.49346125196E+02  0.00000000000E+00 0. -1.
          1    1    1    2  501    0 -0.83155551985E+02 -0.81685844625E+01  0.29597623857E+02  0.88643053513E+02  0.00000000000E+00 0. -1.
<scales pt_clust_5="13000.00000" pt_clust_6="13000.00000" pt_clust_7="13000.00000" pt_clust_8="13000.00000" pt_clust_9="27.42363" pt_clust_10="86.79792"></scales>
<clustering>
<clus scale="   27.424">  1  9  2 -1</clus>
<clus scale="   80.398">  5  6 -1 -1</clus>
<clus scale="   86.798">  2 10  1 -1</clus>
<clus scale="   93.647">  1  5  2 -1</clus>
<clus scale="  110.392">  7  8 -1 -1</clus>
<clus scale="   86.798">  2  5  1 -1</clus>
</clustering>
</event>
<event>
10    4  0.5389768E-005  0.1157194E+03  0.7546771E-02  0.1252588E+00
         21   -1    0    0  501  502  0.00000000000E+00  0.00000000000E+00  0.15778506334E+03  0.15778506334E+03  0.00000000000E+00 0.  1.
          2   -1    0    0  503    0 -0.00000000000E+00 -0.00000000000E+00 -0.28408291906E+03  0.28408291906E+03  0.00000000000E+00 0. -1.
         24    2    1    2    0    0 -0.48426321152E+02 -0.42200480179E+02 -0.47698759432E+02  0.11596868831E+03  0.83949841623E+02 0.  0.
         23    2    1    2    0    0  0.82286307898E+02  0.13096404709E+02  0.15595326426E+02  0.12403973735E+03  0.90554348051E+02 0.  0.
        -11    1    3    3    0    0 -0.62527585031E+02 -0.54993773693E+02 -0.49452736594E+02  0.96848268913E+02  0.00000000000E+00 0.  1.
         12    1    3    3    0    0  0.14101263878E+02  0.12793293515E+02  0.17539771619E+01  0.19120419394E+02  0.00000000000E+00 0. -1.
        -11    1    4    4    0    0  0.30913965379E+02 -0.37632037504E+02  0.17681642699E+02  0.51812006240E+02  0.00000000000E+00 0.  1.
         11    1    4    4    0    0  0.51372342520E+02  0.50728442212E+02 -0.20863162736E+01  0.72227731107E+02  0.00000000000E+00 0. -1.
         21    1    1    2  503  502 -0.46700613638E+02  0.81972911999E+02 -0.11027754653E+03  0.14512629977E+03  0.00000000000E+00 0.  1.
          1    1    1    2  501    0  0.12840626892E+02 -0.52868836529E+02  0.16083123820E+02  0.56733256972E+02  0.00000000000E+00 0. -1.
<scales pt_clust_5="13000.00000" pt_clust_6="13000.00000" pt_clust_7="13000.00000" pt_clust_8="13000.00000" pt_clust_9="86.86222" pt_clust_10="54.40584"></scales>
<clustering>
<clus scale="   54.406">  1 10  2 -1</clus>
<clus scale="   83.950">  5  6 -1 -1</clus>
<clus scale="   86.862">  2  9  1 -1</clus>
<clus scale="   90.554">  7  8 -1 -1</clus>
<clus scale="  110.628">  2  5  1 -1</clus>
<clus scale="   54.406">  1  5  2 -1</clus>
</clustering>
</event>
<event>
10    4  0.5389768E-005  0.3021078E+03  0.7546771E-02  0.1084192E+00
         21   -1    0    0  503  502  0.00000000000E+00  0.00000000000E+00  0.46071314686E+03  0.46071314686E+03  0.00000000000E+00 0.  1.
         -1   -1    0    0    0  501 -0.00000000000E+00 -0.00000000000E+00 -0.18344916036E+03  0.18344916036E+03  0.00000000000E+00 0.  1.
         24    2    1    2    0    0 -0.86739602339E+02  0.14985363963E+03  0.24604647349E+03  0.31159816778E+03  0.81084395040E+02 0.  0.
         23    2    1    2    0    0 -0.28311040583E+01  0.42896980872E+02  0.43213440329E+02  0.10869938817E+03  0.89999941358E+02 0.  0.
        -13    1    3    3    0    0 -0.67824422865E+02  0.10829174538E+03  0.11175033958E+03  0.16975097305E+03  0.00000000000E+00 0.  1.
         14    1    3    3    0    0 -0.18915179473E+02  0.41561894252E+02  0.13429613392E+03  0.14184719473E+03  0.00000000000E+00 0. -1.
        -13    1    4    4    0    0  0.32149112110E+02  0.51603609470E+02  0.39404000907E+02  0.72451178094E+02  0.00000000000E+00 0. -1.
         13    1    4    4    0    0 -0.34980216168E+02 -0.87066285972E+01  0.38094394222E+01  0.36248210072E+02  0.00000000000E+00 0.  1.
         21    1    1    2  503  501 -0.11563989317E+02 -0.17367684842E+02 -0.40543994105E+01  0.21255598798E+02  0.00000000000E+00 0.  1.
         -2    1    1    2    0  502  0.10113469571E+03 -0.17538293566E+03 -0.79415279101E+01  0.20260915247E+03  0.00000000000E+00 0.  1.
<scales pt_clust_5="13000.00000" pt_clust_6="13000.00000" pt_clust_7="13000.00000" pt_clust_8="13000.00000" pt_clust_9="20.86534" pt_clust_10="208.48531"></scales>
<clustering>
<clus scale="   20.865">  2  9  1 -1</clus>
<clus scale="   81.084">  5  6 -1 -1</clus>
<clus scale="   90.000">  7  8 -1 -1</clus>
<clus scale="   97.545">  5  7 -1 -1</clus>
<clus scale="  208.485">  1 10  2 -1</clus>
<clus scale="  208.485">  1  5  2 -1</clus>
</clustering>
</event>
<event>
10    4  0.5389768E-005  0.1081910E+03  0.7546771E-02  0.1268260E+00
         -1   -1    0    0    0  501 -0.00000000000E+00  0.00000000000E+00  0.13303327455E+03  0.13303327455E+03  0.00000000000E+00 0.  1.
         21   -1    0    0  503  502  0.00000000000E+00 -0.00000000000E+00 -0.14804867800E+03  0.14804867800E+03  0.00000000000E+00 0.  1.
         23    2    1    2    0    0  0.28696272357E+02  0.21896832199E+02  0.27541463366E+02  0.10124403721E+03  0.90492406085E+02 0.  0.
         24    2    1    2    0    0 -0.69117958172E+02 -0.46881807230E+02 -0.23113292357E+02  0.11786909762E+03  0.79898084459E+02 0.  0.
        -11    1    4    4    0    0 -0.57881400702E+02  0.51611667476E+01 -0.27804993691E+02  0.64420585712E+02  0.00000000000E+00 0.  1.
         12    1    4    4    0    0 -0.11236557470E+02 -0.52042973977E+02  0.46917013336E+01  0.53448511912E+02  0.00000000000E+00 0. -1.
        -13    1    3    3    0    0  0.16687493708E+02  0.57489281680E+02  0.16904895369E+02  0.62203419856E+02  0.00000000000E+00 0.  1.
         13    1    3    3    0    0  0.12008778649E+02 -0.35592449482E+02  0.10636567997E+02  0.39040617355E+02  0.00000000000E+00 0. -1.
         21    1    1    2  503  501  0.10769763852E+02  0.23585316915E+02  0.96385154474E+00  0.25945789586E+02  0.00000000000E+00 0. -1.
         -2    1    1    2    0  502  0.29651921962E+02  0.13996581159E+01 -0.20407426008E+02  0.36023028124E+02  0.00000000000E+00 0.  1.
<scales pt_clust_5="13000.00000" pt_clust_6="13000.00000" pt_clust_7="13000.00000" pt_clust_8="13000.00000" pt_clust_9="25.92788" pt_clust_10="30.49714"></scales>
<clustering>
<clus scale="   25.928">  1  9  2 -1</clus>
<clus scale="   30.497">  2 10  1 -1</clus>
<clus scale="   79.898">  5  6 -1 -1</clus>
<clus scale="   90.492">  7  8 -1 -1</clus>
<clus scale="   99.499">  2  5  1 -1</clus>
<clus scale="   30.497">  2  5  1 -1</clus>
</clustering>
</event>
<event>
10    4  0.5389768E-005  0.1370358E+03  0.7546771E-02  0.1241683E+00
          2   -1    0    0  503    0 -0.00000000000E+00  0.00000000000E+00  0.70371095891E+03  0.70371095891E+03  0.00000000000E+00 0. -1.
         21   -1    0    0  501  502  0.00000000000E+00 -0.00000000000E+00 -0.12551964785E+03  0.12551964785E+03  0.00000000000E+00 0. -1.
         24    2    1    2    0    0  0.12028439768E+02  0.22256921365E+02  0.95474203476E+02  0.12722362803E+03  0.80190236865E+02 0.  0.
         23    2    1    2    0    0 -0.59128453341E+02 -0.83891317510E+02 -0.54699380998E+02  0.14778414388E+03  0.91182255690E+02 0.  0.
        -13    1    3    3    0    0 -0.31165535892E+02  0.15338793582E+02  0.65670505348E+02  0.74291214075E+02  0.00000000000E+00 0.  1.
         14    1    3    3    0    0  0.43193975660E+02  0.69181277834E+01  0.29803698128E+02  0.52932413958E+02  0.00000000000E+00 0. -1.
        -13    1    4    4    0    0  0.99838384357E+01 -0.59980201878E+02 -0.41115494653E+02  0.73401536413E+02  0.00000000000E+00 0.  1.
         13    1    4    4    0    0 -0.69112291777E+02 -0.23911115632E+02 -0.13583886345E+02  0.74382607467E+02  0.00000000000E+00 0. -1.
         21    1    1    2  503  502  0.88398850935E+01 -0.32488274896E+02  0.12183429361E+03  0.12640105488E+03  0.00000000000E+00 0. -1.
          1    1    1    2  501    0  0.38260128479E+02  0.94122671040E+02  0.41558219497E+03  0.42782177996E+03  0.00000000000E+00 0. -1.
<scales pt_clust_5="13000.00000" pt_clust_6="13000.00000" pt_clust_7="13000.00000" pt_clust_8="13000.00000" pt_clust_9="33.66945" pt_clust_10="102.29667"></scales>
<clustering>
<clus scale="   33.669">  1  9  2 -1</clus>
<clus scale="   80.190">  5  6 -1 -1</clus>
<clus scale="   82.918">  1  5  2 -1</clus>
<clus scale="   91.182">  7  8 -1 -1</clus>
<clus scale="  102.297">  2 10  1 -1</clus>
<clus scale="  102.297">  2  5  1 -1</clus>
</clustering>
</event>
<event>
10    4  0.5389768E-005  0.1652857E+03  0.7546771E-02  0.1184174E+00
          4   -1    0    0  503    0 -0.00000000000E+00  0.00000000000E+00  0.24353869475E+03  0.24353869475E+03  0.00000000000E+00 0. -1.
         21   -1    0    0  501  502  0.00000000000E+00 -0.00000000000E+00 -0.51736175265E+03  0.51736175265E+03  0.00000000000E+00 0. -1.
         23    2    1    2    0    0  0.12024379409E+03 -0.11481868479E+03  0.10916234528E+03  0.21806639123E+03  0.89412711394E+02 0.  0.
         24    2    1    2    0    0  0.25715967119E+02  0.14302074953E+03 -0.28250420188E+03  0.32765192672E+03  0.80192987508E+02 0.  0.
        -11    1    4    4    0    0 -0.14987868943E+02  0.49200659259E+02 -0.42335791095E+02  0.66615766112E+02  0.00000000000E+00 0.  1.
         12    1    4    4    0    0  0.40703836062E+02  0.93820090270E+02 -0.24016841078E+03  0.26103616061E+03  0.00000000000E+00 0. -1.
        -11    1    3    3    0    0  0.74080424529E+02 -0.10080535582E+03  0.11442500579E+03  0.16953675416E+03  0.00000000000E+00 0. -1.
         11    1    3    3    0    0  0.46163369563E+02 -0.14013328971E+02 -0.52626605041E+01  0.48529637067E+02  0.00000000000E+00 0.  1.
         21    1    1    2  503  502 -0.28793173809E+01  0.31431590277E+02 -0.21975722049E+01  0.31639605869E+02  0.00000000000E+00 0.  1.
          3    1    1    2  501    0 -0.14308044383E+03 -0.59633655012E+02 -0.98283629099E+02  0.18354252359E+03  0.00000000000E+00 0. -1.
<scales pt_clust_5="13000.00000" pt_clust_6="13000.00000" pt_clust_7="13000.00000" pt_clust_8="13000.00000" pt_clust_9="31.56320" pt_clust_10="153.35535"></scales>
<clustering>
<clus scale="   31.563">  1  9  2 -1</clus>
<clus scale="   80.193">  5  6 -1 -1</clus>
<clus scale="   89.413">  7  8 -1 -1</clus>
<clus scale="  153.355">  2 10  1 -1</clus>
<clus scale="  160.486">  2  5  1 -1</clus>
<clus scale="  153.355">  2  5  1 -1</clus>
</clustering>
</event>
<event>
10    4  0.5389768E-005  0.1289510E+03  0.7546771E-02  0.1247331E+00
          2   -1    0    0  503    0 -0.00000000000E+00  0.00000000000E+00  0.54536710130E+03  0.54536710130E+03  0.00000000000E+00 0. -1.
         21   -1    0    0  501  502  0.00000000000E+00 -0.00000000000E+00 -0.11922890210E+03  0.11922890210E+03  0.00000000000E+00 0. -1.
         23    2    1    2    0    0 -0.23236192830E+01  0.22398977101E+02  0.77093249554E+02  0.11953019195E+03  0.88526743300E+02 0.  0.
         24    2    1    2    0    0 -0.15372518037E+02 -0.40818653891E+02 -0.47873291937E+02  0.10325683314E+03  0.80421668056E+02 0.  0.
        -13    1    4    4    0    0  0.28039583611E+02  0.39234446501E+01 -0.86580743608E+01  0.29606991043E+02  0.00000000000E+00 0.  1.
         14    1    4    4    0    0 -0.43412101648E+02 -0.44742098541E+02 -0.39215217576E+02  0.73649842096E+02  0.00000000000E+00 0. -1.
        -11    1    3    3    0    0 -0.31237776189E+02 -0.81119712761E+01  0.69755042928E+02  0.76859409008E+02  0.00000000000E+00 0.  1.
         11    1    3    3    0    0  0.28914156906E+02  0.30510948377E+02  0.73382066264E+01  0.42670782943E+02  0.00000000000E+00 0. -1.
         21    1    1    2  503  502  0.26787603118E+02  0.10358872430E+03  0.24636322479E+03  0.26859456065E+03  0.00000000000E+00 0. -1.
          1    1    1    2  501    0 -0.90914657982E+01 -0.85169047509E+02  0.15055501679E+03  0.17321441766E+03  0.00000000000E+00 0. -1.
<scales pt_clust_5="13000.00000" pt_clust_6="13000.00000" pt_clust_7="13000.00000" pt_clust_8="13000.00000" pt_clust_9="100.80036" pt_clust_10="85.65296"></scales>
<clustering>
<clus scale="   80.422">  5  6 -1 -1</clus>
<clus scale="   85.653">  2 10  1 -1</clus>
<clus scale="   88.527">  7  8 -1 -1</clus>
<clus scale="   88.802">  1  7  2 -1</clus>
<clus scale="  100.800">  1  9  2 -1</clus>
<clus scale="   85.653">  2  5  1 -1</clus>
</clustering>
</event>
<event>
10    4  0.5389768E-005  0.1581126E+03  0.7546771E-02  0.1199389E+00
         21   -1    0    0  501  502  0.00000000000E+00  0.00000000000E+00  0.25832152698E+03  0.25832152698E+03  0.00000000000E+00 0.  1.
          2   -1    0    0  503    0 -0.00000000000E+00 -0.00000000000E+00 -0.15560155467E+03  0.15560155467E+03  0.00000000000E+00 0. -1.
         24    2    1    2    0    0  0.65925541438E+02 -0.74281859047E+02  0.19298416032E+02  0.12820990388E+03  0.78748834881E+02 0.  0.
         23    2    1    2    0    0 -0.51606791836E+02  0.90625153056E+02  0.10467524055E+03  0.18931341030E+03  0.11834898397E+03 0.  0.
        -13    1    3    3    0    0  0.23241312198E+02 -0.58160776029E+02  0.43792443691E+02  0.76423900616E+02  0.00000000000E+00 0.  1.
         14    1    3    3    0    0  0.42684229240E+02 -0.16121083018E+02 -0.24494027659E+02  0.51786003267E+02  0.00000000000E+00 0. -1.
        -11    1    4    4    0    0 -0.33299359794E+02  0.20878117052E+02 -0.20894140714E+02  0.44511888867E+02  0.00000000000E+00 0. -1.
         11    1    4    4    0    0 -0.18307432042E+02  0.69747036004E+02  0.12556938126E+03  0.14480152144E+03  0.00000000000E+00 0.  1.
         21    1    1    2  503  502  0.29412022375E+02 -0.13531053690E+02 -0.37610331533E+02  0.49625532865E+02  0.00000000000E+00 0. -1.
          1    1    1    2  501    0 -0.43730771977E+02 -0.28122403192E+01  0.16356647259E+02  0.46774234605E+02  0.00000000000E+00 0. -1.
<scales pt_clust_5="13000.00000" pt_clust_6="13000.00000" pt_clust_7="13000.00000" pt_clust_8="13000.00000" pt_clust_9="32.37524" pt_clust_10="40.00741"></scales>
<clustering>
<clus scale="   32.375">  2  9  1 -1</clus>
<clus scale="   40.007">  1 10  2 -1</clus>
<clus scale="   78.749">  5  6 -1 -1</clus>
<clus scale="  118.349">  7  8 -1 -1</clus>
<clus scale="  131.128">  2  5  1 -1</clus>
<clus scale="   40.007">  1  5  2 -1</clus>
</clustering>
</event>
<event>
10    4  0.5389768E-005  0.9971602E+02  0.7546771E-02  0.1285280E+00
         21   -1    0    0  501  502  0.00000000000E+00  0.00000000000E+00  0.21455283144E+03  0.21455283144E+03  0.00000000000E+00 0. -1.
          2   -1    0    0  503    0 -0.00000000000E+00 -0.00000000000E+00 -0.97748689205E+03  0.97748689205E+03  0.00000000000E+00 0. -1.
         23    2    1    2    0    0 -0.40182332932E+02  0.10322756120E+02 -0.47183912433E+03  0.48245243740E+03  0.91689780971E+02 0.  0.
         24    2    1    2    0    0 -0.22496366961E+01 -0.99333452238E+01  0.56039450231E+02  0.10064445437E+03  0.82976828092E+02 0.  0.
        -13    1    4    4    0    0 -0.38409126194E+02 -0.19872359611E+02  0.16874912445E+02  0.46421270141E+02  0.00000000000E+00 0.  1.
         14    1    4    4    0    0  0.36159489497E+02  0.99390143876E+01  0.39164537786E+02  0.54223184227E+02  0.00000000000E+00 0. -1.
        -11    1    3    3    0    0  0.24232808247E+02 -0.17313934147E+02 -0.11497482755E+03  0.11876957641E+03  0.00000000000E+00 0. -1.
         11    1    3    3    0    0 -0.64415141179E+02  0.27636690266E+02 -0.35686429678E+03  0.36368286099E+03  0.00000000000E+00 0.  1.
         21    1    1    2  503  502  0.88805044630E+02  0.14623845529E+01 -0.46962759608E+03  0.47795245947E+03  0.00000000000E+00 0. -1.
          1    1    1    2  501    0 -0.46373075002E+02 -0.18517954489E+01  0.12249320956E+03  0.13099037224E+03  0.00000000000E+00 0. -1.
<scales pt_clust_5="13000.00000" pt_clust_6="13000.00000" pt_clust_7="13000.00000" pt_clust_8="13000.00000" pt_clust_9="86.61777" pt_clust_10="46.41003"></scales>
<clustering>
<clus scale="   46.410">  1 10  2 -1</clus>
<clus scale="   82.977">  5  6 -1 -1</clus>
<clus scale="   86.618">  2  9  1 -1</clus>
<clus scale="   91.690">  7  8 -1 -1</clus>
<clus scale="   91.768">  1  5  2 -1</clus>
<clus scale="   46.410">  1  5  2 -1</clus>
</clustering>
</event>
<event>
10    4  0.5389768E-005  0.1489612E+03  0.7546771E-02  0.1232135E+00
         21   -1    0    0  501  502  0.00000000000E+00  0.00000000000E+00  0.97193858981E+03  0.97193858981E+03  0.00000000000E+00 0.  1.
          2   -1    0    0  503    0 -0.00000000000E+00 -0.00000000000E+00 -0.43743566903E+02  0.43743566903E+02  0.00000000000E+00 0. -1.
         24    2    1    2    0    0 -0.29192509041E+02 -0.11841366441E+02  0.23880396984E+03  0.25082718804E+03  0.69960858394E+02 0.  0.
         23    2    1    2    0    0  0.10253839825E+03 -0.80988029328E+02  0.54834234599E+03  0.57087923623E+03  0.90280617780E+02 0.  0.
        -13    1    3    3    0    0  0.27741424529E+01  0.21551796606E+02  0.30460257504E+02  0.37416615166E+02  0.00000000000E+00 0.  1.
         14    1    3    3    0    0 -0.31966651493E+02 -0.33393163046E+02  0.20834371234E+03  0.21341057288E+03  0.00000000000E+00 0. -1.
        -11    1    4    4    0    0  0.73473722929E+02 -0.92944332219E+02  0.49487091606E+03  0.50885583461E+03  0.00000000000E+00 0.  1.
         11    1    4    4    0    0  0.29064675324E+02  0.11956302891E+02  0.53471429929E+02  0.62023401625E+02  0.00000000000E+00 0. -1.
         21    1    1    2  503  502 -0.28864082721E+02  0.17268264992E+01  0.49753150676E+02  0.57545575010E+02  0.00000000000E+00 0.  1.
          1    1    1    2  501    0 -0.44481806491E+02  0.91102569270E+02  0.91295556397E+02  0.13643015742E+03  0.00000000000E+00 0. -1.
<scales pt_clust_5="13000.00000" pt_clust_6="13000.00000" pt_clust_7="13000.00000" pt_clust_8="13000.00000" pt_clust_9="28.91569" pt_clust_10="118.48575"></scales>
<clustering>
<clus scale="   28.916">  2  9  1 -1</clus>
<clus scale="   69.961">  5  6 -1 -1</clus>
<clus scale="   78.448">  2  5  1 -1</clus>
<clus scale="   90.281">  7  8 -1 -1</clus>
<clus scale="  118.486">  1 10  2 -1</clus>
<clus scale="  118.486">  1  5  2 -1</clus>
</clustering>
</event>
<event>
10    4  0.5389768E-005  0.1538100E+03  0.7546771E-02  0.1198203E+00
          2   -1    0    0  503    0 -0.00000000000E+00  0.00000000000E+00  0.25186301472E+03  0.25186301472E+03  0.00000000000E+00 0. -1.
         21   -1    0    0  501  502  0.00000000000E+00 -0.00000000000E+00 -0.25357687261E+03  0.25357687261E+03  0.00000000000E+00 0.  1.
         24    2    1    2    0    0 -0.16337753860E+03  0.43288059862E+02  0.25894034850E+02  0.18779137185E+03  0.77646777490E+02 0.  0.
         23    2    1    2    0    0  0.60766790802E+02 -0.53219614042E+02 -0.62539332613E+02  0.13696127563E+03  0.91226600914E+02 0.  0.
        -13    1    3    3    0    0 -0.17151637489E+03  0.37957806807E+02  0.21049498198E+02  0.17692298700E+03  0.00000000000E+00 0.  1.
         14    1    3    3    0    0  0.81388362947E+01  0.53302530546E+01  0.48445366526E+01  0.10868384849E+02  0.00000000000E+00 0. -1.
        -13    1    4    4    0    0  0.10828989530E+02 -0.42668426924E+02 -0.72633644777E+02  0.84932373239E+02  0.00000000000E+00 0.  1.
         13    1    4    4    0    0  0.49937801272E+02 -0.10551187118E+02  0.10094312165E+02  0.52028902387E+02  0.00000000000E+00 0. -1.
         21    1    1    2  503  502  0.25645658041E+02 -0.45157674837E+01  0.84222603328E+02  0.88156331841E+02  0.00000000000E+00 0.  1.
          1    1    1    2  501    0  0.76965089753E+02  0.14447321664E+02 -0.49291163452E+02  0.92530908016E+02  0.00000000000E+00 0. -1.
<scales pt_clust_5="13000.00000" pt_clust_6="13000.00000" pt_clust_7="13000.00000" pt_clust_8="13000.00000" pt_clust_9="26.04020" pt_clust_10="81.49862"></scales>
<clustering>
<clus scale="   26.040">  1  9  2 -1</clus>
<clus scale="   77.647">  5  6 -1 -1</clus>
<clus scale="   81.499">  2 10  1 -1</clus>
<clus scale="   91.227">  7  8 -1 -1</clus>
<clus scale="  146.165">  1  5  2 -1</clus>
<clus scale="   81.499">  2  5  1 -1</clus>
</clustering>
</event>
<event>
10    4  0.5389768E-005  0.1435698E+03  0.7546771E-02  0.1210468E+00
         21   -1    0    0  501  502  0.00000000000E+00  0.00000000000E+00  0.61615691326E+02  0.61615691326E+02  0.00000000000E+00 0. -1.
          2   -1    0    0  503    0 -0.00000000000E+00 -0.00000000000E+00 -0.13036041743E+04  0.13036041743E+04  0.00000000000E+00 0. -1.
         24    2    1    2    0    0  0.13881595430E+03  0.67817455202E+01 -0.53409813247E+03  0.55795722330E+03  0.82094985736E+02 0.  0.
         23    2    1    2    0    0 -0.90329265887E+02  0.55898290150E+02 -0.31100837559E+03  0.34106798141E+03  0.91198482088E+02 0.  0.
        -11    1    3    3    0    0  0.58698920895E+02 -0.33161886573E+01 -0.96718887015E+02  0.11318614547E+03  0.00000000000E+00 0.  1.
         12    1    3    3    0    0  0.80117033401E+02  0.10097934178E+02 -0.43737924546E+03  0.44477107783E+03  0.00000000000E+00 0. -1.
        -13    1    4    4    0    0 -0.50154118942E+02  0.76990556118E+02 -0.17446747094E+03  0.19718488734E+03  0.00000000000E+00 0.  1.
         13    1    4    4    0    0 -0.40175146945E+02 -0.21092265968E+02 -0.13654090465E+03  0.14388309407E+03  0.00000000000E+00 0. -1.
         21    1    1    2  503  502 -0.52482540329E+02 -0.41813902040E+02 -0.42538488367E+03  0.43064500310E+03  0.00000000000E+00 0. -1.
          1    1    1    2  501    0  0.39958519201E+01 -0.20866133631E+02  0.28502908743E+02  0.35549657833E+02  0.00000000000E+00 0. -1.
<scales pt_clust_5="13000.00000" pt_clust_6="13000.00000" pt_clust_7="13000.00000" pt_clust_8="13000.00000" pt_clust_9="68.00153" pt_clust_10="21.24529"></scales>
<clustering>
<clus scale="   21.245">  1 10  2 -1</clus>
<clus scale="   68.002">  2  9  1 -1</clus>
<clus scale="   82.095">  5  6 -1 -1</clus>
<clus scale="   91.198">  7  8 -1 -1</clus>
<clus scale="  137.966">  2  5  1 -1</clus>
<clus scale="   21.245">  1  5  2 -1</clus>
</clustering>
</event>
<event>
10    4  0.5389768E-005  0.1552598E+03  0.7546771E-02  0.1213950E+00
          2   -1    0    0  503    0 -0.00000000000E+00  0.00000000000E+00  0.64875712377E+03  0.64875712377E+03  0.00000000000E+00 0. -1.
         21   -1    0    0  501  502  0.00000000000E+00 -0.00000000000E+00 -0.12092337073E+03  0.12092337073E+03  0.00000000000E+00 0.  1.
         23    2    1    2    0    0 -0.16556507933E+03 -0.98892180476E+02  0.13778291161E+03  0.25350516253E+03  0.89940412737E+02 0.  0.
         24    2    1    2    0    0  0.50241319254E+02  0.53593908257E+01  0.35778522023E+02  0.10181332640E+03  0.80826589462E+02 0.  0.
        -11    1    4    4    0    0  0.52480111314E+02 -0.13748159994E+02 -0.71988242227E+01  0.54726566281E+02  0.00000000000E+00 0.  1.
         12    1    4    4    0    0 -0.22387920597E+01  0.19107550820E+02  0.42977346245E+02  0.47086760119E+02  0.00000000000E+00 0. -1.
        -13    1    3    3    0    0 -0.58401561409E+02 -0.15408491290E+02  0.54185922789E+00  0.60402463445E+02  0.00000000000E+00 0. -1.
         13    1    3    3    0    0 -0.10716351792E+03 -0.83483689186E+02  0.13724105238E+03  0.19310269908E+03  0.00000000000E+00 0.  1.
         21    1    1    2  503  502  0.10106580736E+03  0.14983085289E+02  0.83148030873E+02  0.13172845289E+03  0.00000000000E+00 0. -1.
          1    1    1    2  501    0  0.14257952708E+02  0.78549704361E+02  0.27112428853E+03  0.28263355268E+03  0.00000000000E+00 0. -1.
<scales pt_clust_5="13000.00000" pt_clust_6="13000.00000" pt_clust_7="13000.00000" pt_clust_8="13000.00000" pt_clust_9="126.55559" pt_clust_10="79.83327"></scales>
<clustering>
<clus scale="   79.833">  2 10  1 -1</clus>
<clus scale="   80.827">  5  6 -1 -1</clus>
<clus scale="   89.940">  7  8 -1 -1</clus>
<clus scale="  101.300">  2  5  1 -1</clus>
<clus scale="  126.556">  1  9  2 -1</clus>
<clus scale="   79.833">  2  5  1 -1</clus>
</clustering>
</event>
<event>
10    4  0.5389768E-005  0.4413105E+03  0.7546771E-02  0.1030443E+00
          2   -1    0    0  503    0 -0.00000000000E+00  0.00000000000E+00  0.14874155654E+04  0.14874155654E+04  0.00000000000E+00 0. -1.
         21   -1    0    0  501  502  0.00000000000E+00 -0.00000000000E+00 -0.17297125208E+03  0.17297125208E+03  0.00000000000E+00 0. -1.
         23    2    1    2    0    0  0.37233398728E+03  0.22130415746E+03  0.55662280447E+03  0.71074875838E+03  0.87901779791E+02 0.  0.
         24    2    1    2    0    0 -0.34713239022E+03 -0.26536213220E+03  0.44968700320E+03  0.63224603926E+03  0.81232356619E+02 0.  0.
        -11    1    4    4    0    0 -0.61106758873E+02 -0.23032865252E+02  0.38442529541E+02  0.75778472796E+02  0.00000000000E+00 0.  1.
         12    1    4    4    0    0 -0.28602563134E+03 -0.24232926695E+03  0.41124447366E+03  0.55646756646E+03  0.00000000000E+00 0. -1.
        -13    1    3    3    0    0  0.21123207219E+03  0.15961110564E+03  0.38634428285E+03  0.46835520522E+03  0.00000000000E+00 0.  1.
         13    1    3    3    0    0  0.16110191509E+03  0.61693051827E+02  0.17027852161E+03  0.24239355316E+03  0.00000000000E+00 0. -1.
         21    1    1    2  503  502 -0.37164804414E+02  0.24453856125E+02  0.26315019495E+03  0.26688431739E+03  0.00000000000E+00 0.  1.
          1    1    1    2  501    0  0.11963207348E+02  0.19604118615E+02  0.44984310694E+02  0.50507702436E+02  0.00000000000E+00 0. -1.
<scales pt_clust_5="13000.00000" pt_clust_6="13000.00000" pt_clust_7="13000.00000" pt_clust_8="13000.00000" pt_clust_9="44.49764" pt_clust_10="22.96607"></scales>
<clustering>
<clus scale="   22.966">  2 10  1 -1</clus>
<clus scale="   44.498">  1  9  2 -1</clus>
<clus scale="   81.232">  5  6 -1 -1</clus>
<clus scale="   87.902">  7  8 -1 -1</clus>
<clus scale="  440.031">  2  5  1 -1</clus>
<clus scale="   22.966">  2  5  1 -1</clus>
</clustering>
</event>
<event>
10    4  0.5389768E-005  0.1155049E+03  0.7546771E-02  0.1256925E+00
          2   -1    0    0  503    0 -0.00000000000E+00  0.00000000000E+00  0.21118942761E+03  0.21118942761E+03  0.00000000000E+00 0. -1.
         21   -1    0    0  501  502  0.00000000000E+00 -0.00000000000E+00 -0.31138339253E+03  0.31138339253E+03  0.00000000000E+00 0.  1.
         24    2    1    2    0    0  0.21771800528E+02  0.60326033056E+02  0.14780112393E+03  0.18010399573E+03  0.80492456041E+02 0.  0.
         23    2    1    2    0    0 -0.46722227125E+02 -0.20872604970E+02 -0.23785752638E+03  0.26190565031E+03  0.96952228758E+02 0.  0.
        -13    1    3    3    0    0 -0.11399631654E+02  0.67930080388E+02  0.97932566595E+02  0.11972984182E+03  0.00000000000E+00 0.  1.
         14    1    3    3    0    0  0.33171432182E+02 -0.76040473322E+01  0.49868557333E+02  0.60374153901E+02  0.00000000000E+00 0. -1.
        -13    1    4    4    0    0  0.16217691708E+02  0.26345809343E+02 -0.68564752485E+02  0.75221276762E+02  0.00000000000E+00 0.  1.
         13    1    4    4    0    0 -0.62939918833E+02 -0.47218414313E+02 -0.16929277389E+03  0.18668437355E+03  0.00000000000E+00 0. -1.
         21    1    1    2  503  502  0.23131746944E+02 -0.13673434943E+02  0.25163064774E+02  0.36813317817E+02  0.00000000000E+00 0.  1.
          1    1    1    2  501    0  0.18186796524E+01 -0.25779993142E+02 -0.35300627238E+02  0.43749856291E+02  0.00000000000E+00 0. -1.
<scales pt_clust_5="13000.00000" pt_clust_6="13000.00000" pt_clust_7="13000.00000" pt_clust_8="13000.00000" pt_clust_9="27.18927" pt_clust_10="25.84406"></scales>
<clustering>
<clus scale="   25.844">  2 10  1 -1</clus>
<clus scale="   27.189">  1  9  2 -1</clus>
<clus scale="   80.492">  5  6 -1 -1</clus>
<clus scale="   96.952">  7  8 -1 -1</clus>
<clus scale="  102.082">  1  5  2 -1</clus>
<clus scale="   25.844">  2  5  1 -1</clus>
</clustering>
</event>
<event>
10    4  0.5389768E-005  0.9451252E+02  0.7546771E-02  0.1297849E+00
         -1   -1    0    0    0  501 -0.00000000000E+00  0.00000000000E+00  0.17534345172E+03  0.17534345172E+03  0.00000000000E+00 0.  1.
         21   -1    0    0  503  502  0.00000000000E+00 -0.00000000000E+00 -0.14165844072E+03  0.14165844072E+03  0.00000000000E+00 0. -1.
         23    2    1    2    0    0  0.32767381614E+02 -0.33318286427E+02  0.49163837465E+02  0.11279019085E+03  0.90115119314E+02 0.  0.
         24    2    1    2    0    0  0.32049163548E+02  0.26994856346E+02 -0.68559760124E+02  0.11360753622E+03  0.80314135893E+02 0.  0.
        -11    1    4    4    0    0  0.46722647307E+02 -0.11395427355E+02 -0.26977412655E+02  0.55142019636E+02  0.00000000000E+00 0.  1.
         12    1    4    4    0    0 -0.14673483759E+02  0.38390283701E+02 -0.41582347468E+02  0.58465516583E+02  0.00000000000E+00 0. -1.
        -11    1    3    3    0    0  0.29312084689E+02 -0.57376043694E+02  0.58235222973E+02  0.86847854859E+02  0.00000000000E+00 0.  1.
         11    1    3    3    0    0  0.34552969248E+01  0.24057757267E+02 -0.90713855077E+01  0.25942335989E+02  0.00000000000E+00 0. -1.
         21    1    1    2  503  501 -0.24896179721E+02  0.11712700613E+02  0.51461661042E+01  0.27990893982E+02  0.00000000000E+00 0. -1.
         -2    1    1    2    0  502 -0.39920365441E+02 -0.53892705320E+01  0.47934767548E+02  0.62613271387E+02  0.00000000000E+00 0.  1.
<scales pt_clust_5="13000.00000" pt_clust_6="13000.00000" pt_clust_7="13000.00000" pt_clust_8="13000.00000" pt_clust_9="27.51376" pt_clust_10="48.60515"></scales>
<clustering>
<clus scale="   27.514">  1  9  2 -1</clus>
<clus scale="   48.605">  2 10  1 -1</clus>
<clus scale="   80.314">  5  6 -1 -1</clus>
<clus scale="   85.219">  2  5  1 -1</clus>
<clus scale="   90.115">  7  8 -1 -1</clus>
<clus scale="   48.605">  2  5  1 -1</clus>
</clustering>
</event>
<event>
10    4  0.5389768E-005  0.1980855E+03  0.7546771E-02  0.1152386E+00
          2   -1    0    0  503    0 -0.00000000000E+00  0.00000000000E+00  0.52570979559E+03  0.52570979559E+03  0.00000000000E+00 0. -1.
         21   -1    0    0  501  502  0.00000000000E+00 -0.00000000000E+00 -0.17872107419E+03  0.17872107419E+03  0.00000000000E+00 0. -1.
         23    2    1    2    0    0 -0.58762173480E+02  0.12118668012E+03  0.99621928574E+02  0.19063906015E+03  0.90991857489E+02 0.  0.
         24    2    1    2    0    0  0.89074351728E+02 -0.20409845634E+03  0.20604210540E+03  0.31380756712E+03  0.80196134356E+02 0.  0.
        -11    1    4    4    0    0  0.42383725043E+02 -0.21157158974E+02  0.33316261216E+02  0.57913545788E+02  0.00000000000E+00 0.  1.
         12    1    4    4    0    0  0.46690626685E+02 -0.18294129737E+03  0.17272584419E+03  0.25589402133E+03  0.00000000000E+00 0. -1.
        -13    1    3    3    0    0 -0.80859405777E+02  0.70661496454E+02  0.66742989048E+02  0.12643542688E+03  0.00000000000E+00 0.  1.
         13    1    3    3    0    0  0.22097232297E+02  0.50525183671E+02  0.32878939526E+02  0.64203633266E+02  0.00000000000E+00 0. -1.
         21    1    1    2  503  502 -0.14936312913E+02  0.15081976763E+02  0.10413092293E+03  0.10627233213E+03  0.00000000000E+00 0. -1.
          1    1    1    2  501    0 -0.15375865336E+02  0.67829799456E+02 -0.62806235502E+02  0.93711910380E+02  0.00000000000E+00 0. -1.
<scales pt_clust_5="13000.00000" pt_clust_6="13000.00000" pt_clust_7="13000.00000" pt_clust_8="13000.00000" pt_clust_9="21.22639" pt_clust_10="70.21377"></scales>
<clustering>
<clus scale="   21.226">  1  9  2 -1</clus>
<clus scale="   70.214">  2 10  1 -1</clus>
<clus scale="   80.196">  5  6 -1 -1</clus>
<clus scale="   90.992">  7  8 -1 -1</clus>
<clus scale="  193.364">  2  5  1 -1</clus>
<clus scale="   70.214">  2  5  1 -1</clus>
</clustering>
</event>
<event>
10    4  0.5389768E-005  0.1676699E+03  0.7546771E-02  0.1181883E+00
          4   -1    0    0  503    0 -0.00000000000E+00  0.00000000000E+00  0.24643868043E+03  0.24643868043E+03  0.00000000000E+00 0. -1.
         21   -1    0    0  501  502  0.00000000000E+00 -0.00000000000E+00 -0.63083634930E+03  0.63083634930E+03  0.00000000000E+00 0.  1.
         24    2    1    2    0    0 -0.48215266519E+02  0.10683633029E+03  0.77959955924E+02  0.16200464417E+03  0.80181273446E+02 0.  0.
         23    2    1    2    0    0  0.85850156282E+02 -0.19239527874E+03 -0.24904090352E+03  0.33876904899E+03  0.91416105325E+02 0.  0.
        -13    1    3    3    0    0 -0.16268855026E+01  0.84426126164E+02  0.25162697047E+02  0.88111173288E+02  0.00000000000E+00 0.  1.
         14    1    3    3    0    0 -0.46588381017E+02  0.22410204122E+02  0.52797258876E+02  0.73893470885E+02  0.00000000000E+00 0. -1.
        -13    1    4    4    0    0  0.26156214586E+02 -0.14063095116E+03 -0.11657681947E+03  0.18453012443E+03  0.00000000000E+00 0.  1.
         13    1    4    4    0    0  0.59693941696E+02 -0.51764327579E+02 -0.13246408405E+03  0.15423892455E+03  0.00000000000E+00 0. -1.
         21    1    1    2  503  502 -0.31015958592E+02  0.22580063711E+01  0.72410209327E+02  0.78805626036E+02  0.00000000000E+00 0. -1.
          3    1    1    2  501    0 -0.66189311712E+01  0.83300942086E+02 -0.28572693060E+03  0.29769571053E+03  0.00000000000E+00 0. -1.
<scales pt_clust_5="13000.00000" pt_clust_6="13000.00000" pt_clust_7="13000.00000" pt_clust_8="13000.00000" pt_clust_9="31.09804" pt_clust_10="83.73533"></scales>
<clustering>
<clus scale="   31.098">  1  9  2 -1</clus>
<clus scale="   80.181">  5  6 -1 -1</clus>
<clus scale="   83.735">  2 10  1 -1</clus>
<clus scale="   91.416">  7  8 -1 -1</clus>
<clus scale="  161.819">  1  5  2 -1</clus>
<clus scale="   83.735">  2  5  1 -1</clus>
</clustering>
</event>
<event>
10    4  0.5389768E-005  0.9166164E+02  0.7546771E-02  0.1305548E+00
          4   -1    0    0  503    0 -0.00000000000E+00  0.00000000000E+00  0.81208881581E+02  0.81208881581E+02  0.00000000000E+00 0. -1.
         21   -1    0    0  501  502  0.00000000000E+00 -0.00000000000E+00 -0.45234822641E+03  0.45234822641E+03  0.00000000000E+00 0.  1.
         24    2    1    2    0    0 -0.23613158699E+02 -0.36103119273E+02 -0.21094564620E+02  0.92505906432E+02  0.79065451262E+02 0.  0.
         23    2    1    2    0    0 -0.21377629015E+02 -0.57708375699E+02 -0.25815893710E+03  0.28019827365E+03  0.89876449114E+02 0.  0.
        -11    1    3    3    0    0  0.12992745278E+02 -0.42239695450E+02  0.85395757746E+01  0.45010306108E+02  0.00000000000E+00 0.  1.
         12    1    3    3    0    0 -0.36605903977E+02  0.61365761770E+01 -0.29634140395E+02  0.47495600324E+02  0.00000000000E+00 0. -1.
        -11    1    4    4    0    0 -0.39202857631E+02 -0.67571585272E+02 -0.14022209594E+03  0.16051485717E+03  0.00000000000E+00 0.  1.
         11    1    4    4    0    0  0.17825228616E+02  0.98632095734E+01 -0.11793684115E+03  0.11968341648E+03  0.00000000000E+00 0. -1.
         21    1    1    2  503  502  0.36081703017E+02  0.60642914949E+02 -0.90043065752E+01  0.71137401998E+02  0.00000000000E+00 0. -1.
          3    1    1    2  501    0  0.89090846977E+01  0.33168580022E+02 -0.82881536535E+02  0.89715525910E+02  0.00000000000E+00 0. -1.
<scales pt_clust_5="13000.00000" pt_clust_6="13000.00000" pt_clust_7="13000.00000" pt_clust_8="13000.00000" pt_clust_9="74.19126" pt_clust_10="34.34424"></scales>
<clustering>
<clus scale="   34.344">  2 10  1 -1</clus>
<clus scale="   74.191">  1  9  2 -1</clus>
<clus scale="   79.065">  5  6 -1 -1</clus>
<clus scale="   81.089">  1  5  2 -1</clus>
<clus scale="   89.876">  7  8 -1 -1</clus>
<clus scale="   34.344">  2  5  1 -1</clus>
</clustering>
</event>
<event>
10    4  0.5389768E-005  0.1582418E+03  0.7546771E-02  0.1193272E+00
         21   -1    0    0  501  502  0.00000000000E+00  0.00000000000E+00  0.13767779052E+03  0.13767779052E+03  0.00000000000E+00 0. -1.
          2   -1    0    0  503    0 -0.00000000000E+00 -0.00000000000E+00 -0.38964797713E+03  0.38964797713E+03  0.00000000000E+00 0. -1.
         24    2    1    2    0    0 -0.11969036960E+03  0.82598911541E+02 -0.18938627612E+03  0.25037094905E+03  0.75299971984E+02 0.  0.
         23    2    1    2    0    0  0.53011060082E+02 -0.56368133701E+02  0.15606204465E+02  0.12077245459E+03  0.91405104787E+02 0.  0.
        -13    1    3    3    0    0 -0.52447822940E+02 -0.56420053976E+01 -0.57603211954E+02  0.78107210829E+02  0.00000000000E+00 0.  1.
         14    1    3    3    0    0 -0.67242546659E+02  0.88240916939E+02 -0.13178306417E+03  0.17226373822E+03  0.00000000000E+00 0. -1.
        -13    1    4    4    0    0  0.63648929565E+01 -0.49528127398E+02  0.43300941423E+02  0.66094771307E+02  0.00000000000E+00 0. -1.
         13    1    4    4    0    0  0.46646167125E+02 -0.68400063026E+01 -0.27694736958E+02  0.54677683280E+02  0.00000000000E+00 0.  1.
         21    1    1    2  503  502 -0.19380560921E+02  0.27572934477E+02 -0.19007964029E+02  0.38693352838E+02  0.00000000000E+00 0.  1.
          1    1    1    2  501    0  0.86059870437E+02 -0.53803712317E+02 -0.59182150920E+02  0.11748901117E+03  0.00000000000E+00 0. -1.
<scales pt_clust_5="13000.00000" pt_clust_6="13000.00000" pt_clust_7="13000.00000" pt_clust_8="13000.00000" pt_clust_9="33.70271" pt_clust_10="93.94727"></scales>
<clustering>
<clus scale="   33.703">  2  9  1 -1</clus>
<clus scale="   75.300">  5  6 -1 -1</clus>
<clus scale="   91.405">  7  8 -1 -1</clus>
<clus scale="   93.947">  1 10  2 -1</clus>
<clus scale="  149.518">  2  5  1 -1</clus>
<clus scale="   93.947">  1  5  2 -1</clus>
</clustering>
</event>
<event>
10    4  0.5389768E-005  0.2534404E+03  0.7546771E-02  0.1111561E+00
          2   -1    0    0  503    0 -0.00000000000E+00  0.00000000000E+00  0.66347940082E+03  0.66347940082E+03  0.00000000000E+00 0. -1.
         21   -1    0    0  501  502  0.00000000000E+00 -0.00000000000E+00 -0.28548641572E+03  0.28548641572E+03  0.00000000000E+00 0.  1.
         24    2    1    2    0    0 -0.71241603186E+02 -0.17753340627E+03  0.15391003247E+03  0.25854383647E+03  0.81013214436E+02 0.  0.
         23    2    1    2    0    0  0.79357053923E+02  0.38363351323E+03  0.64852496451E+02  0.40690222275E+03  0.88833316434E+02 0.  0.
        -13    1    3    3    0    0 -0.20334503457E+02 -0.12028480492E+03  0.56017333527E+02  0.13423810182E+03  0.00000000000E+00 0.  1.
         14    1    3    3    0    0 -0.50907099729E+02 -0.57248601355E+02  0.97892698940E+02  0.12430573465E+03  0.00000000000E+00 0. -1.
        -11    1    4    4    0    0  0.80463533295E+02  0.19031511648E+03  0.52473987035E+02  0.21318476274E+03  0.00000000000E+00 0.  1.
         11    1    4    4    0    0 -0.11064793726E+01  0.19331839675E+03  0.12378509416E+02  0.19371746001E+03  0.00000000000E+00 0. -1.
         21    1    1    2  503  502 -0.28085443359E+02 -0.36246280818E+01  0.63409281014E+01  0.29019604177E+02  0.00000000000E+00 0. -1.
          1    1    1    2  501    0  0.19969992623E+02 -0.20247547887E+03  0.15288952808E+03  0.25450015314E+03  0.00000000000E+00 0. -1.
<scales pt_clust_5="13000.00000" pt_clust_6="13000.00000" pt_clust_7="13000.00000" pt_clust_8="13000.00000" pt_clust_9="28.31837" pt_clust_10="203.68318"></scales>
<clustering>
<clus scale="   28.318">  2  9  1 -1</clus>
<clus scale="   81.013">  5  6 -1 -1</clus>
<clus scale="   88.833">  7  8 -1 -1</clus>
<clus scale="  203.683">  2 10  1 -1</clus>
<clus scale="  250.806">  1  5  2 -1</clus>
<clus scale="   28.318">  2  5  1 -1</clus>
</clustering>
</event>
<event>
10    4  0.5389768E-005  0.1964057E+03  0.7546771E-02  0.1184928E+00
         21   -1    0    0  503  502  0.00000000000E+00  0.00000000000E+00  0.76436974970E+03  0.76436974970E+03  0.00000000000E+00 0. -1.
          2   -1    0    0  502    0 -0.00000000000E+00 -0.00000000000E+00 -0.76194568906E+02  0.76194568906E+02  0.00000000000E+00 0. -1.
         24    2    1    2    0    0 -0.14551638364E+02  0.32743812818E+02  0.13438203029E+03  0.16402685557E+03  0.86961898694E+02 0.  0.
         23    2    1    2    0    0  0.80270920577E+02  0.14261324017E+03  0.32107372044E+03  0.37218877883E+03  0.93027932207E+02 0.  0.
        -11    1    3    3    0    0  0.23978588266E+02 -0.18872976196E+01  0.48744295310E+01  0.24541692093E+02  0.00000000000E+00 0.  1.
         12    1    3    3    0    0 -0.38530226629E+02  0.34631110437E+02  0.12950760076E+03  0.13948516347E+03  0.00000000000E+00 0. -1.
        -11    1    4    4    0    0  0.10021395787E+03  0.10321906880E+03  0.23773957308E+03  0.27787968283E+03  0.00000000000E+00 0. -1.
         11    1    4    4    0    0 -0.19943037297E+02  0.39394171363E+02  0.83334147353E+02  0.94309096004E+02  0.00000000000E+00 0.  1.
         21    1    1    2  503  501 -0.11562712433E+02 -0.45593211203E+02  0.24328333289E+02  0.52955689281E+02  0.00000000000E+00 0.  1.
          1    1    1    2  501    0 -0.54156569780E+02 -0.12976384178E+03  0.20839109677E+03  0.25139299493E+03  0.00000000000E+00 0. -1.
<scales pt_clust_5="13000.00000" pt_clust_6="13000.00000" pt_clust_7="13000.00000" pt_clust_8="13000.00000" pt_clust_9="33.72791" pt_clust_10="182.54236"></scales>
<clustering>
<clus scale="   33.728">  9 10 -1 -1</clus>
<clus scale="   86.962">  5  6 -1 -1</clus>
<clus scale="   93.028">  7  8 -1 -1</clus>
<clus scale="   94.055">  2  5  1 -1</clus>
<clus scale="  182.542">  1  9  2 -1</clus>
<clus scale="  182.542">  1  5  2 -1</clus>
</clustering>
</event>
<event>
10    4  0.5389768E-005  0.1697646E+03  0.7546771E-02  0.1179655E+00
         21   -1    0    0  501  502  0.00000000000E+00  0.00000000000E+00  0.44644470637E+02  0.44644470637E+02  0.00000000000E+00 0.  1.
          2   -1    0    0  503    0 -0.00000000000E+00 -0.00000000000E+00 -0.10129472622E+04  0.10129472622E+04  0.00000000000E+00 0. -1.
         23    2    1    2    0    0 -0.18126238721E+02 -0.15321364172E+03 -0.52779288771E+03  0.55739631910E+03  0.91226880305E+02 0.  0.
         24    2    1    2    0    0  0.45562322692E+02  0.13053707015E+03 -0.30715276676E+03  0.34615526048E+03  0.79779635814E+02 0.  0.
        -11    1    4    4    0    0  0.27405065034E+02  0.91104939592E+02 -0.27808924562E+03  0.29391287167E+03  0.00000000000E+00 0.  1.
         12    1    4    4    0    0  0.18157257658E+02  0.39432130560E+02 -0.29063521146E+02  0.52242388800E+02  0.00000000000E+00 0. -1.
        -13    1    3    3    0    0 -0.46974841826E+02 -0.84239054431E+02 -0.21257120934E+03  0.23342958916E+03  0.00000000000E+00 0.  1.
         13    1    3    3    0    0  0.28848603105E+02 -0.68974587289E+02 -0.31522167837E+03  0.32396672994E+03  0.00000000000E+00 0. -1.
         21    1    1    2  503  502  0.13744351060E+02  0.15927815544E+02 -0.95194141807E+02  0.97491164361E+02  0.00000000000E+00 0. -1.
          1    1    1    2  501    0 -0.41180435031E+02  0.67487560240E+01 -0.38162995291E+02  0.56548988911E+02  0.00000000000E+00 0. -1.
<scales pt_clust_5="13000.00000" pt_clust_6="13000.00000" pt_clust_7="13000.00000" pt_clust_8="13000.00000" pt_clust_9="21.03812" pt_clust_10="41.17254"></scales>
<clustering>
<clus scale="   21.038">  2  9  1 -1</clus>
<clus scale="   41.173">  1 10  2 -1</clus>
<clus scale="   79.780">  5  6 -1 -1</clus>
<clus scale="   91.227">  7  8 -1 -1</clus>
<clus scale="  163.898">  1  5  2 -1</clus>
<clus scale="   41.173">  1  5  2 -1</clus>
</clustering>
</event>
<event>
10    4  0.5389768E-005  0.1339270E+03  0.7546771E-02  0.1224496E+00
         -1   -1    0    0    0  501 -0.00000000000E+00  0.00000000000E+00  0.17330874189E+03  0.17330874189E+03  0.00000000000E+00 0.  1.
         21   -1    0    0  503  502  0.00000000000E+00 -0.00000000000E+00 -0.16476207798E+03  0.16476207798E+03  0.00000000000E+00 0. -1.
         23    2    1    2    0    0  0.74478770092E+02  0.46679793780E+02  0.85234827979E+01  0.12690287229E+03  0.91135058538E+02 0.  0.
         24    2    1    2    0    0 -0.10564544278E+03 -0.23712929121E+02 -0.46414241235E+02  0.14224674036E+03  0.79728230671E+02 0.  0.
        -13    1    4    4    0    0 -0.12423928895E+01 -0.26180969253E+02  0.35989818650E+01  0.26456367127E+02  0.00000000000E+00 0.  1.
         14    1    4    4    0    0 -0.10440304989E+03  0.24680401320E+01 -0.50013223100E+02  0.11579037323E+03  0.00000000000E+00 0. -1.
        -13    1    3    3    0    0  0.37796476474E+02 -0.24009888193E+02 -0.82077334041E+01  0.45523787765E+02  0.00000000000E+00 0. -1.
         13    1    3    3    0    0  0.36682293618E+02  0.70689681973E+02  0.16731216202E+02  0.81379084525E+02  0.00000000000E+00 0.  1.
         21    1    1    2  503  501  0.23435568398E+02  0.30878311248E+01  0.23894781307E+02  0.33611324593E+02  0.00000000000E+00 0.  1.
         -2    1    1    2    0  502  0.77311042907E+01 -0.26054695784E+02  0.22542641039E+02  0.35309882625E+02  0.00000000000E+00 0.  1.
<scales pt_clust_5="13000.00000" pt_clust_6="13000.00000" pt_clust_7="13000.00000" pt_clust_8="13000.00000" pt_clust_9="23.63812" pt_clust_10="28.30733"></scales>
<clustering>
<clus scale="   23.638">  1  9  2 -1</clus>
<clus scale="   28.307">  2 10  1 -1</clus>
<clus scale="   79.728">  5  6 -1 -1</clus>
<clus scale="   91.135">  7  8 -1 -1</clus>
<clus scale="  126.441">  2  5  1 -1</clus>
<clus scale="   28.307">  2  5  1 -1</clus>
</clustering>
</event>
<event>
10    4  0.5389768E-005  0.9358568E+02  0.7546771E-02  0.1301287E+00
         -3   -1    0    0    0  501 -0.00000000000E+00  0.00000000000E+00  0.16218753121E+03  0.16218753121E+03  0.00000000000E+00 0.  1.
         21   -1    0    0  503  502  0.00000000000E+00 -0.00000000000E+00 -0.18004990610E+03  0.18004990610E+03  0.00000000000E+00 0.  1.
         23    2    1    2    0    0  0.42718069274E+02  0.46757525573E+01  0.17354665967E+02  0.10196493900E+03  0.90823830844E+02 0.  0.
         24    2    1    2    0    0  0.10512562973E+02 -0.17599730094E+01 -0.61918991319E+02  0.10111860430E+03  0.79230039534E+02 0.  0.
        -11    1    4    4    0    0  0.11194336074E+02  0.36181899658E+02 -0.46957162440E+02  0.60327590101E+02  0.00000000000E+00 0.  1.
         12    1    4    4    0    0 -0.68177310089E+00 -0.37941872667E+02 -0.14961828879E+02  0.40791014200E+02  0.00000000000E+00 0. -1.
        -11    1    3    3    0    0  0.15257389100E+02  0.44218028598E+02  0.25286543013E+02  0.53173595260E+02  0.00000000000E+00 0.  1.
         11    1    3    3    0    0  0.27460680174E+02 -0.39542276041E+02 -0.79318770462E+01  0.48791343736E+02  0.00000000000E+00 0. -1.
         21    1    1    2  503  501 -0.32847755961E+02  0.56254154347E+02  0.38211069168E+02  0.75522120998E+02  0.00000000000E+00 0.  1.
         -4    1    1    2    0  502 -0.20382876286E+02 -0.59169933895E+02 -0.11509118705E+02  0.63631773009E+02  0.00000000000E+00 0.  1.
<scales pt_clust_5="13000.00000" pt_clust_6="13000.00000" pt_clust_7="13000.00000" pt_clust_8="13000.00000" pt_clust_9="60.11932" pt_clust_10="62.58229"></scales>
<clustering>
<clus scale="   62.582">  2 10  1 -1</clus>
<clus scale="   60.119">  1  9  2 -1</clus>
<clus scale="   79.230">  5  6 -1 -1</clus>
<clus scale="   82.381">  2  5  1 -1</clus>
<clus scale="   90.824">  7  8 -1 -1</clus>
<clus scale="   62.582">  2  5  1 -1</clus>
</clustering>
</event>
<event>
10    4  0.5389768E-005  0.1725759E+03  0.7546771E-02  0.1194915E+00
          2   -1    0    0  503    0 -0.00000000000E+00  0.00000000000E+00  0.20740820926E+03  0.20740820926E+03  0.00000000000E+00 0. -1.
         21   -1    0    0  501  502  0.00000000000E+00 -0.00000000000E+00 -0.59369394289E+03  0.59369394289E+03  0.00000000000E+00 0. -1.
         23    2    1    2    0    0 -0.64913958671E+02 -0.30428364094E+02 -0.12656859349E+03  0.17001338045E+03  0.88007007133E+02 0.  0.
         24    2    1    2    0    0 -0.92710125407E+02  0.10597413961E+03  0.89087511335E+02  0.18502085201E+03  0.80439078701E+02 0.  0.
        -13    1    4    4    0    0 -0.12915578807E+02  0.37966170553E+02 -0.93821701490E+01  0.41185766948E+02  0.00000000000E+00 0.  1.
         14    1    4    4    0    0 -0.79794546599E+02  0.68007969057E+02  0.98469681484E+02  0.14383508506E+03  0.00000000000E+00 0. -1.
        -13    1    3    3    0    0 -0.60287832347E+02  0.18084624931E+02 -0.55966382606E+02  0.84225366547E+02  0.00000000000E+00 0. -1.
         13    1    3    3    0    0 -0.46261263242E+01 -0.48512989025E+02 -0.70602210882E+02  0.85788013908E+02  0.00000000000E+00 0.  1.
         21    1    1    2  503  502  0.28636594963E+02  0.95350263361E+01  0.26521101103E+02  0.40178851427E+02  0.00000000000E+00 0. -1.
          1    1    1    2  501    0  0.12898748911E+03 -0.85080801852E+02 -0.37532575258E+03  0.40588906827E+03  0.00000000000E+00 0. -1.
<scales pt_clust_5="13000.00000" pt_clust_6="13000.00000" pt_clust_7="13000.00000" pt_clust_8="13000.00000" pt_clust_9="30.18230" pt_clust_10="152.68261"></scales>
<clustering>
<clus scale="   30.182">  1  9  2 -1</clus>
<clus scale="   80.439">  5  6 -1 -1</clus>
<clus scale="   88.007">  7  8 -1 -1</clus>
<clus scale="  111.188">  1  7  2 -1</clus>
<clus scale="  152.683">  2 10  1 -1</clus>
<clus scale="  152.683">  2  5  1 -1</clus>
</clustering>
</event>
<event>
10    4  0.5389768E-005  0.1548062E+03  0.7546771E-02  0.1197154E+00
          2   -1    0    0  503    0 -0.00000000000E+00  0.00000000000E+00  0.51899248203E+03  0.51899248203E+03  0.00000000000E+00 0. -1.
         21   -1    0    0  501  502  0.00000000000E+00 -0.00000000000E+00 -0.14073134595E+03  0.14073134595E+03  0.00000000000E+00 0.  1.
         23    2    1    2    0    0 -0.67492158348E+01  0.12891710844E+03  0.31130144145E+03  0.34851650275E+03  0.88825629617E+02 0.  0.
         24    2    1    2    0    0 -0.10232139883E+01 -0.12210005219E+03  0.91333761130E+02  0.16938552439E+03  0.73757238559E+02 0.  0.
        -11    1    4    4    0    0 -0.12959079737E+02 -0.11778600234E+03  0.99127567009E+02  0.15449192417E+03  0.00000000000E+00 0.  1.
         12    1    4    4    0    0  0.11935865749E+02 -0.43140498498E+01 -0.77938058790E+01  0.14893600215E+02  0.00000000000E+00 0. -1.
        -13    1    3    3    0    0  0.40384480679E+02  0.74227787987E+02  0.16735608711E+03  0.18747994742E+03  0.00000000000E+00 0.  1.
         13    1    3    3    0    0 -0.47133696513E+02  0.54689320452E+02  0.14394535434E+03  0.16103655534E+03  0.00000000000E+00 0. -1.
         21    1    1    2  503  502  0.26607538879E+02 -0.26312438928E+02  0.50120190264E+02  0.62548693349E+02  0.00000000000E+00 0. -1.
          1    1    1    2  501    0 -0.18835109056E+02  0.19495382676E+02 -0.74494256769E+02  0.79273107485E+02  0.00000000000E+00 0. -1.
<scales pt_clust_5="13000.00000" pt_clust_6="13000.00000" pt_clust_7="13000.00000" pt_clust_8="13000.00000" pt_clust_9="34.78301" pt_clust_10="27.10777"></scales>
<clustering>
<clus scale="   27.108">  2 10  1 -1</clus>
<clus scale="   34.783">  2  9  1 -1</clus>
<clus scale="   73.757">  5  6 -1 -1</clus>
<clus scale="   88.826">  7  8 -1 -1</clus>
<clus scale="  146.680">  2  5  1 -1</clus>
<clus scale="   27.108">  2  5  1 -1</clus>
</clustering>
</event>
<event>
10    4  0.5389768E-005  0.3624245E+03  0.7546771E-02  0.1104533E+00
         21   -1    0    0  501  502  0.00000000000E+00  0.00000000000E+00  0.27051936451E+03  0.27051936451E+03  0.00000000000E+00 0.  1.
          2   -1    0    0  503    0 -0.00000000000E+00 -0.00000000000E+00 -0.72332232197E+03  0.72332232197E+03  0.00000000000E+00 0. -1.
         23    2    1    2    0    0  0.46307361069E+02 -0.16354587516E+02 -0.10988566933E+03  0.15154720523E+03  0.92086105723E+02 0.  0.
         24    2    1    2    0    0 -0.31946167862E+03  0.18295032130E+03 -0.21819713475E+03  0.43584074370E+03  0.82586803312E+02 0.  0.
        -11    1    4    4    0    0 -0.31111983794E+03  0.16320679016E+03 -0.18701671896E+03  0.39800409933E+03  0.00000000000E+00 0.  1.
         12    1    4    4    0    0 -0.83418406771E+01  0.19743531146E+02 -0.31180415786E+02  0.37836644362E+02  0.00000000000E+00 0. -1.
        -11    1    3    3    0    0  0.27064232518E+02  0.74848918357E+01 -0.11680987285E+03  0.12013759895E+03  0.00000000000E+00 0.  1.
         11    1    3    3    0    0  0.19243128551E+02 -0.23839479351E+02  0.69242035172E+01  0.31409606278E+02  0.00000000000E+00 0. -1.
         21    1    1    2  503  502 -0.13181435442E+02  0.22597690234E+02 -0.48185288565E+02  0.54829078766E+02  0.00000000000E+00 0. -1.
          1    1    1    2  501    0  0.28633575299E+03 -0.18919342402E+03 -0.76534864813E+02  0.35162465879E+03  0.00000000000E+00 0. -1.
<scales pt_clust_5="13000.00000" pt_clust_6="13000.00000" pt_clust_7="13000.00000" pt_clust_8="13000.00000" pt_clust_9="26.16115" pt_clust_10="352.88942"></scales>
<clustering>
<clus scale="   26.161">  2  9  1 -1</clus>
<clus scale="   82.587">  5  6 -1 -1</clus>
<clus scale="   92.086">  7  8 -1 -1</clus>
<clus scale="  102.646">  2  7  1 -1</clus>
<clus scale="  352.889">  1 10  2 -1</clus>
<clus scale="  352.889">  1  5  2 -1</clus>
</clustering>
</event>
<event>
10    4  0.5389768E-005  0.4399306E+03  0.7546771E-02  0.1031008E+00
         -1   -1    0    0    0  501 -0.00000000000E+00  0.00000000000E+00  0.43697768968E+03  0.43697768968E+03  0.00000000000E+00 0.  1.
         21   -1    0    0  503  502  0.00000000000E+00 -0.00000000000E+00 -0.10236342174E+04  0.10236342174E+04  0.00000000000E+00 0.  1.
         23    2    1    2    0    0 -0.20243928723E+03  0.41529542879E+03 -0.18068775233E+03  0.50494942348E+03  0.94201370712E+02 0.  0.
         24    2    1    2    0    0  0.10209820869E+03 -0.40350487758E+03 -0.58905152342E+03  0.72551284235E+03  0.78402530077E+02 0.  0.
        -13    1    4    4    0    0  0.72641598072E+02 -0.23703648141E+03 -0.28598579478E+03  0.37848509892E+03  0.00000000000E+00 0.  1.
         14    1    4    4    0    0  0.29456610618E+02 -0.16646839617E+03 -0.30306572864E+03  0.34702774343E+03  0.00000000000E+00 0. -1.
        -13    1    3    3    0    0 -0.20277163149E+03  0.33908584648E+03 -0.14580081397E+03  0.42113349804E+03  0.00000000000E+00 0.  1.
         13    1    3    3    0    0  0.33234426261E+00  0.76209582313E+02 -0.34886938365E+02  0.83815925441E+02  0.00000000000E+00 0. -1.
         21    1    1    2  503  501  0.77057874710E+02 -0.16088521114E+02  0.18985146672E+03  0.20552453864E+03  0.00000000000E+00 0. -1.
         -2    1    1    2    0  502  0.23283203828E+02  0.42979698968E+01 -0.67687186886E+01  0.24625102608E+02  0.00000000000E+00 0.  1.
<scales pt_clust_5="13000.00000" pt_clust_6="13000.00000" pt_clust_7="13000.00000" pt_clust_8="13000.00000" pt_clust_9="78.88988" pt_clust_10="23.67659"></scales>
<clustering>
<clus scale="   23.677">  2 10  1 -1</clus>
<clus scale="   78.403">  5  6 -1 -1</clus>
<clus scale="   78.890">  1  9  2 -1</clus>
<clus scale="   94.201">  7  8 -1 -1</clus>
<clus scale="  436.820">  2  5  1 -1</clus>
<clus scale="   23.677">  2  5  1 -1</clus>
</clustering>
</event>
<event>
10    4  0.5389768E-005  0.1547709E+03  0.7546771E-02  0.1210915E+00
         21   -1    0    0  501  502  0.00000000000E+00  0.00000000000E+00  0.10808334689E+04  0.10808334689E+04  0.00000000000E+00 0.  1.
          2   -1    0    0  503    0 -0.00000000000E+00 -0.00000000000E+00 -0.10228597289E+03  0.10228597289E+03  0.00000000000E+00 0. -1.
         23    2    1    2    0    0  0.53356246351E+02 -0.34195710866E+02  0.31999556469E+03  0.33807683616E+03  0.88783726332E+02 0.  0.
         24    2    1    2    0    0 -0.82146162852E+02  0.62096913592E+01  0.16671381501E+02  0.11558454786E+03  0.79342929142E+02 0.  0.
        -13    1    4    4    0    0  0.32125587826E+01  0.22774400825E+02 -0.93432380095E+01  0.24825188083E+02  0.00000000000E+00 0.  1.
         14    1    4    4    0    0 -0.85358721635E+02 -0.16564709466E+02  0.26014619511E+02  0.90759359777E+02  0.00000000000E+00 0. -1.
        -13    1    3    3    0    0  0.46192359088E+02  0.20779753572E+02  0.19243558785E+03  0.19898991851E+03  0.00000000000E+00 0.  1.
         13    1    3    3    0    0  0.71638872627E+01 -0.54975464438E+02  0.12755997683E+03  0.13908691764E+03  0.00000000000E+00 0. -1.
         21    1    1    2  503  502 -0.12776889350E+03 -0.23630304409E+02  0.10264519316E+03  0.16558779276E+03  0.00000000000E+00 0. -1.
          1    1    1    2  501    0  0.15655881000E+03  0.51616323916E+02  0.53923535670E+03  0.56387026504E+03  0.00000000000E+00 0. -1.
<scales pt_clust_5="13000.00000" pt_clust_6="13000.00000" pt_clust_7="13000.00000" pt_clust_8="13000.00000" pt_clust_9="154.77092" pt_clust_10="13000.00000"></scales>
<clustering>
<clus scale="   79.343">  5  6 -1 -1</clus>
<clus scale="   88.784">  7  8 -1 -1</clus>
<clus scale="  109.082">  2  7  1 -1</clus>
<clus scale="   96.628">  2  5  1 -1</clus>
<clus scale="  154.771">  2  9  1 -1</clus>
<clus scale="  154.771">  1  5  2 -1</clus>
</clustering>
</event>
<event>
10    4  0.5389768E-005  0.2024079E+03  0.7546771E-02  0.1184232E+00
         -1   -1    0    0    0  501 -0.00000000000E+00  0.00000000000E+00  0.31709188675E+03  0.31709188675E+03  0.00000000000E+00 0.  1.
         21   -1    0    0  503  502  0.00000000000E+00 -0.00000000000E+00 -0.31225419268E+03  0.31225419268E+03  0.00000000000E+00 0. -1.
         24    2    1    2    0    0 -0.34939467703E+02 -0.60991987060E+01  0.42350500968E+02  0.97010338326E+02  0.79746311398E+02 0.  0.
         23    2    1    2    0    0 -0.12462263439E+03  0.15052386416E+03 -0.13875924738E+03  0.25651881960E+03  0.91430527691E+02 0.  0.
        -13    1    3    3    0    0 -0.49546614600E+02 -0.10516432943E+02  0.56724052196E+02  0.76046567823E+02  0.00000000000E+00 0.  1.
         14    1    3    3    0    0  0.14607146897E+02  0.44172342370E+01 -0.14373551228E+02  0.20963770503E+02  0.00000000000E+00 0. -1.
        -11    1    4    4    0    0 -0.17515483275E+02  0.65352298745E+02 -0.87003831165E+02  0.11021516113E+03  0.00000000000E+00 0.  1.
         11    1    4    4    0    0 -0.10710715111E+03  0.85171565413E+02 -0.51755416210E+02  0.14630365847E+03  0.00000000000E+00 0. -1.
         21    1    1    2  503  501  0.14936204708E+01 -0.87978927059E+02  0.44764669606E+02  0.98723847947E+02  0.00000000000E+00 0.  1.
         -2    1    1    2    0  502  0.15806848162E+03 -0.56445738393E+02  0.56481770870E+02  0.17709307357E+03  0.00000000000E+00 0.  1.
<scales pt_clust_5="13000.00000" pt_clust_6="13000.00000" pt_clust_7="13000.00000" pt_clust_8="13000.00000" pt_clust_9="90.16232" pt_clust_10="180.58092"></scales>
<clustering>
<clus scale="   79.746">  5  6 -1 -1</clus>
<clus scale="   87.278">  1  5  2 -1</clus>
<clus scale="   90.162">  1  9  2 -1</clus>
<clus scale="   91.431">  7  8 -1 -1</clus>
<clus scale="  180.581">  2 10  1 -1</clus>
<clus scale="  180.581">  2  5  1 -1</clus>
</clustering>
</event>
<event>
10    4  0.5389768E-005  0.1347108E+03  0.7546771E-02  0.1223523E+00
         21   -1    0    0  501  502  0.00000000000E+00  0.00000000000E+00  0.13334912577E+03  0.13334912577E+03  0.00000000000E+00 0.  1.
          2   -1    0    0  503    0 -0.00000000000E+00 -0.00000000000E+00 -0.47172004380E+03  0.47172004380E+03  0.00000000000E+00 0. -1.
         24    2    1    2    0    0  0.68388148594E+02  0.11283970172E+03 -0.23151660521E+02  0.15550537321E+03  0.78969516641E+02 0.  0.
         23    2    1    2    0    0 -0.60383677469E+02 -0.41598742397E+02 -0.31487339030E+02  0.12113912441E+03  0.91140501802E+02 0.  0.
        -11    1    3    3    0    0  0.13348626833E+01  0.76980903748E+02 -0.19267829535E+02  0.79366810792E+02  0.00000000000E+00 0.  1.
         12    1    3    3    0    0  0.67053285911E+02  0.35858797976E+02 -0.38838309860E+01  0.76138562417E+02  0.00000000000E+00 0. -1.
        -11    1    4    4    0    0 -0.14744169707E+02  0.24485768893E+02 -0.29102678785E+02  0.40791044741E+02  0.00000000000E+00 0.  1.
         11    1    4    4    0    0 -0.45639507762E+02 -0.66084511290E+02 -0.23846602455E+01  0.80348079664E+02  0.00000000000E+00 0. -1.
         21    1    1    2  503  502 -0.21129137699E+02 -0.42767283596E+02 -0.29210386431E+03  0.29597322269E+03  0.00000000000E+00 0. -1.
          1    1    1    2  501    0  0.13124666573E+02 -0.28473675731E+02  0.83719458298E+01  0.32451449264E+02  0.00000000000E+00 0. -1.
<scales pt_clust_5="13000.00000" pt_clust_6="13000.00000" pt_clust_7="13000.00000" pt_clust_8="13000.00000" pt_clust_9="48.04154" pt_clust_10="31.35294"></scales>
<clustering>
<clus scale="   31.353">  1 10  2 -1</clus>
<clus scale="   48.042">  2  9  1 -1</clus>
<clus scale="   78.970">  5  6 -1 -1</clus>
<clus scale="   91.141">  7  8 -1 -1</clus>
<clus scale="  126.794">  2  5  1 -1</clus>
<clus scale="   31.353">  1  5  2 -1</clus>
</clustering>
</event>
<event>
10    4  0.5389768E-005  0.1001861E+03  0.7546771E-02  0.1283717E+00
         21   -1    0    0  503  502  0.00000000000E+00  0.00000000000E+00  0.13845943657E+03  0.13845943657E+03  0.00000000000E+00 0. -1.
         -1   -1    0    0    0  501 -0.00000000000E+00 -0.00000000000E+00 -0.31434957990E+03  0.31434957990E+03  0.00000000000E+00 0.  1.
         23    2    1    2    0    0  0.25165492007E+02 -0.18346896601E+02 -0.12918199000E+03  0.16142767493E+03  0.91656953314E+02 0.  0.
         24    2    1    2    0    0  0.16266923040E+02  0.53945411825E+02  0.14072442033E+02  0.10208684516E+03  0.83958144858E+02 0.  0.
        -11    1    4    4    0    0  0.42625871900E+02  0.75574820832E+01 -0.85639741352E+01  0.44129606203E+02  0.00000000000E+00 0.  1.
         12    1    4    4    0    0 -0.26358948860E+02  0.46387929742E+02  0.22636416168E+02  0.57957238959E+02  0.00000000000E+00 0. -1.
        -13    1    3    3    0    0  0.58087096165E+01 -0.34081807502E+02 -0.13188027146E+03  0.13633677681E+03  0.00000000000E+00 0.  1.
         13    1    3    3    0    0  0.19356782390E+02  0.15734910901E+02  0.26982814657E+01  0.25090898119E+02  0.00000000000E+00 0. -1.
         21    1    1    2  503  501 -0.67552167195E+01 -0.22955287870E+02 -0.11844004588E+03  0.12083303630E+03  0.00000000000E+00 0.  1.
         -2    1    1    2    0  502 -0.34677198327E+02 -0.12643227355E+02  0.57659450514E+02  0.68461460073E+02  0.00000000000E+00 0.  1.
<scales pt_clust_5="13000.00000" pt_clust_6="13000.00000" pt_clust_7="13000.00000" pt_clust_8="13000.00000" pt_clust_9="23.92861" pt_clust_10="37.30813"></scales>
<clustering>
<clus scale="   23.929">  2  9  1 -1</clus>
<clus scale="   37.308">  1 10  2 -1</clus>
<clus scale="   83.958">  5  6 -1 -1</clus>
<clus scale="   91.657">  7  8 -1 -1</clus>
<clus scale="   93.195">  1  5  2 -1</clus>
<clus scale="   37.308">  1  5  2 -1</clus>
</clustering>
</event>
<event>
10    4  0.5389768E-005  0.9113070E+02  0.7546771E-02  0.1305072E+00
         21   -1    0    0  503  502  0.00000000000E+00  0.00000000000E+00  0.12767992701E+03  0.12767992701E+03  0.00000000000E+00 0.  1.
         -3   -1    0    0    0  501 -0.00000000000E+00 -0.00000000000E+00 -0.43864980294E+03  0.43864980294E+03  0.00000000000E+00 0.  1.
         24    2    1    2    0    0 -0.22100162416E+00 -0.19980488918E+02 -0.34096685765E+03  0.35138346072E+03  0.82538897944E+02 0.  0.
         23    2    1    2    0    0  0.28924418786E+02 -0.15827609812E+02 -0.20794784247E+02  0.98534049547E+02  0.90495307247E+02 0.  0.
        -11    1    3    3    0    0 -0.13593707130E+02 -0.30787169497E+02 -0.52221577316E+02  0.62126739947E+02  0.00000000000E+00 0.  1.
         12    1    3    3    0    0  0.13372705506E+02  0.10806680579E+02 -0.28874528033E+03  0.28925672077E+03  0.00000000000E+00 0. -1.
        -13    1    4    4    0    0 -0.11280875189E+02 -0.39626063957E+02  0.10228595971E+02  0.42451233967E+02  0.00000000000E+00 0.  1.
         13    1    4    4    0    0  0.40205293975E+02  0.23798454145E+02 -0.31023380217E+02  0.56082815580E+02  0.00000000000E+00 0. -1.
         21    1    1    2  503  501  0.18676114805E+02  0.76922087099E+01 -0.18839984960E+02  0.27620868421E+02  0.00000000000E+00 0. -1.
         -4    1    1    2    0  502 -0.47379531967E+02  0.28115890020E+02  0.69631750931E+02  0.88791351261E+02  0.00000000000E+00 0.  1.
<scales pt_clust_5="13000.00000" pt_clust_6="13000.00000" pt_clust_7="13000.00000" pt_clust_8="13000.00000" pt_clust_9="20.19820" pt_clust_10="54.81518"></scales>
<clustering>
<clus scale="   20.198">  2  9  1 -1</clus>
<clus scale="   54.815">  1 10  2 -1</clus>
<clus scale="   82.539">  5  6 -1 -1</clus>
<clus scale="   83.235">  2  5  1 -1</clus>
<clus scale="   90.495">  7  8 -1 -1</clus>
<clus scale="   54.815">  1  5  2 -1</clus>
</clustering>
</event>
<event>
10    4  0.5389768E-005  0.1780478E+03  0.7546771E-02  0.1170781E+00
         21   -1    0    0  501  502  0.00000000000E+00  0.00000000000E+00  0.22975724161E+03  0.22975724161E+03  0.00000000000E+00 0. -1.
          2   -1    0    0  503    0 -0.00000000000E+00 -0.00000000000E+00 -0.46522773080E+03  0.46522773080E+03  0.00000000000E+00 0. -1.
         24    2    1    2    0    0  0.19336434553E+02  0.15439052275E+03 -0.73001393861E+02  0.18997034023E+03  0.80927099559E+02 0.  0.
         23    2    1    2    0    0  0.10467060477E+03 -0.13961026457E+03  0.52386086171E+02  0.20312717519E+03  0.89829760105E+02 0.  0.
        -11    1    3    3    0    0 -0.29217271872E+02  0.59194490142E+02 -0.12553746525E+02  0.67195484898E+02  0.00000000000E+00 0.  1.
         12    1    3    3    0    0  0.48553706425E+02  0.95196032612E+02 -0.60447647337E+02  0.12277485533E+03  0.00000000000E+00 0. -1.
        -13    1    4    4    0    0  0.49463516529E+02 -0.34306386320E+02 -0.20589951790E+02  0.63620073283E+02  0.00000000000E+00 0.  1.
         13    1    4    4    0    0  0.55207088244E+02 -0.10530387825E+03  0.72976037961E+02  0.13950710191E+03  0.00000000000E+00 0. -1.
         21    1    1    2  503  502 -0.41740013380E+02  0.31526936991E+01 -0.21361689241E+03  0.21767945452E+03  0.00000000000E+00 0.  1.
          1    1    1    2  501    0 -0.82267025945E+02 -0.17932951884E+02 -0.12382890902E+01  0.84208002476E+02  0.00000000000E+00 0. -1.
<scales pt_clust_5="13000.00000" pt_clust_6="13000.00000" pt_clust_7="13000.00000" pt_clust_8="13000.00000" pt_clust_9="41.85891" pt_clust_10="91.08814"></scales>
<clustering>
<clus scale="   41.859">  2  9  1 -1</clus>
<clus scale="   80.927">  5  6 -1 -1</clus>
<clus scale="   89.830">  7  8 -1 -1</clus>
<clus scale="   91.088">  1 10  2 -1</clus>
<clus scale="  173.726">  2  5  1 -1</clus>
<clus scale="   91.088">  1  5  2 -1</clus>
</clustering>
</event>
<event>
10    4  0.5389768E-005  0.1206901E+03  0.7546771E-02  0.1251583E+00
          2   -1    0    0  503    0 -0.00000000000E+00  0.00000000000E+00  0.24253988799E+03  0.24253988799E+03  0.00000000000E+00 0. -1.
         21   -1    0    0  501  502  0.00000000000E+00 -0.00000000000E+00 -0.29432272297E+03  0.29432272297E+03  0.00000000000E+00 0. -1.
         23    2    1    2    0    0 -0.33093130628E+02  0.34245906730E+02  0.10468551463E+03  0.14736525533E+03  0.92138613415E+02 0.  0.
         24    2    1    2    0    0 -0.91409325927E+02 -0.46169697125E+02 -0.12092692288E+03  0.17366889712E+03  0.71065176778E+02 0.  0.
        -11    1    4    4    0    0 -0.14530804312E+02  0.18247775801E+02 -0.32170657059E+02  0.39737598961E+02  0.00000000000E+00 0.  1.
         12    1    4    4    0    0 -0.76878521615E+02 -0.64417472925E+02 -0.88756265817E+02  0.13393129816E+03  0.00000000000E+00 0. -1.
        -13    1    3    3    0    0  0.29441833251E+02  0.19210445517E+02  0.58253591564E+02  0.68039280510E+02  0.00000000000E+00 0.  1.
         13    1    3    3    0    0 -0.62534963879E+02  0.15035461213E+02  0.46431923062E+02  0.79325974816E+02  0.00000000000E+00 0. -1.
         21    1    1    2  503  502  0.28284817705E+02  0.16358302864E+01  0.68267449792E+02  0.73913135195E+02  0.00000000000E+00 0. -1.
          1    1    1    2  501    0  0.96217638850E+02  0.10287960108E+02 -0.10380887653E+03  0.14191532333E+03  0.00000000000E+00 0. -1.
<scales pt_clust_5="13000.00000" pt_clust_6="13000.00000" pt_clust_7="13000.00000" pt_clust_8="13000.00000" pt_clust_9="28.33208" pt_clust_10="97.54913"></scales>
<clustering>
<clus scale="   28.332">  1  9  2 -1</clus>
<clus scale="   71.065">  5  6 -1 -1</clus>
<clus scale="   92.139">  7  8 -1 -1</clus>
<clus scale="   99.486">  1  7  2 -1</clus>
<clus scale="   97.549">  2 10  1 -1</clus>
<clus scale="   97.549">  2  5  1 -1</clus>
</clustering>
</event>
<event>
10    4  0.5389768E-005  0.1781264E+03  0.7546771E-02  0.1201787E+00
         21   -1    0    0  503  502  0.00000000000E+00  0.00000000000E+00  0.10318783900E+03  0.10318783900E+03  0.00000000000E+00 0.  1.
          2   -1    0    0  502    0 -0.00000000000E+00 -0.00000000000E+00 -0.73232251731E+03  0.73232251731E+03  0.00000000000E+00 0. -1.
         24    2    1    2    0    0  0.29857590971E+02 -0.20039404872E+02 -0.22461983199E+03  0.24102625889E+03  0.79665143349E+02 0.  0.
         23    2    1    2    0    0 -0.48990273680E+02  0.15462436857E+03 -0.37682711010E+02  0.19009875486E+03  0.91699550803E+02 0.  0.
        -11    1    3    3    0    0  0.10038302961E+02 -0.50259319769E+02 -0.13380959571E+03  0.14328912958E+03  0.00000000000E+00 0.  1.
         12    1    3    3    0    0  0.19819288010E+02  0.30219914897E+02 -0.90810236279E+02  0.97737129314E+02  0.00000000000E+00 0. -1.
        -13    1    4    4    0    0 -0.23245003628E+02  0.15400147147E+03 -0.16245010308E+02  0.15659081636E+03  0.00000000000E+00 0.  1.
         13    1    4    4    0    0 -0.25745270052E+02  0.62289710126E+00 -0.21437700701E+02  0.33507938495E+02  0.00000000000E+00 0. -1.
         21    1    1    2  503  501 -0.19079104970E+02 -0.98140576520E+01 -0.85788876487E+01  0.23106823393E+02  0.00000000000E+00 0. -1.
          1    1    1    2  501    0  0.38211787679E+02 -0.12477090605E+03 -0.35825324767E+03  0.38127851917E+03  0.00000000000E+00 0. -1.
<scales pt_clust_5="13000.00000" pt_clust_6="13000.00000" pt_clust_7="13000.00000" pt_clust_8="13000.00000" pt_clust_9="21.45526" pt_clust_10="152.70957"></scales>
<clustering>
<clus scale="   21.455">  1  9  2 -1</clus>
<clus scale="   79.665">  5  6 -1 -1</clus>
<clus scale="   87.058">  2  5  1 -1</clus>
<clus scale="   91.700">  7  8 -1 -1</clus>
<clus scale="  152.710">  1 10  2 -1</clus>
<clus scale="   21.455">  1  5  2 -1</clus>
</clustering>
</event>
<event>
10    4  0.5389768E-005  0.2213398E+03  0.7546771E-02  0.1163795E+00
         -3   -1    0    0    0  501 -0.00000000000E+00  0.00000000000E+00  0.27593659045E+03  0.27593659045E+03  0.00000000000E+00 0.  1.
         21   -1    0    0  501  502  0.00000000000E+00 -0.00000000000E+00 -0.28244951041E+03  0.28244951041E+03  0.00000000000E+00 0.  1.
         23    2    1    2    0    0  0.37397698985E+02  0.42052554254E+02  0.36905147538E+02  0.11240477982E+03  0.90032435277E+02 0.  0.
         24    2    1    2    0    0  0.23052153560E+01  0.18587781062E+03 -0.14768587023E+02  0.20281776242E+03  0.79756247996E+02 0.  0.
        -11    1    4    4    0    0 -0.22212720507E+01  0.19268796619E+03 -0.91917560169E+01  0.19291986612E+03  0.00000000000E+00 0.  1.
         12    1    4    4    0    0  0.45264874067E+01 -0.68101555746E+01 -0.55768310065E+01  0.98978963052E+01  0.00000000000E+00 0. -1.
        -13    1    3    3    0    0  0.53110979023E+02  0.81228925660E+01 -0.76150181398E+01  0.54265513705E+02  0.00000000000E+00 0.  1.
         13    1    3    3    0    0 -0.15713280038E+02  0.33929661688E+02  0.44520165678E+02  0.58139266110E+02  0.00000000000E+00 0. -1.
         21    1    1    2  503  502  0.40706896653E+01 -0.13325203250E+03 -0.37480189621E+02  0.13848263174E+03  0.00000000000E+00 0.  1.
         -4    1    1    2    0  503 -0.43773604006E+02 -0.94678332372E+02  0.88307091419E+01  0.10468092688E+03  0.00000000000E+00 0.  1.
<scales pt_clust_5="13000.00000" pt_clust_6="13000.00000" pt_clust_7="13000.00000" pt_clust_8="13000.00000" pt_clust_9="61.14987" pt_clust_10="217.73711"></scales>
<clustering>
<clus scale="   61.150">  9 10 -1 -1</clus>
<clus scale="   79.756">  5  6 -1 -1</clus>
<clus scale="   90.032">  7  8 -1 -1</clus>
<clus scale="  106.174">  1  7  2 -1</clus>
<clus scale="  217.737">  2  9  1 -1</clus>
<clus scale="  217.737">  2  5  1 -1</clus>
</clustering>
</event>
<event>
10    4  0.5389768E-005  0.9767933E+02  0.7546771E-02  0.1290520E+00
          2   -1    0    0  503    0 -0.00000000000E+00  0.00000000000E+00  0.90805145205E+03  0.90805145205E+03  0.00000000000E+00 0. -1.
         21   -1    0    0  501  502  0.00000000000E+00 -0.00000000000E+00 -0.27065717050E+02  0.27065717050E+02  0.00000000000E+00 0.  1.
         23    2    1    2    0    0 -0.34740476315E+02  0.24894140692E+02  0.49291302665E+03  0.50288130365E+03  0.89998526582E+02 0.  0.
         24    2    1    2    0    0 -0.21976629650E+00 -0.39520098001E+02  0.16352532626E+03  0.18624863039E+03  0.79913287704E+02 0.  0.
        -11    1    4    4    0    0 -0.30062086385E+02 -0.43720471968E+02  0.69036990522E+02  0.87070745761E+02  0.00000000000E+00 0.  1.
         12    1    4    4    0    0  0.29842320089E+02  0.42003739666E+01  0.94488335736E+02  0.99177884631E+02  0.00000000000E+00 0. -1.
        -13    1    3    3    0    0 -0.58572073341E+02  0.40301819517E+02  0.36461501062E+03  0.37148220738E+03  0.00000000000E+00 0.  1.
         13    1    3    3    0    0  0.23831597026E+02 -0.15407678825E+02  0.12829801603E+03  0.13139909627E+03  0.00000000000E+00 0. -1.
         21    1    1    2  503  502  0.47285821881E+02  0.45212032442E+02  0.17115456890E+03  0.18323199307E+03  0.00000000000E+00 0. -1.
          1    1    1    2  501    0 -0.12325579270E+02 -0.30586075133E+02  0.53392813199E+02  0.62755241993E+02  0.00000000000E+00 0. -1.
<scales pt_clust_5="13000.00000" pt_clust_6="13000.00000" pt_clust_7="13000.00000" pt_clust_8="13000.00000" pt_clust_9="57.43382" pt_clust_10="32.97617"></scales>
<clustering>
<clus scale="   32.976">  2 10  1 -1</clus>
<clus scale="   57.434">  2  9  1 -1</clus>
<clus scale="   79.913">  5  6 -1 -1</clus>
<clus scale="   88.474">  2  5  1 -1</clus>
<clus scale="   89.999">  7  8 -1 -1</clus>
<clus scale="   32.976">  2  5  1 -1</clus>
</clustering>
</event>
<event>
10    4  0.5389768E-005  0.1260052E+03  0.7546771E-02  0.1244541E+00
         -1   -1    0    0    0  501 -0.00000000000E+00  0.00000000000E+00  0.12005878833E+03  0.12005878833E+03  0.00000000000E+00 0.  1.
         21   -1    0    0  503  502  0.00000000000E+00 -0.00000000000E+00 -0.14199954853E+04  0.14199954853E+04  0.00000000000E+00 0. -1.
         23    2    1    2    0    0  0.39814469228E+01  0.46823326828E+02 -0.12587284493E+03  0.16226029080E+03  0.90973364367E+02 0.  0.
         24    2    1    2    0    0 -0.40662970669E+02  0.83518920783E+02 -0.11107721064E+04  0.11174280990E+04  0.78752757397E+02 0.  0.
        -11    1    4    4    0    0  0.12463962227E+02  0.44674067122E+02 -0.25921930736E+03  0.26333585388E+03  0.00000000000E+00 0.  1.
         12    1    4    4    0    0 -0.53126932896E+02  0.38844853660E+02 -0.85155279902E+03  0.85409224512E+03  0.00000000000E+00 0. -1.
        -13    1    3    3    0    0 -0.19402189326E+02  0.61498178309E+02 -0.11640731937E+03  0.13307567354E+03  0.00000000000E+00 0. -1.
         13    1    3    3    0    0  0.23383636249E+02 -0.14674851481E+02 -0.94655255614E+01  0.29184617256E+02  0.00000000000E+00 0.  1.
         21    1    1    2  503  501  0.81180778160E+02 -0.96696955441E+02  0.48640699403E+02  0.13530165399E+03  0.00000000000E+00 0.  1.
         -2    1    1    2    0  502 -0.44499254413E+02 -0.33645292169E+02 -0.11193244507E+03  0.12506422985E+03  0.00000000000E+00 0.  1.
<scales pt_clust_5="13000.00000" pt_clust_6="13000.00000" pt_clust_7="13000.00000" pt_clust_8="13000.00000" pt_clust_9="98.36322" pt_clust_10="55.78700"></scales>
<clustering>
<clus scale="   55.787">  2 10  1 -1</clus>
<clus scale="   78.753">  5  6 -1 -1</clus>
<clus scale="   90.973">  7  8 -1 -1</clus>
<clus scale="  100.671">  1  7  2 -1</clus>
<clus scale="   98.363">  1  9  2 -1</clus>
<clus scale="   55.787">  2  5  1 -1</clus>
</clustering>
</event>
<event>
10    4  0.5389768E-005  0.1221390E+03  0.7546771E-02  0.1243032E+00
          2   -1    0    0  503    0 -0.00000000000E+00  0.00000000000E+00  0.10673824437E+04  0.10673824437E+04  0.00000000000E+00 0. -1.
         21   -1    0    0  501  502  0.00000000000E+00 -0.00000000000E+00 -0.42339059431E+02  0.42339059431E+02  0.00000000000E+00 0. -1.
         24    2    1    2    0    0  0.52065843692E+02  0.71528163052E+02  0.40700936745E+03  0.42417118030E+03  0.80233626463E+02 0.  0.
         23    2    1    2    0    0 -0.96341686470E+02  0.51515121634E+01  0.39779846293E+03  0.41942991512E+03  0.91485397530E+02 0.  0.
        -11    1    3    3    0    0  0.11675925346E+02  0.50321690068E+02  0.88994532802E+02  0.10290105244E+03  0.00000000000E+00 0.  1.
         12    1    3    3    0    0  0.40389918346E+02  0.21206472984E+02  0.31801483465E+03  0.32127012787E+03  0.00000000000E+00 0. -1.
        -11    1    4    4    0    0 -0.94912706828E+02 -0.25715332779E+02  0.25447932358E+03  0.27281756979E+03  0.00000000000E+00 0. -1.
         11    1    4    4    0    0 -0.14289796420E+01  0.30866844942E+02  0.14331913935E+03  0.14661234533E+03  0.00000000000E+00 0.  1.
         21    1    1    2  503  502 -0.37987283874E+02 -0.44362285824E+02  0.11261325084E+03  0.12685736244E+03  0.00000000000E+00 0.  1.
          1    1    1    2  501    0  0.82263126652E+02 -0.32317389392E+02  0.10762230303E+03  0.13926304525E+03  0.00000000000E+00 0. -1.
<scales pt_clust_5="13000.00000" pt_clust_6="13000.00000" pt_clust_7="13000.00000" pt_clust_8="13000.00000" pt_clust_9="58.40416" pt_clust_10="83.54918"></scales>
<clustering>
<clus scale="   58.404">  2  9  1 -1</clus>
<clus scale="   80.234">  5  6 -1 -1</clus>
<clus scale="   83.549">  2 10  1 -1</clus>
<clus scale="   91.485">  7  8 -1 -1</clus>
<clus scale="  113.955">  1  5  2 -1</clus>
<clus scale="   58.404">  2  5  1 -1</clus>
</clustering>
</event>
<event>
10    4  0.5389768E-005  0.1149563E+03  0.7546771E-02  0.1255202E+00
         21   -1    0    0  503  502  0.00000000000E+00  0.00000000000E+00  0.35328450455E+03  0.35328450455E+03  0.00000000000E+00 0. -1.
         -1   -1    0    0    0  501 -0.00000000000E+00 -0.00000000000E+00 -0.17556304042E+03  0.17556304042E+03  0.00000000000E+00 0.  1.
         24    2    1    2    0    0 -0.58204693615E+02 -0.16693221133E+02 -0.64471130991E+02  0.12051235276E+03  0.81855057540E+02 0.  0.
         23    2    1    2    0    0  0.12449369058E+03  0.38784679731E+01  0.12916010378E+03  0.20157485825E+03  0.91849711826E+02 0.  0.
        -13    1    3    3    0    0 -0.51162189790E+02  0.25798491590E+02 -0.26652617154E+02  0.63194096509E+02  0.00000000000E+00 0.  1.
         14    1    3    3    0    0 -0.70425038245E+01 -0.42491712724E+02 -0.37818513837E+02  0.57318256247E+02  0.00000000000E+00 0. -1.
        -13    1    4    4    0    0  0.48046488003E+02 -0.42086466367E+02  0.68751736626E+02  0.93843150787E+02  0.00000000000E+00 0.  1.
         13    1    4    4    0    0  0.76447202581E+02  0.45964934340E+02  0.60408367150E+02  0.10773170746E+03  0.00000000000E+00 0. -1.
         21    1    1    2  503  501  0.19286608597E+02 -0.36995462943E+02 -0.15503372940E+02  0.44508337669E+02  0.00000000000E+00 0. -1.
         -2    1    1    2    0  502 -0.85575605567E+02  0.49810216103E+02  0.12853586428E+03  0.16225199630E+03  0.00000000000E+00 0.  1.
<scales pt_clust_5="13000.00000" pt_clust_6="13000.00000" pt_clust_7="13000.00000" pt_clust_8="13000.00000" pt_clust_9="41.72095" pt_clust_10="94.96546"></scales>
<clustering>
<clus scale="   41.721">  2  9  1 -1</clus>
<clus scale="   81.855">  5  6 -1 -1</clus>
<clus scale="   91.850">  7  8 -1 -1</clus>
<clus scale="   94.965">  1 10  2 -1</clus>
<clus scale="  107.139">  2  5  1 -1</clus>
<clus scale="   94.965">  1  5  2 -1</clus>
</clustering>
</event>
<event>
10    4  0.5389768E-005  0.1551258E+03  0.7546771E-02  0.1218277E+00
         -3   -1    0    0    0  501 -0.00000000000E+00  0.00000000000E+00  0.11776439954E+03  0.11776439954E+03  0.00000000000E+00 0.  1.
         21   -1    0    0  503  502  0.00000000000E+00 -0.00000000000E+00 -0.48093766775E+03  0.48093766775E+03  0.00000000000E+00 0. -1.
         24    2    1    2    0    0  0.42681453231E+02 -0.22235047407E+02 -0.15925924258E+03  0.18569621456E+03  0.82483173873E+02 0.  0.
         23    2    1    2    0    0 -0.26732391912E+02  0.13165601936E+03 -0.19213273203E+03  0.25103986502E+03  0.89766914299E+02 0.  0.
        -11    1    3    3    0    0 -0.20388221676E+02 -0.24825753231E+02 -0.47512779568E+02  0.57353830115E+02  0.00000000000E+00 0.  1.
         12    1    3    3    0    0  0.63069674908E+02  0.25907058237E+01 -0.11174646302E+03  0.12834238445E+03  0.00000000000E+00 0. -1.
        -13    1    4    4    0    0  0.25317162651E+02  0.36566393840E+02 -0.22795448694E+02  0.49976918315E+02  0.00000000000E+00 0.  1.
         13    1    4    4    0    0 -0.52049554563E+02  0.95089625522E+02 -0.16933728333E+03  0.20106294671E+03  0.00000000000E+00 0. -1.
         21    1    1    2  503  501 -0.45942496146E+02  0.42608876811E+00  0.72665257377E+01  0.46515555464E+02  0.00000000000E+00 0.  1.
         -4    1    1    2    0  502  0.29993434827E+02 -0.10984706072E+03 -0.19047819332E+02  0.11545043224E+03  0.00000000000E+00 0.  1.
<scales pt_clust_5="13000.00000" pt_clust_6="13000.00000" pt_clust_7="13000.00000" pt_clust_8="13000.00000" pt_clust_9="45.94447" pt_clust_10="126.51459"></scales>
<clustering>
<clus scale="   45.944">  1  9  2 -1</clus>
<clus scale="   82.483">  5  6 -1 -1</clus>
<clus scale="   89.767">  7  8 -1 -1</clus>
<clus scale="   92.688">  1  5  2 -1</clus>
<clus scale="  126.515">  2 10  1 -1</clus>
<clus scale="  126.515">  2  5  1 -1</clus>
</clustering>
</event>
<event>
10    4  0.5389768E-005  0.9988087E+02  0.7546771E-02  0.1286451E+00
          2   -1    0    0  503    0 -0.00000000000E+00  0.00000000000E+00  0.88585247272E+03  0.88585247272E+03  0.00000000000E+00 0. -1.
         21   -1    0    0  501  502  0.00000000000E+00 -0.00000000000E+00 -0.34224656898E+02  0.34224656898E+02  0.00000000000E+00 0.  1.
         24    2    1    2    0    0 -0.63702345900E+01  0.47070326840E+02  0.18997024031E+03  0.21198241442E+03  0.81189015638E+02 0.  0.
         23    2    1    2    0    0 -0.28266408302E+02 -0.20385376194E+02  0.10268360091E+03  0.14264671460E+03  0.92680148309E+02 0.  0.
        -11    1    3    3    0    0 -0.53207984402E+01  0.29846052412E+02  0.11104715028E+02  0.32286412567E+02  0.00000000000E+00 0.  1.
         12    1    3    3    0    0 -0.10494361498E+01  0.17224274428E+02  0.17886552528E+03  0.17969600185E+03  0.00000000000E+00 0. -1.
        -13    1    4    4    0    0 -0.38045893259E+02  0.26700042570E+02  0.71673352363E+02  0.85425123389E+02  0.00000000000E+00 0.  1.
         13    1    4    4    0    0  0.97794849571E+01 -0.47085418764E+02  0.31010248548E+02  0.57221591215E+02  0.00000000000E+00 0. -1.
         21    1    1    2  503  502 -0.20517627500E+02 -0.53511164852E+01  0.77230303305E+02  0.80088246544E+02  0.00000000000E+00 0.  1.
          1    1    1    2  501    0  0.55154270391E+02 -0.21333834161E+02  0.48174367129E+03  0.48535975405E+03  0.00000000000E+00 0. -1.
<scales pt_clust_5="13000.00000" pt_clust_6="13000.00000" pt_clust_7="13000.00000" pt_clust_8="13000.00000" pt_clust_9="21.20395" pt_clust_10="49.39062"></scales>
<clustering>
<clus scale="   21.204">  1  9  2 -1</clus>
<clus scale="   49.391">  2 10  1 -1</clus>
<clus scale="   81.189">  5  6 -1 -1</clus>
<clus scale="   89.321">  1  5  2 -1</clus>
<clus scale="   92.680">  7  8 -1 -1</clus>
<clus scale="   49.391">  2  5  1 -1</clus>
</clustering>
</event>
<event>
10    4  0.5389768E-005  0.1776447E+03  0.7546771E-02  0.1171293E+00
         21   -1    0    0  501  502  0.00000000000E+00  0.00000000000E+00  0.26640863869E+03  0.26640863869E+03  0.00000000000E+00 0.  1.
          2   -1    0    0  503    0 -0.00000000000E+00 -0.00000000000E+00 -0.46776824314E+03  0.46776824314E+03  0.00000000000E+00 0. -1.
         23    2    1    2    0    0 -0.12504697512E+02 -0.14236000557E+03 -0.34644273846E+03  0.38592617690E+03  0.92161295253E+02 0.  0.
         24    2    1    2    0    0  0.30138175079E+02  0.18130312310E+03  0.17053039437E+03  0.26397355843E+03  0.82597167642E+02 0.  0.
        -11    1    4    4    0    0 -0.13311378339E+02  0.14105002064E+03  0.12927062911E+03  0.19178945921E+03  0.00000000000E+00 0.  1.
         12    1    4    4    0    0  0.43449553418E+02  0.40253102462E+02  0.41259765260E+02  0.72184099214E+02  0.00000000000E+00 0. -1.
        -13    1    3    3    0    0 -0.41309759405E+02 -0.11541965228E+03 -0.30500714755E+03  0.32872108605E+03  0.00000000000E+00 0. -1.
         13    1    3    3    0    0  0.28805061892E+02 -0.26940353293E+02 -0.41435590907E+02  0.57205090858E+02  0.00000000000E+00 0.  1.
         21    1    1    2  503  502 -0.21196810666E+02 -0.33914740707E+01 -0.40238797843E+02  0.45606663226E+02  0.00000000000E+00 0.  1.
          1    1    1    2  501    0  0.35633330998E+01 -0.35551643452E+02  0.14791537478E+02  0.38670483265E+02  0.00000000000E+00 0. -1.
<scales pt_clust_5="13000.00000" pt_clust_6="13000.00000" pt_clust_7="13000.00000" pt_clust_8="13000.00000" pt_clust_9="21.46641" pt_clust_10="35.77027"></scales>
<clustering>
<clus scale="   21.466">  2  9  1 -1</clus>
<clus scale="   35.770">  1 10  2 -1</clus>
<clus scale="   82.597">  5  6 -1 -1</clus>
<clus scale="   92.161">  7  8 -1 -1</clus>
<clus scale="  172.876">  1  5  2 -1</clus>
<clus scale="   35.770">  1  5  2 -1</clus>
</clustering>
</event>
<event>
10    4  0.5389768E-005  0.9131481E+02  0.7546771E-02  0.1307532E+00
         21   -1    0    0  501  502  0.00000000000E+00  0.00000000000E+00  0.58054153339E+02  0.58054153339E+02  0.00000000000E+00 0.  1.
          2   -1    0    0  503    0 -0.00000000000E+00 -0.00000000000E+00 -0.38584737669E+03  0.38584737669E+03  0.00000000000E+00 0. -1.
         23    2    1    2    0    0 -0.11697672215E+02  0.51009031814E+01 -0.16608916126E+03  0.18958559426E+03  0.90522004598E+02 0.  0.
         24    2    1    2    0    0  0.29408151533E+02 -0.31610134903E+02 -0.33441887808E+02  0.95367782597E+02  0.78183208504E+02 0.  0.
        -11    1    4    4    0    0  0.37177351798E+02 -0.38424477534E+02  0.67301914465E+01  0.53887767048E+02  0.00000000000E+00 0.  1.
         12    1    4    4    0    0 -0.77692002647E+01  0.68143426315E+01 -0.40172079255E+02  0.41480015549E+02  0.00000000000E+00 0. -1.
        -13    1    3    3    0    0  0.21530872458E+02 -0.26324564500E+02 -0.11971980255E+03  0.12445638709E+03  0.00000000000E+00 0.  1.
         13    1    3    3    0    0 -0.33228544673E+02  0.31425467681E+02 -0.46369358706E+02  0.65129207172E+02  0.00000000000E+00 0. -1.
         21    1    1    2  503  502  0.23745210793E+02 -0.97874668856E+01 -0.85287774514E+02  0.89070949390E+02  0.00000000000E+00 0. -1.
          1    1    1    2  501    0 -0.41455690112E+02  0.36296698607E+02 -0.42974399773E+02  0.69877203781E+02  0.00000000000E+00 0. -1.
<scales pt_clust_5="13000.00000" pt_clust_6="13000.00000" pt_clust_7="13000.00000" pt_clust_8="13000.00000" pt_clust_9="25.68325" pt_clust_10="50.53109"></scales>
<clustering>
<clus scale="   25.683">  2  9  1 -1</clus>
<clus scale="   50.531">  1 10  2 -1</clus>
<clus scale="   78.183">  5  6 -1 -1</clus>
<clus scale="   79.100">  1  5  2 -1</clus>
<clus scale="   90.522">  7  8 -1 -1</clus>
<clus scale="   50.531">  1  5  2 -1</clus>
</clustering>
</event>
<event>
10    4  0.5389768E-005  0.2058739E+03  0.7546771E-02  0.1145795E+00
         21   -1    0    0  501  502  0.00000000000E+00  0.00000000000E+00  0.54297023383E+02  0.54297023383E+02  0.00000000000E+00 0. -1.
          2   -1    0    0  503    0 -0.00000000000E+00 -0.00000000000E+00 -0.16206109709E+04  0.16206109709E+04  0.00000000000E+00 0. -1.
         23    2    1    2    0    0 -0.14823081721E+03  0.68898729783E+02 -0.52516855319E+03  0.55743702110E+03  0.90634502813E+02 0.  0.
         24    2    1    2    0    0  0.22828919625E+03 -0.65222984443E+02 -0.54801061730E+03  0.60256005713E+03  0.79956181401E+02 0.  0.
        -11    1    4    4    0    0  0.12201106991E+03 -0.21923613291E+02 -0.37491261474E+03  0.39487569524E+03  0.00000000000E+00 0.  1.
         12    1    4    4    0    0  0.10627812635E+03 -0.43299371153E+02 -0.17309800256E+03  0.20768436189E+03  0.00000000000E+00 0. -1.
        -13    1    3    3    0    0 -0.72806892532E+02  0.82637267701E+02 -0.30033284420E+03  0.31988994813E+03  0.00000000000E+00 0.  1.
         13    1    3    3    0    0 -0.75423924682E+02 -0.13738537919E+02 -0.22483570899E+03  0.23754707297E+03  0.00000000000E+00 0. -1.
         21    1    1    2  503  502  0.33546250468E+02 -0.36421924468E+01 -0.91720673503E+02  0.97730744570E+02  0.00000000000E+00 0. -1.
          1    1    1    2  501    0 -0.11360462951E+03 -0.33552892728E-01 -0.40141410357E+03  0.41718017153E+03  0.00000000000E+00 0. -1.
<scales pt_clust_5="13000.00000" pt_clust_6="13000.00000" pt_clust_7="13000.00000" pt_clust_8="13000.00000" pt_clust_9="33.74339" pt_clust_10="104.61126"></scales>
<clustering>
<clus scale="   33.743">  2  9  1 -1</clus>
<clus scale="   79.956">  5  6 -1 -1</clus>
<clus scale="   90.635">  7  8 -1 -1</clus>
<clus scale="  104.611">  1 10  2 -1</clus>
<clus scale="  201.401">  1  5  2 -1</clus>
<clus scale="  104.611">  1  5  2 -1</clus>
</clustering>
</event>
<event>
10    4  0.5389768E-005  0.2839639E+03  0.7546771E-02  0.1121995E+00
          2   -1    0    0  503    0 -0.00000000000E+00  0.00000000000E+00  0.12324042769E+04  0.12324042769E+04  0.00000000000E+00 0. -1.
         21   -1    0    0  501  502  0.00000000000E+00 -0.00000000000E+00 -0.10932626455E+03  0.10932626455E+03  0.00000000000E+00 0.  1.
         23    2    1    2    0    0  0.67197495101E+02  0.76774932708E+02  0.16834175612E+03  0.21646682660E+03  0.90050244451E+02 0.  0.
         24    2    1    2    0    0 -0.29855721407E+03 -0.91766545907E+02  0.43926011127E+03  0.54491440659E+03  0.80154576556E+02 0.  0.
        -13    1    4    4    0    0 -0.26593301829E+03 -0.10666833333E+03  0.39384039056E+03  0.48704081635E+03  0.00000000000E+00 0.  1.
         14    1    4    4    0    0 -0.32624195772E+02  0.14901787428E+02  0.45419720707E+02  0.57873590241E+02  0.00000000000E+00 0. -1.
        -11    1    3    3    0    0  0.26086918282E+02  0.36798781445E+02  0.75227394544E+01  0.45730397223E+02  0.00000000000E+00 0.  1.
         11    1    3    3    0    0  0.41110576819E+02  0.39976151263E+02  0.16081901666E+03  0.17073642938E+03  0.00000000000E+00 0. -1.
         21    1    1    2  503  502 -0.96108559046E+01  0.19210327704E+02  0.77726477857E+02  0.80640006212E+02  0.00000000000E+00 0. -1.
          1    1    1    2  501    0  0.24097057487E+03 -0.42187145050E+01  0.43774966712E+03  0.49970930207E+03  0.00000000000E+00 0. -1.
<scales pt_clust_5="13000.00000" pt_clust_6="13000.00000" pt_clust_7="13000.00000" pt_clust_8="13000.00000" pt_clust_9="21.48035" pt_clust_10="272.41653"></scales>
<clustering>
<clus scale="   21.480">  1  9  2 -1</clus>
<clus scale="   80.155">  5  6 -1 -1</clus>
<clus scale="   90.050">  7  8 -1 -1</clus>
<clus scale="  137.144">  1  7  2 -1</clus>
<clus scale="  272.417">  2 10  1 -1</clus>
<clus scale="  272.417">  2  5  1 -1</clus>
</clustering>
</event>
<event>
10    4  0.5389768E-005  0.9119451E+02  0.7546771E-02  0.1305504E+00
         21   -1    0    0  501  502  0.00000000000E+00  0.00000000000E+00  0.11764172315E+03  0.11764172315E+03  0.00000000000E+00 0. -1.
          4   -1    0    0  503    0 -0.00000000000E+00 -0.00000000000E+00 -0.71248392468E+03  0.71248392468E+03  0.00000000000E+00 0. -1.
         24    2    1    2    0    0  0.41383244100E+02 -0.60551560681E+02 -0.20953964318E+03  0.23657254488E+03  0.81735197661E+02 0.  0.
         23    2    1    2    0    0  0.14982293322E+02 -0.43979035185E+02 -0.55113711158E+02  0.11576791915E+03  0.90587335199E+02 0.  0.
        -13    1    3    3    0    0  0.49575987680E+01 -0.68658578488E+02 -0.10481987566E+03  0.12540249008E+03  0.00000000000E+00 0.  1.
         14    1    3    3    0    0  0.36425645332E+02  0.81070178071E+01 -0.10471976752E+03  0.11117005480E+03  0.00000000000E+00 0. -1.
        -13    1    4    4    0    0 -0.25879154721E+02  0.12268629638E+02 -0.30943034509E+02  0.42163032468E+02  0.00000000000E+00 0.  1.
         13    1    4    4    0    0  0.40861448043E+02 -0.56247664823E+02 -0.24170676648E+02  0.73604886684E+02  0.00000000000E+00 0. -1.
         21    1    1    2  503  502 -0.32860412587E+02  0.65101075580E+02 -0.39315595184E+03  0.39986192520E+03  0.00000000000E+00 0. -1.
          3    1    1    2  501    0 -0.23505124835E+02  0.39429520286E+02  0.62967104645E+02  0.77923258600E+02  0.00000000000E+00 0. -1.
<scales pt_clust_5="13000.00000" pt_clust_6="13000.00000" pt_clust_7="13000.00000" pt_clust_8="13000.00000" pt_clust_9="76.17781" pt_clust_10="45.90401"></scales>
<clustering>
<clus scale="   45.904">  1 10  2 -1</clus>
<clus scale="   76.178">  2  9  1 -1</clus>
<clus scale="   81.735">  5  6 -1 -1</clus>
<clus scale="   82.408">  2  5  1 -1</clus>
<clus scale="   90.587">  7  8 -1 -1</clus>
<clus scale="   45.904">  1  5  2 -1</clus>
</clustering>
</event>
<event>
10    4  0.5389768E-005  0.1073223E+03  0.7546771E-02  0.1269942E+00
         21   -1    0    0  503  502  0.00000000000E+00  0.00000000000E+00  0.87379600564E+02  0.87379600564E+02  0.00000000000E+00 0. -1.
         -1   -1    0    0    0  501 -0.00000000000E+00 -0.00000000000E+00 -0.96091009048E+03  0.96091009048E+03  0.00000000000E+00 0.  1.
         24    2    1    2    0    0 -0.18567304908E+02  0.10552866191E+03 -0.56362284696E+03  0.57939286088E+03  0.80897035374E+02 0.  0.
         23    2    1    2    0    0 -0.36851660554E+02 -0.11543880037E+02  0.33144501884E+02  0.10448270884E+03  0.91251150078E+02 0.  0.
        -11    1    3    3    0    0  0.52447987881E+01  0.22144764314E+02 -0.24890450503E+02  0.33725851021E+02  0.00000000000E+00 0.  1.
         12    1    3    3    0    0 -0.23812103696E+02  0.83383897598E+02 -0.53873239645E+03  0.54566700986E+03  0.00000000000E+00 0. -1.
        -13    1    4    4    0    0  0.79070031025E+01 -0.35057873317E+02 -0.10766835733E+02  0.37516662048E+02  0.00000000000E+00 0.  1.
         13    1    4    4    0    0 -0.44758663656E+02  0.23513993280E+02  0.43911337617E+02  0.66966046797E+02  0.00000000000E+00 0. -1.
         21    1    1    2  503  501  0.27621721904E+02 -0.53715033627E+02 -0.26870119400E+03  0.27540623816E+03  0.00000000000E+00 0.  1.
         -2    1    1    2    0  502  0.27797243557E+02 -0.40269748248E+02 -0.74350950846E+02  0.89007883163E+02  0.00000000000E+00 0.  1.
<scales pt_clust_5="13000.00000" pt_clust_6="13000.00000" pt_clust_7="13000.00000" pt_clust_8="13000.00000" pt_clust_9="62.43360" pt_clust_10="48.93201"></scales>
<clustering>
<clus scale="   48.932">  1 10  2 -1</clus>
<clus scale="   62.434">  2  9  1 -1</clus>
<clus scale="   80.897">  5  6 -1 -1</clus>
<clus scale="   91.251">  7  8 -1 -1</clus>
<clus scale="   98.669">  2  5  1 -1</clus>
<clus scale="   48.932">  1  5  2 -1</clus>
</clustering>
</event>
<event>
10    4  0.5389768E-005  0.9726431E+02  0.7546771E-02  0.1293367E+00
         21   -1    0    0  503  502  0.00000000000E+00  0.00000000000E+00  0.28000743828E+03  0.28000743828E+03  0.00000000000E+00 0. -1.
         -3   -1    0    0    0  501 -0.00000000000E+00 -0.00000000000E+00 -0.13896970386E+03  0.13896970386E+03  0.00000000000E+00 0.  1.
         24    2    1    2    0    0  0.20435610621E+02 -0.24236246922E+02 -0.38819073071E+02  0.96004895763E+02  0.81884123798E+02 0.  0.
         23    2    1    2    0    0  0.60706754076E+02 -0.36095002557E+02  0.16093575928E+03  0.19958362995E+03  0.94578790053E+02 0.  0.
        -13    1    3    3    0    0 -0.26598375404E+02 -0.30096124980E+02 -0.21377852546E+02  0.45500141674E+02  0.00000000000E+00 0.  1.
         14    1    3    3    0    0  0.47033986024E+02  0.58598780573E+01 -0.17441220525E+02  0.50504754089E+02  0.00000000000E+00 0. -1.
        -11    1    4    4    0    0  0.40425935382E+02  0.37548347150E+01  0.14736552736E+03  0.15285599004E+03  0.00000000000E+00 0.  1.
         11    1    4    4    0    0  0.20280818695E+02 -0.39849837272E+02  0.13570231921E+02  0.46727639914E+02  0.00000000000E+00 0. -1.
         21    1    1    2  503  501 -0.45817071960E+02  0.39154116105E+02 -0.23105041180E+02  0.64545269531E+02  0.00000000000E+00 0.  1.
         -4    1    1    2    0  502 -0.35325292737E+02  0.21177133374E+02  0.42026089385E+02  0.58843346896E+02  0.00000000000E+00 0.  1.
<scales pt_clust_5="13000.00000" pt_clust_6="13000.00000" pt_clust_7="13000.00000" pt_clust_8="13000.00000" pt_clust_9="63.93667" pt_clust_10="41.18674"></scales>
<clustering>
<clus scale="   41.187">  1 10  2 -1</clus>
<clus scale="   63.937">  2  9  1 -1</clus>
<clus scale="   81.884">  5  6 -1 -1</clus>
<clus scale="   84.972">  2  5  1 -1</clus>
<clus scale="   94.579">  7  8 -1 -1</clus>
<clus scale="   41.187">  1  5  2 -1</clus>
</clustering>
</event>
<event>
10    4  0.6326399E-005  0.1189090E+03  0.7546771E-02  0.1251594E+00
          4   -1    0    0  503    0 -0.00000000000E+00  0.00000000000E+00  0.44476670867E+03  0.44476670867E+03  0.00000000000E+00 0. -1.
         21   -1    0    0  501  502  0.00000000000E+00 -0.00000000000E+00 -0.38916743291E+03  0.38916743291E+03  0.00000000000E+00 0. -1.
         24    2    1    2    0    0 -0.16366133046E+01 -0.10606411383E+03  0.31409012494E+03  0.34053956761E+03  0.77860874511E+02 0.  0.
         23    2    1    2    0    0  0.83695164279E+02  0.61872232256E+02  0.58785261471E+01  0.14231343600E+03  0.96878807529E+02 0.  0.
        -13    1    3    3    0    0  0.18409058113E+02 -0.12681191208E+02  0.15913788729E+02  0.27440020094E+02  0.00000000000E+00 0.  1.
         14    1    3    3    0    0 -0.20045671418E+02 -0.93382922624E+02  0.29817633621E+03  0.31309954752E+03  0.00000000000E+00 0. -1.
        -11    1    4    4    0    0 -0.49347153567E+01  0.29647657112E+02 -0.28998806089E+02  0.41764407604E+02  0.00000000000E+00 0.  1.
         11    1    4    4    0    0  0.88629879636E+02  0.32224575144E+02  0.34877332236E+02  0.10054902840E+03  0.00000000000E+00 0. -1.
         21    1    1    2  503  502 -0.58860324472E+01  0.56210584350E+02  0.17252200725E+02  0.59092415764E+02  0.00000000000E+00 0.  1.
          3    1    1    2  501    0 -0.76172518527E+02 -0.12018702774E+02 -0.28162157605E+03  0.29198872220E+03  0.00000000000E+00 0. -1.
<scales pt_clust_5="13000.00000" pt_clust_6="13000.00000" pt_clust_7="13000.00000" pt_clust_8="13000.00000" pt_clust_9="56.51792" pt_clust_10="77.08065"></scales>
<clustering>
<clus scale="   56.518">  1  9  2 -1</clus>
<clus scale="   77.081">  2 10  1 -1</clus>
<clus scale="   77.861">  5  6 -1 -1</clus>
<clus scale="   96.879">  7  8 -1 -1</clus>
<clus scale="  104.001">  1  5  2 -1</clus>
<clus scale="   77.081">  2  5  1 -1</clus>
</clustering>
</event>
<event>
10    4  0.5389768E-005  0.1400483E+03  0.7546771E-02  0.1232271E+00
          2   -1    0    0  503    0 -0.00000000000E+00  0.00000000000E+00  0.58775562146E+03  0.58775562146E+03  0.00000000000E+00 0. -1.
         21   -1    0    0  501  502  0.00000000000E+00 -0.00000000000E+00 -0.14494691236E+03  0.14494691236E+03  0.00000000000E+00 0. -1.
         23    2    1    2    0    0  0.37378369634E+01 -0.23149569926E+02 -0.30616318695E+02  0.98987128345E+02  0.91165885037E+02 0.  0.
         24    2    1    2    0    0  0.76330974124E+02 -0.71394601177E+02  0.14014750703E+03  0.19196264271E+03  0.79276262410E+02 0.  0.
        -11    1    4    4    0    0  0.42478487866E+02  0.86737257899E+01  0.57512301242E+02  0.72023053564E+02  0.00000000000E+00 0.  1.
         12    1    4    4    0    0  0.33852486257E+02 -0.80068326967E+02  0.82635205792E+02  0.11993958915E+03  0.00000000000E+00 0. -1.
        -13    1    3    3    0    0 -0.15887833404E+02  0.23420555137E+02  0.13999398260E+02  0.31574179401E+02  0.00000000000E+00 0.  1.
         13    1    3    3    0    0  0.19625670367E+02 -0.46570125064E+02 -0.44615716956E+02  0.67412948944E+02  0.00000000000E+00 0. -1.
         21    1    1    2  503  502  0.53740327049E+02  0.93115491997E+02  0.27598677468E+03  0.29618780764E+03  0.00000000000E+00 0. -1.
          1    1    1    2  501    0 -0.13380913814E+03  0.14286791070E+01  0.57290746080E+02  0.14556495512E+03  0.00000000000E+00 0. -1.
<scales pt_clust_5="13000.00000" pt_clust_6="13000.00000" pt_clust_7="13000.00000" pt_clust_8="13000.00000" pt_clust_9="98.41228" pt_clust_10="115.45047"></scales>
<clustering>
<clus scale="   79.276">  5  6 -1 -1</clus>
<clus scale="   91.166">  7  8 -1 -1</clus>
<clus scale="   94.133">  1  7  2 -1</clus>
<clus scale="   98.412">  1  9  2 -1</clus>
<clus scale="  115.450">  2 10  1 -1</clus>
<clus scale="  115.450">  2  5  1 -1</clus>
</clustering>
</event>
<event>
10    4  0.5389768E-005  0.2380688E+03  0.7546771E-02  0.1141287E+00
          2   -1    0    0  503    0 -0.00000000000E+00  0.00000000000E+00  0.12121385814E+04  0.12121385814E+04  0.00000000000E+00 0. -1.
         21   -1    0    0  501  502  0.00000000000E+00 -0.00000000000E+00 -0.17280338463E+03  0.17280338463E+03  0.00000000000E+00 0. -1.
         24    2    1    2    0    0 -0.24647271840E+02  0.12824321429E+03 -0.24403594558E+02  0.15577305953E+03  0.81338186768E+02 0.  0.
         23    2    1    2    0    0  0.13210402857E+03 -0.17026819228E+03  0.33032010463E+03  0.40548428204E+03  0.94145630769E+02 0.  0.
        -11    1    3    3    0    0 -0.15635435941E+02  0.67671422685E+02  0.28280171490E+02  0.74991042164E+02  0.00000000000E+00 0.  1.
         12    1    3    3    0    0 -0.90118358982E+01  0.60571791608E+02 -0.52683766048E+02  0.80782017367E+02  0.00000000000E+00 0. -1.
        -11    1    4    4    0    0  0.51020111992E+02 -0.24675796264E+02  0.35648354437E+02  0.66953356324E+02  0.00000000000E+00 0.  1.
         11    1    4    4    0    0  0.81083916575E+02 -0.14559239601E+03  0.29467175019E+03  0.33853092571E+03  0.00000000000E+00 0. -1.
         21    1    1    2  503  502  0.48460708672E+02 -0.11647746296E+03  0.42602307015E+03  0.44430968475E+03  0.00000000000E+00 0. -1.
          1    1    1    2  501    0 -0.15591746540E+03  0.15850244094E+03  0.30739561655E+03  0.37937493970E+03  0.00000000000E+00 0. -1.
<scales pt_clust_5="13000.00000" pt_clust_6="13000.00000" pt_clust_7="13000.00000" pt_clust_8="13000.00000" pt_clust_9="126.15641" pt_clust_10="218.66281"></scales>
<clustering>
<clus scale="   81.338">  5  6 -1 -1</clus>
<clus scale="   94.146">  7  8 -1 -1</clus>
<clus scale="  126.156">  1  9  2 -1</clus>
<clus scale="  145.107">  1  5  2 -1</clus>
<clus scale="  218.663">  2 10  1 -1</clus>
<clus scale="  218.663">  2  5  1 -1</clus>
</clustering>
</event>
<event>
10    4  0.5389768E-005  0.1367262E+03  0.7546771E-02  0.1244652E+00
          2   -1    0    0  503    0 -0.00000000000E+00  0.00000000000E+00  0.54230242288E+03  0.54230242288E+03  0.00000000000E+00 0. -1.
         21   -1    0    0  501  502  0.00000000000E+00 -0.00000000000E+00 -0.25253189533E+03  0.25253189533E+03  0.00000000000E+00 0. -1.
         24    2    1    2    0    0  0.46346826394E+00  0.13133530170E+02 -0.18266754057E+02  0.80922805747E+02  0.77731086244E+02 0.  0.
         23    2    1    2    0    0 -0.74857537640E+02  0.41451393136E+02  0.25823809656E+03  0.28612147170E+03  0.88638101960E+02 0.  0.
        -11    1    3    3    0    0 -0.37629178834E+02  0.20771234593E-01 -0.14984308423E+02  0.40502901502E+02  0.00000000000E+00 0.  1.
         12    1    3    3    0    0  0.38092647098E+02  0.13112758935E+02 -0.32824456338E+01  0.40419904245E+02  0.00000000000E+00 0. -1.
        -13    1    4    4    0    0 -0.68809160107E+02 -0.11453173069E+02  0.13838967565E+03  0.15497605626E+03  0.00000000000E+00 0. -1.
         13    1    4    4    0    0 -0.60483775332E+01  0.52904566205E+02  0.11984842091E+03  0.13114541544E+03  0.00000000000E+00 0.  1.
         21    1    1    2  503  502 -0.22969125069E+02 -0.14917150221E+02  0.22327194296E+03  0.22494546581E+03  0.00000000000E+00 0. -1.
          1    1    1    2  501    0  0.97363194445E+02 -0.39667773085E+02 -0.17347275790E+03  0.20284457496E+03  0.00000000000E+00 0. -1.
<scales pt_clust_5="13000.00000" pt_clust_6="13000.00000" pt_clust_7="13000.00000" pt_clust_8="13000.00000" pt_clust_9="27.38799" pt_clust_10="104.10258"></scales>
<clustering>
<clus scale="   27.388">  1  9  2 -1</clus>
<clus scale="   77.731">  5  6 -1 -1</clus>
<clus scale="   78.622">  1  5  2 -1</clus>
<clus scale="   88.638">  7  8 -1 -1</clus>
<clus scale="  104.103">  2 10  1 -1</clus>
<clus scale="  104.103">  2  5  1 -1</clus>
</clustering>
</event>
<event>
10    4  0.5389768E-005  0.1016365E+03  0.7546771E-02  0.1293804E+00
          2   -1    0    0  503    0 -0.00000000000E+00  0.00000000000E+00  0.24410297430E+03  0.24410297430E+03  0.00000000000E+00 0. -1.
         21   -1    0    0  501  502  0.00000000000E+00 -0.00000000000E+00 -0.18779999686E+03  0.18779999686E+03  0.00000000000E+00 0. -1.
         24    2    1    2    0    0 -0.33542713312E+02  0.15527328852E+02  0.14588123852E+03  0.16208076634E+03  0.60188267204E+02 0.  0.
         23    2    1    2    0    0  0.12672947378E+02 -0.36502064523E+01 -0.22980960077E+01  0.93142290138E+02  0.92175253537E+02 0.  0.
        -11    1    3    3    0    0 -0.22551725479E+02 -0.99458606907E+01  0.12486944764E+03  0.12727874693E+03  0.00000000000E+00 0.  1.
         12    1    3    3    0    0 -0.10990987834E+02  0.25473189542E+02  0.21011790876E+02  0.34802019407E+02  0.00000000000E+00 0. -1.
        -13    1    4    4    0    0  0.29348723602E+02 -0.23928952414E+02 -0.34752911498E+02  0.51397540781E+02  0.00000000000E+00 0.  1.
         13    1    4    4    0    0 -0.16675776224E+02  0.20278745961E+02  0.32454815491E+02  0.41744749358E+02  0.00000000000E+00 0. -1.
         21    1    1    2  503  502 -0.12229644396E+02  0.18414340476E+02  0.37803662333E+02  0.43792339776E+02  0.00000000000E+00 0.  1.
          1    1    1    2  501    0  0.33099410329E+02 -0.30291462876E+02 -0.12508382740E+03  0.13288757490E+03  0.00000000000E+00 0. -1.
<scales pt_clust_5="13000.00000" pt_clust_6="13000.00000" pt_clust_7="13000.00000" pt_clust_8="13000.00000" pt_clust_9="22.10548" pt_clust_10="44.45644"></scales>
<clustering>
<clus scale="   22.105">  1  9  2 -1</clus>
<clus scale="   44.456">  2 10  1 -1</clus>
<clus scale="   60.188">  5  6 -1 -1</clus>
<clus scale="   73.867">  1  5  2 -1</clus>
<clus scale="   92.175">  7  8 -1 -1</clus>
<clus scale="   44.456">  2  5  1 -1</clus>
</clustering>
</event>
<event>
10    4  0.5389768E-005  0.1717212E+03  0.7546771E-02  0.1177556E+00
         21   -1    0    0  501  502  0.00000000000E+00  0.00000000000E+00  0.14865778259E+03  0.14865778259E+03  0.00000000000E+00 0. -1.
          2   -1    0    0  503    0 -0.00000000000E+00 -0.00000000000E+00 -0.46134022284E+03  0.46134022284E+03  0.00000000000E+00 0. -1.
         24    2    1    2    0    0 -0.53510938760E+02  0.13251476051E+03 -0.28739283409E+03  0.33075109372E+03  0.79862773480E+02 0.  0.
         23    2    1    2    0    0  0.37555162975E+02 -0.98656592712E+02  0.18851663320E+02  0.14070893488E+03  0.91104915306E+02 0.  0.
        -13    1    3    3    0    0 -0.30620091598E+02  0.13879796859E+02 -0.25059700695E+02  0.41931221891E+02  0.00000000000E+00 0.  1.
         14    1    3    3    0    0 -0.22890847162E+02  0.11863496365E+03 -0.26233313340E+03  0.28881987183E+03  0.00000000000E+00 0. -1.
        -11    1    4    4    0    0  0.31483174908E+02 -0.71905613279E+02 -0.30526500322E+02  0.84222768568E+02  0.00000000000E+00 0.  1.
         11    1    4    4    0    0  0.60719880673E+01 -0.26750979432E+02  0.49378163642E+02  0.56486166310E+02  0.00000000000E+00 0. -1.
         21    1    1    2  503  502 -0.84353834700E+01  0.21479122508E+02 -0.69298501131E+02  0.73039651265E+02  0.00000000000E+00 0. -1.
          1    1    1    2  501    0  0.24391159254E+02 -0.55337290304E+02  0.25157231650E+02  0.65498325568E+02  0.00000000000E+00 0. -1.
<scales pt_clust_5="13000.00000" pt_clust_6="13000.00000" pt_clust_7="13000.00000" pt_clust_8="13000.00000" pt_clust_9="23.07614" pt_clust_10="59.28239"></scales>
<clustering>
<clus scale="   23.076">  2  9  1 -1</clus>
<clus scale="   59.282">  1 10  2 -1</clus>
<clus scale="   79.863">  5  6 -1 -1</clus>
<clus scale="   91.105">  7  8 -1 -1</clus>
<clus scale="  166.030">  2  5  1 -1</clus>
<clus scale="   59.282">  1  5  2 -1</clus>
</clustering>
</event>
<event>
10    4  0.5389768E-005  0.1918578E+03  0.7546771E-02  0.1157897E+00
          2   -1    0    0  503    0 -0.00000000000E+00  0.00000000000E+00  0.23628281035E+03  0.23628281035E+03  0.00000000000E+00 0. -1.
         21   -1    0    0  501  502  0.00000000000E+00 -0.00000000000E+00 -0.37695356531E+03  0.37695356531E+03  0.00000000000E+00 0.  1.
         24    2    1    2    0    0 -0.18270335614E+03  0.63923706051E+02  0.37442499306E+02  0.21297417832E+03  0.80556212262E+02 0.  0.
         23    2    1    2    0    0  0.14892304341E+03  0.66120294394E+02 -0.35520372704E+02  0.19012603511E+03  0.91303045735E+02 0.  0.
        -11    1    3    3    0    0 -0.14111349683E+03  0.81384435072E+02  0.18125304593E+02  0.16390537492E+03  0.00000000000E+00 0.  1.
         12    1    3    3    0    0 -0.41589859308E+02 -0.17460729021E+02  0.19317194712E+02  0.49068803396E+02  0.00000000000E+00 0. -1.
        -13    1    4    4    0    0  0.11543398581E+03  0.42576226743E+02  0.16273973645E+02  0.12410714074E+03  0.00000000000E+00 0. -1.
         13    1    4    4    0    0  0.33489057597E+02  0.23544067650E+02 -0.51794346349E+02  0.66018894372E+02  0.00000000000E+00 0.  1.
         21    1    1    2  503  502 -0.11266983251E+02 -0.17659361721E+02  0.25733140881E+01  0.21104973665E+02  0.00000000000E+00 0.  1.
          1    1    1    2  501    0  0.45047295988E+02 -0.11238463872E+03 -0.14516619565E+03  0.18903118858E+03  0.00000000000E+00 0. -1.
<scales pt_clust_5="13000.00000" pt_clust_6="13000.00000" pt_clust_7="13000.00000" pt_clust_8="13000.00000" pt_clust_9="20.94751" pt_clust_10="122.28016"></scales>
<clustering>
<clus scale="   20.948">  1  9  2 -1</clus>
<clus scale="   80.556">  5  6 -1 -1</clus>
<clus scale="   91.303">  7  8 -1 -1</clus>
<clus scale="  122.280">  2 10  1 -1</clus>
<clus scale="  186.983">  1  5  2 -1</clus>
<clus scale="  122.280">  2  5  1 -1</clus>
</clustering>
</event>
<event>
10    4  0.5389768E-005  0.2264337E+03  0.7546771E-02  0.1155436E+00
         21   -1    0    0  501  502  0.00000000000E+00  0.00000000000E+00  0.69951203964E+02  0.69951203964E+02  0.00000000000E+00 0. -1.
          2   -1    0    0  503    0 -0.00000000000E+00 -0.00000000000E+00 -0.12408232176E+04  0.12408232176E+04  0.00000000000E+00 0. -1.
         24    2    1    2    0    0 -0.69773203428E+02  0.55745199075E+02 -0.20113778539E+03  0.23437470863E+03  0.80618038915E+02 0.  0.
         23    2    1    2    0    0  0.23127536219E+03 -0.10300562616E+03 -0.52504455841E+03  0.59006784249E+03  0.91705061136E+02 0.  0.
        -11    1    3    3    0    0 -0.48040994028E+02  0.41926352321E+02 -0.49921195445E+02  0.80980750063E+02  0.00000000000E+00 0.  1.
         12    1    3    3    0    0 -0.21732209400E+02  0.13818846753E+02 -0.15121658994E+03  0.15339395857E+03  0.00000000000E+00 0. -1.
        -11    1    4    4    0    0  0.19600435352E+03 -0.45736164667E+02 -0.41182642999E+03  0.45837813189E+03  0.00000000000E+00 0. -1.
         11    1    4    4    0    0  0.35271008670E+02 -0.57269461497E+02 -0.11321812843E+03  0.13168971060E+03  0.00000000000E+00 0.  1.
         21    1    1    2  503  502  0.11880611492E+02  0.16235018280E+02 -0.58747687690E+02  0.62096824049E+02  0.00000000000E+00 0.  1.
          1    1    1    2  501    0 -0.17338277026E+03  0.31025408808E+02 -0.38594198219E+03  0.42423504644E+03  0.00000000000E+00 0. -1.
<scales pt_clust_5="13000.00000" pt_clust_6="13000.00000" pt_clust_7="13000.00000" pt_clust_8="13000.00000" pt_clust_9="20.11777" pt_clust_10="207.03241"></scales>
<clustering>
<clus scale="   20.118">  2  9  1 -1</clus>
<clus scale="   80.618">  5  6 -1 -1</clus>
<clus scale="   91.705">  7  8 -1 -1</clus>
<clus scale="  120.486">  2  5  1 -1</clus>
<clus scale="  207.032">  1 10  2 -1</clus>
<clus scale="  207.032">  1  5  2 -1</clus>
</clustering>
</event>
<event>
10    4  0.5389768E-005  0.1433297E+03  0.7546771E-02  0.1210045E+00
         21   -1    0    0  503  502  0.00000000000E+00  0.00000000000E+00  0.81566215604E+03  0.81566215604E+03  0.00000000000E+00 0.  1.
         -1   -1    0    0    0  501 -0.00000000000E+00 -0.00000000000E+00 -0.12147680103E+03  0.12147680103E+03  0.00000000000E+00 0.  1.
         24    2    1    2    0    0 -0.42743622060E+02 -0.98079770303E+02 -0.29503705760E+02  0.13729232167E+03  0.80821125736E+02 0.  0.
         23    2    1    2    0    0  0.41360584547E+02  0.12646311349E+03  0.63527576777E+03  0.65481094843E+03  0.86593648959E+02 0.  0.
        -13    1    3    3    0    0 -0.24494331673E+02 -0.74651998136E+01 -0.36508405971E+02  0.44593331328E+02  0.00000000000E+00 0.  1.
         14    1    3    3    0    0 -0.18249290387E+02 -0.90614570490E+02  0.70047002109E+01  0.92698990338E+02  0.00000000000E+00 0. -1.
        -13    1    4    4    0    0 -0.34288647906E+01  0.10786255924E+03  0.48667245655E+03  0.49849390043E+03  0.00000000000E+00 0.  1.
         13    1    4    4    0    0  0.44789449337E+02  0.18600554248E+02  0.14860331122E+03  0.15631704800E+03  0.00000000000E+00 0. -1.
         21    1    1    2  503  501 -0.19884213482E+02  0.29117928467E+01 -0.21118717972E+02  0.29152370952E+02  0.00000000000E+00 0.  1.
         -2    1    1    2    0  502  0.21267250996E+02 -0.31295136029E+02  0.10953201097E+03  0.11588331602E+03  0.00000000000E+00 0.  1.
<scales pt_clust_5="13000.00000" pt_clust_6="13000.00000" pt_clust_7="13000.00000" pt_clust_8="13000.00000" pt_clust_9="20.09628" pt_clust_10="37.39297"></scales>
<clustering>
<clus scale="   20.096">  2  9  1 -1</clus>
<clus scale="   37.393">  1 10  2 -1</clus>
<clus scale="   80.821">  5  6 -1 -1</clus>
<clus scale="   86.594">  7  8 -1 -1</clus>
<clus scale="  139.918">  2  5  1 -1</clus>
<clus scale="   37.393">  1  5  2 -1</clus>
</clustering>
</event>
<event>
10    4  0.5389768E-005  0.8826439E+02  0.7546771E-02  0.1319201E+00
         -1   -1    0    0    0  501 -0.00000000000E+00  0.00000000000E+00  0.79918665975E+02  0.79918665975E+02  0.00000000000E+00 0.  1.
         21   -1    0    0  503  502  0.00000000000E+00 -0.00000000000E+00 -0.20073812518E+03  0.20073812518E+03  0.00000000000E+00 0. -1.
         23    2    1    2    0    0  0.35800294677E+02 -0.60610955303E+01 -0.27653403928E+02  0.95762959009E+02  0.84186908670E+02 0.  0.
         24    2    1    2    0    0 -0.40625716819E+01  0.43641133703E+02 -0.76826807565E+02  0.11024645408E+03  0.65809340047E+02 0.  0.
        -13    1    4    4    0    0  0.14722393791E+01  0.32244834389E+02  0.10483072141E+00  0.32278596980E+02  0.00000000000E+00 0.  1.
         14    1    4    4    0    0 -0.55348110610E+01  0.11396299314E+02 -0.76931638286E+02  0.77967857101E+02  0.00000000000E+00 0. -1.
        -11    1    3    3    0    0 -0.15087793554E+02 -0.31222203321E+02 -0.13850431455E+02  0.37340352784E+02  0.00000000000E+00 0. -1.
         11    1    3    3    0    0  0.50888088231E+02  0.25161107791E+02 -0.13802972473E+02  0.58422606225E+02  0.00000000000E+00 0.  1.
         21    1    1    2  503  501 -0.28879509068E+02  0.54142158710E+01 -0.10307246212E+02  0.31138065161E+02  0.00000000000E+00 0. -1.
         -2    1    1    2    0  502 -0.28582139268E+01 -0.42994254043E+02 -0.60320015054E+01  0.43509312908E+02  0.00000000000E+00 0.  1.
<scales pt_clust_5="13000.00000" pt_clust_6="13000.00000" pt_clust_7="13000.00000" pt_clust_8="13000.00000" pt_clust_9="29.38264" pt_clust_10="42.87683"></scales>
<clustering>
<clus scale="   29.383">  1  9  2 -1</clus>
<clus scale="   42.877">  2 10  1 -1</clus>
<clus scale="   65.809">  5  6 -1 -1</clus>
<clus scale="   70.951">  2  5  1 -1</clus>
<clus scale="   84.187">  7  8 -1 -1</clus>
<clus scale="   42.877">  2  5  1 -1</clus>
</clustering>
</event>
<event>
10    4  0.5389768E-005  0.3391719E+03  0.7546771E-02  0.1067509E+00
         21   -1    0    0  501  502  0.00000000000E+00  0.00000000000E+00  0.13842358613E+03  0.13842358613E+03  0.00000000000E+00 0. -1.
          2   -1    0    0  503    0 -0.00000000000E+00 -0.00000000000E+00 -0.17156664814E+04  0.17156664814E+04  0.00000000000E+00 0. -1.
         24    2    1    2    0    0 -0.35375825682E+03  0.11217417229E+03 -0.11198243866E+04  0.11841926878E+04  0.10284802285E+03 0.  0.
         23    2    1    2    0    0  0.25591334602E+03 -0.10165805704E+03 -0.21514326192E+03  0.36114598426E+03  0.91180028325E+02 0.  0.
        -11    1    3    3    0    0 -0.16161542202E+03  0.92109312476E+02 -0.44645366961E+03  0.48365747093E+03  0.00000000000E+00 0.  1.
         12    1    3    3    0    0 -0.19214283480E+03  0.20064859814E+02 -0.67337071704E+03  0.70053521691E+03  0.00000000000E+00 0. -1.
        -13    1    4    4    0    0  0.13025916039E+03 -0.48522795709E+01 -0.11275637756E+03  0.17235136832E+03  0.00000000000E+00 0. -1.
         13    1    4    4    0    0  0.12565418563E+03 -0.96805777470E+02 -0.10238688436E+03  0.18879461594E+03  0.00000000000E+00 0.  1.
         21    1    1    2  503  502  0.40266082028E+02 -0.12534570359E+02 -0.24734518725E+03  0.25091455612E+03  0.00000000000E+00 0. -1.
          1    1    1    2  501    0  0.57578828773E+02  0.20184551097E+01  0.50699405589E+01  0.57836839308E+02  0.00000000000E+00 0. -1.
<scales pt_clust_5="13000.00000" pt_clust_6="13000.00000" pt_clust_7="13000.00000" pt_clust_8="13000.00000" pt_clust_9="42.17194" pt_clust_10="58.33079"></scales>
<clustering>
<clus scale="   42.172">  2  9  1 -1</clus>
<clus scale="   58.331">  1 10  2 -1</clus>
<clus scale="   91.180">  7  8 -1 -1</clus>
<clus scale="  102.848">  5  6 -1 -1</clus>
<clus scale="  335.818">  1  7  2 -1</clus>
<clus scale="   58.331">  1  5  2 -1</clus>
</clustering>
</event>
<event>
10    4  0.5389768E-005  0.1702750E+03  0.7546771E-02  0.1199762E+00
         21   -1    0    0  501  502  0.00000000000E+00  0.00000000000E+00  0.30611136315E+03  0.30611136315E+03  0.00000000000E+00 0. -1.
          2   -1    0    0  503    0 -0.00000000000E+00 -0.00000000000E+00 -0.33596408214E+03  0.33596408214E+03  0.00000000000E+00 0. -1.
         23    2    1    2    0    0  0.41078665736E+02  0.26830682525E+02  0.22791471794E+02  0.10550374508E+03  0.90577297022E+02 0.  0.
         24    2    1    2    0    0  0.41788437609E+02 -0.80856843157E+02 -0.18644632892E+03  0.22102943141E+03  0.76208092622E+02 0.  0.
        -11    1    4    4    0    0  0.21213703195E+02  0.11109039324E+02 -0.29913814428E+02  0.38317988616E+02  0.00000000000E+00 0.  1.
         12    1    4    4    0    0  0.20574734414E+02 -0.91965882482E+02 -0.15653251449E+03  0.18271144280E+03  0.00000000000E+00 0. -1.
        -11    1    3    3    0    0  0.66310973454E+02  0.13107771095E+02 -0.19089894123E+01  0.67621025606E+02  0.00000000000E+00 0. -1.
         11    1    3    3    0    0 -0.25232307717E+02  0.13722911430E+02  0.24700461206E+02  0.37882719473E+02  0.00000000000E+00 0.  1.
         21    1    1    2  503  502  0.43373806755E+02 -0.49154246194E+02 -0.40351962681E+02  0.76978619911E+02  0.00000000000E+00 0.  1.
          1    1    1    2  501    0 -0.12624091010E+03  0.10318040683E+03  0.17415410082E+03  0.23856364888E+03  0.00000000000E+00 0. -1.
<scales pt_clust_5="13000.00000" pt_clust_6="13000.00000" pt_clust_7="13000.00000" pt_clust_8="13000.00000" pt_clust_9="65.55476" pt_clust_10="152.26921"></scales>
<clustering>
<clus scale="   65.555">  2  9  1 -1</clus>
<clus scale="   76.208">  5  6 -1 -1</clus>
<clus scale="   90.577">  7  8 -1 -1</clus>
<clus scale="  104.141">  2  7  1 -1</clus>
<clus scale="  152.269">  1 10  2 -1</clus>
<clus scale="  152.269">  1  5  2 -1</clus>
</clustering>
</event>
<event>
10    4  0.5389768E-005  0.4546911E+03  0.7546771E-02  0.1060019E+00
         -1   -1    0    0    0  501 -0.00000000000E+00  0.00000000000E+00  0.70354012889E+03  0.70354012889E+03  0.00000000000E+00 0.  1.
         21   -1    0    0  503  502  0.00000000000E+00 -0.00000000000E+00 -0.53138701087E+03  0.53138701087E+03  0.00000000000E+00 0. -1.
         23    2    1    2    0    0 -0.13887030259E+03  0.28051630873E+02  0.41780004277E+02  0.17259980082E+03  0.89293155121E+02 0.  0.
         24    2    1    2    0    0  0.55873415998E+03  0.67379807185E+02  0.16725827000E+03  0.59262333195E+03  0.80642325967E+02 0.  0.
        -11    1    4    4    0    0  0.17691683097E+03  0.28025811862E+02  0.92403185237E+02  0.20155237496E+03  0.00000000000E+00 0.  1.
         12    1    4    4    0    0  0.38181732902E+03  0.39353995323E+02  0.74855084762E+02  0.39107095699E+03  0.00000000000E+00 0. -1.
        -11    1    3    3    0    0 -0.38273406783E+02  0.13189185901E+02 -0.28043557716E+02  0.49246821429E+02  0.00000000000E+00 0. -1.
         11    1    3    3    0    0 -0.10059689581E+03  0.14862444973E+02  0.69823561993E+02  0.12335297940E+03  0.00000000000E+00 0.  1.
         21    1    1    2  503  501 -0.30839310762E+02 -0.35380486909E+01  0.51674101210E+02  0.60280955638E+02  0.00000000000E+00 0.  1.
         -2    1    1    2    0  502 -0.38902454663E+03 -0.91893389367E+02 -0.88559257463E+02  0.40942305135E+03  0.00000000000E+00 0.  1.
<scales pt_clust_5="13000.00000" pt_clust_6="13000.00000" pt_clust_7="13000.00000" pt_clust_8="13000.00000" pt_clust_9="31.04160" pt_clust_10="447.48273"></scales>
<clustering>
<clus scale="   31.042">  1  9  2 -1</clus>
<clus scale="   80.642">  5  6 -1 -1</clus>
<clus scale="   89.293">  7  8 -1 -1</clus>
<clus scale="  171.629">  1  7  2 -1</clus>
<clus scale="  447.483">  2 10  1 -1</clus>
<clus scale="  447.483">  2  5  1 -1</clus>
</clustering>
</event>
<event>
10    4  0.5389768E-005  0.1232251E+03  0.7546771E-02  0.1239371E+00
          4   -1    0    0  503    0 -0.00000000000E+00  0.00000000000E+00  0.14341569527E+03  0.14341569527E+03  0.00000000000E+00 0. -1.
         21   -1    0    0  501  502  0.00000000000E+00 -0.00000000000E+00 -0.30881892208E+03  0.30881892208E+03  0.00000000000E+00 0.  1.
         24    2    1    2    0    0 -0.58084110219E+02  0.36109380662E+02 -0.22252757166E+02  0.11193288734E+03  0.85767912622E+02 0.  0.
         23    2    1    2    0    0  0.93192877705E+02 -0.64150016094E+01 -0.13238208931E+03  0.18576241278E+03  0.90865789670E+02 0.  0.
        -13    1    3    3    0    0 -0.26469525501E+02  0.39481557152E+01 -0.51599698839E+02  0.58127038752E+02  0.00000000000E+00 0.  1.
         14    1    3    3    0    0 -0.31614584718E+02  0.32161224947E+02  0.29346941673E+02  0.53805848590E+02  0.00000000000E+00 0. -1.
        -11    1    4    4    0    0  0.98241886207E+02  0.22231174600E+02 -0.95619935357E+02  0.13888435969E+03  0.00000000000E+00 0.  1.
         11    1    4    4    0    0 -0.50490085019E+01 -0.28646176210E+02 -0.36762153954E+02  0.46878053091E+02  0.00000000000E+00 0. -1.
         21    1    1    2  503  502 -0.32006288261E+02  0.76879386144E+01  0.63393883947E+02  0.71430325565E+02  0.00000000000E+00 0. -1.
          3    1    1    2  501    0 -0.31024792245E+01 -0.37382317667E+02 -0.74162264281E+02  0.83108991661E+02  0.00000000000E+00 0. -1.
<scales pt_clust_5="13000.00000" pt_clust_6="13000.00000" pt_clust_7="13000.00000" pt_clust_8="13000.00000" pt_clust_9="32.91667" pt_clust_10="37.26493"></scales>
<clustering>
<clus scale="   32.917">  1  9  2 -1</clus>
<clus scale="   37.265">  2 10  1 -1</clus>
<clus scale="   85.768">  5  6 -1 -1</clus>
<clus scale="   90.866">  7  8 -1 -1</clus>
<clus scale="  119.516">  1  5  2 -1</clus>
<clus scale="   37.265">  2  5  1 -1</clus>
</clustering>
</event>
<event>
10    4  0.5389768E-005  0.1064529E+03  0.7546771E-02  0.1271090E+00
         -1   -1    0    0    0  501 -0.00000000000E+00  0.00000000000E+00  0.41582653990E+03  0.41582653990E+03  0.00000000000E+00 0.  1.
         21   -1    0    0  503  502  0.00000000000E+00 -0.00000000000E+00 -0.19417930540E+03  0.19417930540E+03  0.00000000000E+00 0.  1.
         24    2    1    2    0    0  0.15900013870E+02  0.97732732702E+02  0.18620120884E+03  0.22629872153E+03  0.82071454892E+02 0.  0.
         23    2    1    2    0    0 -0.12524896463E+02  0.24195074622E+02 -0.32612099152E+02  0.10047337957E+03  0.91044364592E+02 0.  0.
        -13    1    3    3    0    0  0.29641944986E+02  0.95828532472E+02  0.11009526145E+03  0.14893864217E+03  0.00000000000E+00 0.  1.
         14    1    3    3    0    0 -0.13741931116E+02  0.19042002295E+01  0.76105947393E+02  0.77360079356E+02  0.00000000000E+00 0. -1.
        -11    1    4    4    0    0 -0.48532689432E+02  0.17278569105E+02 -0.17248587656E+00  0.51516993752E+02  0.00000000000E+00 0. -1.
         11    1    4    4    0    0  0.36007792969E+02  0.69165055164E+01 -0.32439613275E+02  0.48956385819E+02  0.00000000000E+00 0.  1.
         21    1    1    2  503  501  0.27317803641E+01 -0.33762451276E+02  0.15535895345E+03  0.15900871095E+03  0.00000000000E+00 0.  1.
         -2    1    1    2    0  502 -0.61068977710E+01 -0.88165356047E+02 -0.87300828638E+02  0.12422503326E+03  0.00000000000E+00 0.  1.
<scales pt_clust_5="13000.00000" pt_clust_6="13000.00000" pt_clust_7="13000.00000" pt_clust_8="13000.00000" pt_clust_9="33.87279" pt_clust_10="90.76808"></scales>
<clustering>
<clus scale="   33.873">  1  9  2 -1</clus>
<clus scale="   82.071">  5  6 -1 -1</clus>
<clus scale="   90.768">  2 10  1 -1</clus>
<clus scale="   91.044">  7  8 -1 -1</clus>
<clus scale="   98.888">  1  5  2 -1</clus>
<clus scale="   90.768">  2  5  1 -1</clus>
</clustering>
</event>
<event>
10    4  0.5389768E-005  0.3506757E+03  0.7546771E-02  0.1062656E+00
          2   -1    0    0  503    0 -0.00000000000E+00  0.00000000000E+00  0.12596236949E+04  0.12596236949E+04  0.00000000000E+00 0. -1.
         21   -1    0    0  501  502  0.00000000000E+00 -0.00000000000E+00 -0.17302756895E+03  0.17302756895E+03  0.00000000000E+00 0. -1.
         24    2    1    2    0    0  0.31044400531E+03 -0.20490815212E+03  0.80397672288E+03  0.88941663745E+03  0.79501904416E+02 0.  0.
         23    2    1    2    0    0 -0.18028314533E+03  0.21497105047E+03  0.14127970884E+03  0.32734392189E+03  0.92084320265E+02 0.  0.
        -11    1    3    3    0    0  0.81083583520E+02 -0.59639768433E+02  0.30751685176E+03  0.32357080154E+03  0.00000000000E+00 0.  1.
         12    1    3    3    0    0  0.22936042179E+03 -0.14526838368E+03  0.49645987112E+03  0.56584583591E+03  0.00000000000E+00 0. -1.
        -13    1    4    4    0    0 -0.49134904958E+02  0.70362571848E+02  0.92378365034E+02  0.12609081144E+03  0.00000000000E+00 0.  1.
         13    1    4    4    0    0 -0.13114824037E+03  0.14460847862E+03  0.48901343809E+02  0.20125311045E+03  0.00000000000E+00 0. -1.
         21    1    1    2  503  502  0.81966743042E+01  0.18269815096E+02  0.29918396185E+02  0.36001139476E+02  0.00000000000E+00 0. -1.
          1    1    1    2  501    0 -0.13835753428E+03 -0.28332713446E+02  0.11142129803E+03  0.17988956501E+03  0.00000000000E+00 0. -1.
<scales pt_clust_5="13000.00000" pt_clust_6="13000.00000" pt_clust_7="13000.00000" pt_clust_8="13000.00000" pt_clust_9="20.02428" pt_clust_10="139.85333"></scales>
<clustering>
<clus scale="   20.024">  1  9  2 -1</clus>
<clus scale="   79.502">  5  6 -1 -1</clus>
<clus scale="   92.084">  7  8 -1 -1</clus>
<clus scale="  139.853">  2 10  1 -1</clus>
<clus scale="  347.584">  1  5  2 -1</clus>
<clus scale="  139.853">  2  5  1 -1</clus>
</clustering>
</event>
<event>
10    4  0.5389768E-005  0.1170373E+03  0.7546771E-02  0.1253285E+00
         21   -1    0    0  501  502  0.00000000000E+00  0.00000000000E+00  0.14578744303E+03  0.14578744303E+03  0.00000000000E+00 0. -1.
          2   -1    0    0  503    0 -0.00000000000E+00 -0.00000000000E+00 -0.10513800002E+04  0.10513800002E+04  0.00000000000E+00 0. -1.
         24    2    1    2    0    0  0.57717899017E+02 -0.20377100648E+01 -0.75557685286E+03  0.76163559840E+03  0.76530360282E+02 0.  0.
         23    2    1    2    0    0 -0.76228500909E+02 -0.29421583792E+02  0.50153577488E+02  0.13275588122E+03  0.91827712157E+02 0.  0.
        -11    1    3    3    0    0 -0.38208853751E+01 -0.24718894392E+02 -0.11380681459E+03  0.11652301898E+03  0.00000000000E+00 0.  1.
         12    1    3    3    0    0  0.61538784392E+02  0.22681184327E+02 -0.64177003826E+03  0.64511257942E+03  0.00000000000E+00 0. -1.
        -13    1    4    4    0    0  0.45086626038E+00 -0.44103234641E+02  0.11200157225E+02  0.45505407460E+02  0.00000000000E+00 0.  1.
         13    1    4    4    0    0 -0.76679367170E+02  0.14681650850E+02  0.38953420263E+02  0.87250473760E+02  0.00000000000E+00 0. -1.
         21    1    1    2  503  502 -0.16954875628E+01  0.50404649657E+02 -0.24496813851E+03  0.25010576217E+03  0.00000000000E+00 0.  1.
          1    1    1    2  501    0  0.20206089455E+02 -0.18945355801E+02  0.44798856705E+02  0.52670201439E+02  0.00000000000E+00 0. -1.
<scales pt_clust_5="13000.00000" pt_clust_6="13000.00000" pt_clust_7="13000.00000" pt_clust_8="13000.00000" pt_clust_9="49.91670" pt_clust_10="27.69860"></scales>
<clustering>
<clus scale="   27.699">  1 10  2 -1</clus>
<clus scale="   49.917">  2  9  1 -1</clus>
<clus scale="   76.530">  5  6 -1 -1</clus>
<clus scale="   91.828">  7  8 -1 -1</clus>
<clus scale="  105.462">  2  5  1 -1</clus>
<clus scale="   27.699">  1  5  2 -1</clus>
</clustering>
</event>
<event>
10    4  0.5389768E-005  0.1687606E+03  0.7546771E-02  0.1181173E+00
         21   -1    0    0  501  502  0.00000000000E+00  0.00000000000E+00  0.27864055535E+03  0.27864055535E+03  0.00000000000E+00 0. -1.
          2   -1    0    0  503    0 -0.00000000000E+00 -0.00000000000E+00 -0.18143150921E+03  0.18143150921E+03  0.00000000000E+00 0. -1.
         23    2    1    2    0    0  0.81550391028E+02 -0.11977598977E+03  0.22103277697E+01  0.17223003729E+03  0.93067428215E+02 0.  0.
         24    2    1    2    0    0 -0.95165751799E+02  0.84726985686E+02  0.14050507743E+03  0.20532762876E+03  0.78629357923E+02 0.  0.
        -13    1    4    4    0    0 -0.61046932418E+02  0.55150658356E+02  0.32848572339E+02  0.88585279699E+02  0.00000000000E+00 0.  1.
         14    1    4    4    0    0 -0.34118819381E+02  0.29576327330E+02  0.10765650509E+03  0.11674234906E+03  0.00000000000E+00 0. -1.
        -13    1    3    3    0    0  0.46611841161E+01 -0.60327005871E+02  0.34701784310E+02  0.69751617250E+02  0.00000000000E+00 0.  1.
         13    1    3    3    0    0  0.76889206912E+02 -0.59448983899E+02 -0.32491456540E+02  0.10247842004E+03  0.00000000000E+00 0. -1.
         21    1    1    2  503  502  0.25128610544E+02  0.90676348970E+01 -0.46995000702E+02  0.54057369169E+02  0.00000000000E+00 0. -1.
          1    1    1    2  501    0 -0.11513249773E+02  0.25981369187E+02  0.14886416371E+01  0.28457029344E+02  0.00000000000E+00 0. -1.
<scales pt_clust_5="13000.00000" pt_clust_6="13000.00000" pt_clust_7="13000.00000" pt_clust_8="13000.00000" pt_clust_9="26.71459" pt_clust_10="28.35652"></scales>
<clustering>
<clus scale="   26.715">  2  9  1 -1</clus>
<clus scale="   28.357">  1 10  2 -1</clus>
<clus scale="   78.629">  5  6 -1 -1</clus>
<clus scale="   93.067">  7  8 -1 -1</clus>
<clus scale="  161.249">  1  5  2 -1</clus>
<clus scale="   28.357">  1  5  2 -1</clus>
</clustering>
</event>
<event>
10    4  0.5389768E-005  0.2099190E+03  0.7546771E-02  0.1142399E+00
         21   -1    0    0  501  502  0.00000000000E+00  0.00000000000E+00  0.74591860841E+02  0.74591860841E+02  0.00000000000E+00 0. -1.
          2   -1    0    0  503    0 -0.00000000000E+00 -0.00000000000E+00 -0.17631245509E+04  0.17631245509E+04  0.00000000000E+00 0. -1.
         24    2    1    2    0    0 -0.11997554409E+03 -0.75283899543E+02 -0.36549361311E+03  0.40035831980E+03  0.81482552101E+02 0.  0.
         23    2    1    2    0    0  0.26265416969E+03  0.19536789451E+02 -0.51856965674E+03  0.58866172534E+03  0.90770253927E+02 0.  0.
        -13    1    3    3    0    0 -0.11196827955E+02 -0.50314387291E+02 -0.10534116035E+03  0.11727602734E+03  0.00000000000E+00 0.  1.
         14    1    3    3    0    0 -0.10877871614E+03 -0.24969512252E+02 -0.26015245276E+03  0.28308229246E+03  0.00000000000E+00 0. -1.
        -11    1    4    4    0    0  0.64466232103E+02  0.10027334710E+02 -0.58493363234E+02  0.87623718623E+02  0.00000000000E+00 0.  1.
         11    1    4    4    0    0  0.19818793759E+03  0.95094547402E+01 -0.46007629350E+03  0.50103800672E+03  0.00000000000E+00 0. -1.
         21    1    1    2  503  502 -0.10652126395E+03  0.11420732158E+03 -0.73332242080E+03  0.74976787396E+03  0.00000000000E+00 0.  1.
          1    1    1    2  501    0 -0.36157361645E+02 -0.58460211484E+02 -0.71146999363E+02  0.98928492591E+02  0.00000000000E+00 0. -1.
<scales pt_clust_5="13000.00000" pt_clust_6="13000.00000" pt_clust_7="13000.00000" pt_clust_8="13000.00000" pt_clust_9="153.98512" pt_clust_10="68.73828"></scales>
<clustering>
<clus scale="   68.738">  1 10  2 -1</clus>
<clus scale="   81.483">  5  6 -1 -1</clus>
<clus scale="   90.770">  7  8 -1 -1</clus>
<clus scale="  153.985">  2  9  1 -1</clus>
<clus scale="  206.073">  2  5  1 -1</clus>
<clus scale="   68.738">  1  5  2 -1</clus>
</clustering>
</event>
<event>
10    4  0.5879325E-005  0.1796165E+03  0.7546771E-02  0.1195164E+00
         21   -1    0    0  503  502  0.00000000000E+00  0.00000000000E+00  0.31159846673E+03  0.31159846673E+03  0.00000000000E+00 0. -1.
         -1   -1    0    0    0  501 -0.00000000000E+00 -0.00000000000E+00 -0.19637818274E+03  0.19637818274E+03  0.00000000000E+00 0.  1.
         24    2    1    2    0    0  0.28430032685E+01 -0.65309944705E+02 -0.17642257220E+01  0.10288120914E+03  0.79422661484E+02 0.  0.
         23    2    1    2    0    0  0.14389127925E+03  0.73065577662E+02  0.14108191404E+03  0.23483168821E+03  0.95909000785E+02 0.  0.
        -13    1    3    3    0    0  0.22202816473E+02 -0.66335881992E+02 -0.23463255217E+02  0.73783051200E+02  0.00000000000E+00 0.  1.
         14    1    3    3    0    0 -0.19359813205E+02  0.10259372866E+01  0.21699029495E+02  0.29098157943E+02  0.00000000000E+00 0. -1.
        -11    1    4    4    0    0 -0.11653126246E+02  0.19574169697E+02  0.12022412055E+02  0.25758141670E+02  0.00000000000E+00 0.  1.
         11    1    4    4    0    0  0.15554440550E+03  0.53491407965E+02  0.12905950199E+03  0.20907354654E+03  0.00000000000E+00 0. -1.
         21    1    1    2  503  501 -0.14116217941E+02  0.27073228993E+02  0.23440398094E+01  0.30622244524E+02  0.00000000000E+00 0.  1.
         -2    1    1    2    0  502 -0.13261806458E+03 -0.34828861950E+02 -0.26441444141E+02  0.13964150760E+03  0.00000000000E+00 0.  1.
<scales pt_clust_5="13000.00000" pt_clust_6="13000.00000" pt_clust_7="13000.00000" pt_clust_8="13000.00000" pt_clust_9="30.53240" pt_clust_10="151.86701"></scales>
<clustering>
<clus scale="   30.532">  2  9  1 -1</clus>
<clus scale="   79.423">  5  6 -1 -1</clus>
<clus scale="   95.909">  7  8 -1 -1</clus>
<clus scale="   98.081">  2  5  1 -1</clus>
<clus scale="  151.867">  1 10  2 -1</clus>
<clus scale="  151.867">  1  5  2 -1</clus>
</clustering>
</event>
<event>
10    4  0.5389768E-005  0.1615874E+03  0.7546771E-02  0.1215195E+00
          2   -1    0    0  503    0 -0.00000000000E+00  0.00000000000E+00  0.56227608282E+03  0.56227608282E+03  0.00000000000E+00 0. -1.
         21   -1    0    0  501  502  0.00000000000E+00 -0.00000000000E+00 -0.17612876983E+03  0.17612876983E+03  0.00000000000E+00 0.  1.
         24    2    1    2    0    0 -0.18304307163E+02 -0.32946797545E+02 -0.65528030530E+02  0.10936040146E+03  0.79026802377E+02 0.  0.
         23    2    1    2    0    0  0.75634441394E+02  0.11680832306E+03  0.37752580488E+02  0.17084364646E+03  0.91638098752E+02 0.  0.
        -11    1    3    3    0    0  0.16592308533E+02 -0.46892582157E+02 -0.41249579553E+02  0.64620018393E+02  0.00000000000E+00 0.  1.
         12    1    3    3    0    0 -0.34896615697E+02  0.13945784611E+02 -0.24278450977E+02  0.44740383071E+02  0.00000000000E+00 0. -1.
        -13    1    4    4    0    0 -0.12483612097E+02  0.32247356667E+02  0.34242225300E+02  0.48664798124E+02  0.00000000000E+00 0.  1.
         13    1    4    4    0    0  0.88118053491E+02  0.84560966388E+02  0.35103551886E+01  0.12217884834E+03  0.00000000000E+00 0. -1.
         21    1    1    2  503  502  0.58807316163E+02 -0.27688889803E+02  0.10595954030E+03  0.12430767971E+03  0.00000000000E+00 0. -1.
          1    1    1    2  501    0 -0.11613745039E+03 -0.56172635707E+02  0.30796322272E+03  0.33389312502E+03  0.00000000000E+00 0. -1.
<scales pt_clust_5="13000.00000" pt_clust_6="13000.00000" pt_clust_7="13000.00000" pt_clust_8="13000.00000" pt_clust_9="64.99981" pt_clust_10="133.09004"></scales>
<clustering>
<clus scale="   65.000">  1  9  2 -1</clus>
<clus scale="   79.027">  5  6 -1 -1</clus>
<clus scale="   87.521">  1  5  2 -1</clus>
<clus scale="   91.638">  7  8 -1 -1</clus>
<clus scale="  133.090">  2 10  1 -1</clus>
<clus scale="  133.090">  2  5  1 -1</clus>
</clustering>
</event>
<event>
10    4  0.5389768E-005  0.1648264E+03  0.7546771E-02  0.1184958E+00
         21   -1    0    0  501  502  0.00000000000E+00  0.00000000000E+00  0.12187931405E+03  0.12187931405E+03  0.00000000000E+00 0. -1.
          2   -1    0    0  503    0 -0.00000000000E+00 -0.00000000000E+00 -0.76432306704E+03  0.76432306704E+03  0.00000000000E+00 0. -1.
         24    2    1    2    0    0 -0.22678252593E+02  0.80313537669E+02 -0.47141954796E+03  0.48529702228E+03  0.79449620262E+02 0.  0.
         23    2    1    2    0    0 -0.44292872916E+02 -0.17681590122E+03 -0.59399974345E+02  0.21199981751E+03  0.90497757730E+02 0.  0.
        -11    1    3    3    0    0 -0.44865912437E+02  0.17107948365E+02 -0.18215605520E+03  0.18837850313E+03  0.00000000000E+00 0.  1.
         12    1    3    3    0    0  0.22187659844E+02  0.63205589304E+02 -0.28926349276E+03  0.29691851915E+03  0.00000000000E+00 0. -1.
        -11    1    4    4    0    0 -0.20959883648E+02 -0.12074931876E+02 -0.36869350436E+02  0.44096141599E+02  0.00000000000E+00 0.  1.
         11    1    4    4    0    0 -0.23332989269E+02 -0.16474096935E+03 -0.22530623909E+02  0.16790367591E+03  0.00000000000E+00 0. -1.
         21    1    1    2  503  502 -0.45196836659E+01  0.68466763056E+02 -0.81194701617E+02  0.10630477296E+03  0.00000000000E+00 0. -1.
          1    1    1    2  501    0  0.71490809175E+02  0.28035600499E+02 -0.30429529069E+02  0.82600768345E+02  0.00000000000E+00 0. -1.
<scales pt_clust_5="13000.00000" pt_clust_6="13000.00000" pt_clust_7="13000.00000" pt_clust_8="13000.00000" pt_clust_9="68.61578" pt_clust_10="78.73663"></scales>
<clustering>
<clus scale="   68.616">  2  9  1 -1</clus>
<clus scale="   78.737">  1 10  2 -1</clus>
<clus scale="   79.450">  5  6 -1 -1</clus>
<clus scale="   90.498">  7  8 -1 -1</clus>
<clus scale="  159.029">  2  5  1 -1</clus>
<clus scale="   78.737">  1  5  2 -1</clus>
</clustering>
</event>
<event>
10    4  0.5389768E-005  0.1237871E+03  0.7546771E-02  0.1268293E+00
         21   -1    0    0  501  502  0.00000000000E+00  0.00000000000E+00  0.28900607738E+03  0.28900607738E+03  0.00000000000E+00 0.  1.
          2   -1    0    0  503    0 -0.00000000000E+00 -0.00000000000E+00 -0.11368025125E+03  0.11368025125E+03  0.00000000000E+00 0. -1.
         24    2    1    2    0    0  0.15730344565E+02  0.37662914875E+01 -0.27975775494E+02  0.72656965761E+02  0.65075048732E+02 0.  0.
         23    2    1    2    0    0  0.85168893185E+02  0.14866543873E+02  0.89254186264E+02  0.15666883083E+03  0.95415189022E+02 0.  0.
        -13    1    3    3    0    0  0.21297974205E+02  0.29729568799E+02 -0.28072389862E+02  0.46103254102E+02  0.00000000000E+00 0.  1.
         14    1    3    3    0    0 -0.55676296407E+01 -0.25963277311E+02  0.96614367375E-01  0.26553711660E+02  0.00000000000E+00 0. -1.
        -13    1    4    4    0    0  0.86139699486E+02  0.39126955111E+02  0.92328671345E+02  0.13219512092E+03  0.00000000000E+00 0.  1.
         13    1    4    4    0    0 -0.97080630019E+00 -0.24260411238E+02 -0.30744850805E+01  0.24473709911E+02  0.00000000000E+00 0. -1.
         21    1    1    2  503  502 -0.75183631525E+02  0.23942055457E+02  0.55129541394E+02  0.96255217018E+02  0.00000000000E+00 0.  1.
          1    1    1    2  501    0 -0.25715606225E+02 -0.42574890818E+02  0.58917873963E+02  0.77105315018E+02  0.00000000000E+00 0. -1.
<scales pt_clust_5="13000.00000" pt_clust_6="13000.00000" pt_clust_7="13000.00000" pt_clust_8="13000.00000" pt_clust_9="78.86182" pt_clust_10="49.73845"></scales>
<clustering>
<clus scale="   49.738">  1 10  2 -1</clus>
<clus scale="   65.075">  5  6 -1 -1</clus>
<clus scale="   66.389">  2  5  1 -1</clus>
<clus scale="   78.862">  2  9  1 -1</clus>
<clus scale="   95.415">  7  8 -1 -1</clus>
<clus scale="   49.738">  1  5  2 -1</clus>
</clustering>
</event>
<event>
10    4  0.5389768E-005  0.9936750E+02  0.7546771E-02  0.1287877E+00
          2   -1    0    0  503    0 -0.00000000000E+00  0.00000000000E+00  0.14781500825E+04  0.14781500825E+04  0.00000000000E+00 0. -1.
         21   -1    0    0  501  502  0.00000000000E+00 -0.00000000000E+00 -0.96934833129E+02  0.96934833129E+02  0.00000000000E+00 0.  1.
         24    2    1    2    0    0  0.36893194718E+02 -0.55567093223E+02  0.12264466068E+04  0.12307373128E+04  0.78065640968E+02 0.  0.
         23    2    1    2    0    0  0.61928858942E+02  0.56770905292E+02 -0.31002273834E+02  0.12723423426E+03  0.90384125415E+02 0.  0.
        -13    1    3    3    0    0  0.19752091968E+02  0.98371546638E+01  0.10704893714E+03  0.10929954114E+03  0.00000000000E+00 0.  1.
         14    1    3    3    0    0  0.17141102750E+02 -0.65404247887E+02  0.11193976696E+04  0.11214377717E+04  0.00000000000E+00 0. -1.
        -11    1    4    4    0    0 -0.19517359915E+02  0.21082948405E+02 -0.25043349802E+02  0.38112824887E+02  0.00000000000E+00 0. -1.
         11    1    4    4    0    0  0.81446218857E+02  0.35687956887E+02 -0.59589240319E+01  0.89121409373E+02  0.00000000000E+00 0.  1.
         21    1    1    2  503  502 -0.32201542060E+02  0.17260400228E+02  0.10289574654E+03  0.10918972196E+03  0.00000000000E+00 0. -1.
          1    1    1    2  501    0 -0.66620511600E+02 -0.18464212298E+02  0.82875169891E+02  0.10792364656E+03  0.00000000000E+00 0. -1.
<scales pt_clust_5="13000.00000" pt_clust_6="13000.00000" pt_clust_7="13000.00000" pt_clust_8="13000.00000" pt_clust_9="36.53575" pt_clust_10="70.99062"></scales>
<clustering>
<clus scale="   36.536">  1  9  2 -1</clus>
<clus scale="   70.991">  2 10  1 -1</clus>
<clus scale="   78.066">  5  6 -1 -1</clus>
<clus scale="   88.311">  1  5  2 -1</clus>
<clus scale="   90.384">  7  8 -1 -1</clus>
<clus scale="   70.991">  2  5  1 -1</clus>
</clustering>
</event>
<event>
10    4  0.5389768E-005  0.1536371E+03  0.7546771E-02  0.1215713E+00
          2   -1    0    0  503    0 -0.00000000000E+00  0.00000000000E+00  0.13306079249E+03  0.13306079249E+03  0.00000000000E+00 0. -1.
         21   -1    0    0  501  502  0.00000000000E+00 -0.00000000000E+00 -0.47174711318E+03  0.47174711318E+03  0.00000000000E+00 0. -1.
         23    2    1    2    0    0  0.31317577671E+02  0.38725521184E+02 -0.36291980973E+02  0.10923736817E+03  0.90195554550E+02 0.  0.
         24    2    1    2    0    0 -0.72460724216E+02  0.86357332809E+02 -0.79179852244E+02  0.15864882042E+03  0.78688332909E+02 0.  0.
        -13    1    4    4    0    0  0.19607116293E+01  0.33955568050E+02  0.53521324689E+01  0.34430659500E+02  0.00000000000E+00 0.  1.
         14    1    4    4    0    0 -0.74421435846E+02  0.52401764759E+02 -0.84531984713E+02  0.12421816092E+03  0.00000000000E+00 0. -1.
        -13    1    3    3    0    0  0.44805702537E+01  0.54829148193E+02 -0.50673215898E+02  0.74793621458E+02  0.00000000000E+00 0. -1.
         13    1    3    3    0    0  0.26837007417E+02 -0.16103627009E+02  0.14381234925E+02  0.34443746717E+02  0.00000000000E+00 0.  1.
         21    1    1    2  503  502 -0.23970230568E+02  0.72206978104E+00  0.34985520456E+02  0.42415562944E+02  0.00000000000E+00 0. -1.
          1    1    1    2  501    0  0.65113377114E+02 -0.12580492377E+03 -0.25820000793E+03  0.29450615413E+03  0.00000000000E+00 0. -1.
<scales pt_clust_5="13000.00000" pt_clust_6="13000.00000" pt_clust_7="13000.00000" pt_clust_8="13000.00000" pt_clust_9="23.98110" pt_clust_10="131.95640"></scales>
<clustering>
<clus scale="   23.981">  1  9  2 -1</clus>
<clus scale="   78.688">  5  6 -1 -1</clus>
<clus scale="   90.196">  7  8 -1 -1</clus>
<clus scale="  100.712">  1  7  2 -1</clus>
<clus scale="  131.956">  2 10  1 -1</clus>
<clus scale="  131.956">  2  5  1 -1</clus>
</clustering>
</event>
<event>
10    4  0.5389768E-005  0.1602618E+03  0.7546771E-02  0.1189382E+00
         21   -1    0    0  503  502  0.00000000000E+00  0.00000000000E+00  0.12276375094E+03  0.12276375094E+03  0.00000000000E+00 0.  1.
         -1   -1    0    0    0  501 -0.00000000000E+00 -0.00000000000E+00 -0.44781776678E+03  0.44781776678E+03  0.00000000000E+00 0.  1.
         24    2    1    2    0    0 -0.52386970698E+02 -0.11960840356E+03 -0.13765910451E+03  0.20636252604E+03  0.81147385654E+02 0.  0.
         23    2    1    2    0    0  0.33633652771E+02  0.14829831425E+03 -0.76885504309E+01  0.17566614882E+03  0.87612039281E+02 0.  0.
        -13    1    3    3    0    0  0.71471299484E+01 -0.64655121356E+02 -0.94045286075E+02  0.11434982299E+03  0.00000000000E+00 0.  1.
         14    1    3    3    0    0 -0.59534100647E+02 -0.54953282207E+02 -0.43613818431E+02  0.92012703054E+02  0.00000000000E+00 0. -1.
        -11    1    4    4    0    0  0.62645480412E+02  0.82810336270E+02 -0.28297852619E+01  0.10387500033E+03  0.00000000000E+00 0.  1.
         11    1    4    4    0    0 -0.29011827641E+02  0.65487977981E+02 -0.48587651691E+01  0.71791148493E+02  0.00000000000E+00 0. -1.
         21    1    1    2  503  501  0.26950606835E+02 -0.19393171022E+01 -0.11360595603E+03  0.11677503759E+03  0.00000000000E+00 0.  1.
         -2    1    1    2    0  502 -0.81972889082E+01 -0.26750593586E+02 -0.66100404882E+02  0.71777805262E+02  0.00000000000E+00 0.  1.
<scales pt_clust_5="13000.00000" pt_clust_6="13000.00000" pt_clust_7="13000.00000" pt_clust_8="13000.00000" pt_clust_9="27.02029" pt_clust_10="27.27785"></scales>
<clustering>
<clus scale="   27.020">  2  9  1 -1</clus>
<clus scale="   27.278">  1 10  2 -1</clus>
<clus scale="   81.147">  5  6 -1 -1</clus>
<clus scale="   87.612">  7  8 -1 -1</clus>
<clus scale="  156.821">  2  5  1 -1</clus>
<clus scale="   27.278">  1  5  2 -1</clus>
</clustering>
</event>
<event>
10    4  0.5389768E-005  0.9336723E+02  0.7546771E-02  0.1299359E+00
          2   -1    0    0  503    0 -0.00000000000E+00  0.00000000000E+00  0.16929289194E+03  0.16929289194E+03  0.00000000000E+00 0. -1.
         21   -1    0    0  501  502  0.00000000000E+00 -0.00000000000E+00 -0.16752988168E+03  0.16752988168E+03  0.00000000000E+00 0. -1.
         24    2    1    2    0    0 -0.25927999348E+02  0.12424158652E+02 -0.19799293796E+02  0.87133327099E+02  0.79834727958E+02 0.  0.
         23    2    1    2    0    0  0.30499749813E+02 -0.31854671184E+00 -0.72421509552E+02  0.11780085344E+03  0.87760069593E+02 0.  0.
        -13    1    3    3    0    0 -0.16596199637E+02  0.45333236673E+02 -0.21582209205E+02  0.52880317168E+02  0.00000000000E+00 0.  1.
         14    1    3    3    0    0 -0.93317997113E+01 -0.32909078021E+02  0.17829154085E+01  0.34253009932E+02  0.00000000000E+00 0. -1.
        -11    1    4    4    0    0  0.30144197377E+02  0.40335261031E+02 -0.51697640567E+02  0.72168219863E+02  0.00000000000E+00 0. -1.
         11    1    4    4    0    0  0.35555243582E+00 -0.40653807743E+02 -0.20723868985E+02  0.45632633578E+02  0.00000000000E+00 0.  1.
         21    1    1    2  503  502 -0.22428399461E+02 -0.25674430137E+02  0.10240662034E+03  0.10793204045E+03  0.00000000000E+00 0. -1.
          1    1    1    2  501    0  0.17856648996E+02  0.13568818197E+02 -0.84228067304E+01  0.23956552628E+02  0.00000000000E+00 0. -1.
<scales pt_clust_5="13000.00000" pt_clust_6="13000.00000" pt_clust_7="13000.00000" pt_clust_8="13000.00000" pt_clust_9="33.69029" pt_clust_10="22.42705"></scales>
<clustering>
<clus scale="   22.427">  2 10  1 -1</clus>
<clus scale="   33.690">  1  9  2 -1</clus>
<clus scale="   79.835">  5  6 -1 -1</clus>
<clus scale="   85.960">  1  5  2 -1</clus>
<clus scale="   87.760">  7  8 -1 -1</clus>
<clus scale="   22.427">  2  5  1 -1</clus>
</clustering>
</event>
<event>
10    4  0.5389768E-005  0.1123619E+03  0.7546771E-02  0.1268594E+00
         21   -1    0    0  501  502  0.00000000000E+00  0.00000000000E+00  0.81289079049E+02  0.81289079049E+02  0.00000000000E+00 0.  1.
          2   -1    0    0  503    0 -0.00000000000E+00 -0.00000000000E+00 -0.75055694984E+03  0.75055694984E+03  0.00000000000E+00 0. -1.
         23    2    1    2    0    0 -0.56880225028E+02 -0.10452999178E+02 -0.34519861273E+03  0.36163579465E+03  0.90960104166E+02 0.  0.
         24    2    1    2    0    0 -0.49612047643E+02  0.64476542706E+02 -0.27325548405E+02  0.11717207599E+03  0.79774870515E+02 0.  0.
        -11    1    4    4    0    0 -0.34299319579E+02  0.66966601155E+02  0.10800351208E+02  0.76010634651E+02  0.00000000000E+00 0.  1.
         12    1    4    4    0    0 -0.15312728064E+02 -0.24900584494E+01 -0.38125899613E+02  0.41161441339E+02  0.00000000000E+00 0. -1.
        -11    1    3    3    0    0 -0.81810713793E+02 -0.12458581728E+02 -0.26184751306E+03  0.27461305367E+03  0.00000000000E+00 0. -1.
         11    1    3    3    0    0  0.24930488765E+02  0.20055825504E+01 -0.83351099672E+02  0.87022740982E+02  0.00000000000E+00 0.  1.
         21    1    1    2  503  502  0.82200885728E+02  0.27466298968E+02 -0.71757414626E+02  0.11251893062E+03  0.00000000000E+00 0.  1.
          1    1    1    2  501    0  0.24291386943E+02 -0.81489842496E+02 -0.22498629503E+03  0.24051922763E+03  0.00000000000E+00 0. -1.
<scales pt_clust_5="13000.00000" pt_clust_6="13000.00000" pt_clust_7="13000.00000" pt_clust_8="13000.00000" pt_clust_9="65.96554" pt_clust_10="85.03336"></scales>
<clustering>
<clus scale="   79.775">  5  6 -1 -1</clus>
<clus scale="   85.033">  1 10  2 -1</clus>
<clus scale="   88.253">  1  5  2 -1</clus>
<clus scale="   65.966">  1  9  2 -1</clus>
<clus scale="   90.960">  7  8 -1 -1</clus>
<clus scale="   85.033">  1  5  2 -1</clus>
</clustering>
</event>
<event>
10    4  0.5389768E-005  0.2831098E+03  0.7546771E-02  0.1094428E+00
         21   -1    0    0  501  502  0.00000000000E+00  0.00000000000E+00  0.11893541642E+03  0.11893541642E+03  0.00000000000E+00 0. -1.
          2   -1    0    0  503    0 -0.00000000000E+00 -0.00000000000E+00 -0.18674163999E+04  0.18674163999E+04  0.00000000000E+00 0. -1.
         24    2    1    2    0    0  0.20583903535E+03 -0.40484144541E+02 -0.18330262369E+03  0.29056928685E+03  0.82595303625E+02 0.  0.
         23    2    1    2    0    0 -0.32906901706E+03 -0.39358093483E+02 -0.49924983582E+03  0.60636534184E+03  0.92698714679E+02 0.  0.
        -11    1    3    3    0    0  0.16536435504E+03  0.19933612925E+01 -0.12048083397E+03  0.20460932227E+03  0.00000000000E+00 0.  1.
         12    1    3    3    0    0  0.40474680311E+02 -0.42477505834E+02 -0.62821789718E+02  0.85959964585E+02  0.00000000000E+00 0. -1.
        -13    1    4    4    0    0 -0.10496717570E+03 -0.95674571063E+01 -0.24161511231E+03  0.26360483058E+03  0.00000000000E+00 0.  1.
         13    1    4    4    0    0 -0.22410184136E+03 -0.29790636376E+02 -0.25763472351E+03  0.34276051126E+03  0.00000000000E+00 0. -1.
         21    1    1    2  503  502 -0.10235126507E+02 -0.35623515761E+02 -0.84852117607E+02  0.92594138865E+02  0.00000000000E+00 0. -1.
          1    1    1    2  501    0  0.13346510823E+03  0.11546575379E+03 -0.98107640634E+03  0.99682304874E+03  0.00000000000E+00 0. -1.
<scales pt_clust_5="13000.00000" pt_clust_6="13000.00000" pt_clust_7="13000.00000" pt_clust_8="13000.00000" pt_clust_9="37.06471" pt_clust_10="159.61515"></scales>
<clustering>
<clus scale="   37.065">  2  9  1 -1</clus>
<clus scale="   82.595">  5  6 -1 -1</clus>
<clus scale="   92.699">  7  8 -1 -1</clus>
<clus scale="  159.615">  1 10  2 -1</clus>
<clus scale="  279.964">  2  5  1 -1</clus>
<clus scale="  159.615">  1  5  2 -1</clus>
</clustering>
</event>
<event>
10    4  0.5389768E-005  0.1991166E+03  0.7546771E-02  0.1151669E+00
         21   -1    0    0  501  502  0.00000000000E+00  0.00000000000E+00  0.73526310913E+02  0.73526310913E+02  0.00000000000E+00 0.  1.
          2   -1    0    0  503    0 -0.00000000000E+00 -0.00000000000E+00 -0.24118671221E+04  0.24118671221E+04  0.00000000000E+00 0. -1.
         23    2    1    2    0    0  0.20729890664E+03 -0.49048629610E+02 -0.11107547221E+04  0.11347126486E+04  0.91750407858E+02 0.  0.
         24    2    1    2    0    0 -0.23270059720E+03 -0.32078281480E-02 -0.23491561612E+03  0.33999510172E+03  0.79131248879E+02 0.  0.
        -11    1    4    4    0    0 -0.22182912315E+03  0.19681221187E+02 -0.21978699734E+03  0.31289268855E+03  0.00000000000E+00 0.  1.
         12    1    4    4    0    0 -0.10871474049E+02 -0.19684429016E+02 -0.15128618776E+02  0.27102413172E+02  0.00000000000E+00 0. -1.
        -13    1    3    3    0    0  0.17324662513E+03 -0.13787661816E+01 -0.84473812566E+03  0.86232174683E+03  0.00000000000E+00 0.  1.
         13    1    3    3    0    0  0.34052281512E+02 -0.47669863429E+02 -0.26601659646E+03  0.27239090174E+03  0.00000000000E+00 0. -1.
         21    1    1    2  503  502 -0.73163297894E+02  0.23065835957E+02 -0.60475964119E+03  0.60960571237E+03  0.00000000000E+00 0.  1.
          1    1    1    2  501    0  0.98564988453E+02  0.25986001481E+02 -0.38791083175E+03  0.40107997034E+03  0.00000000000E+00 0. -1.
<scales pt_clust_5="13000.00000" pt_clust_6="13000.00000" pt_clust_7="13000.00000" pt_clust_8="13000.00000" pt_clust_9="76.71311" pt_clust_10="88.20918"></scales>
<clustering>
<clus scale="   76.713">  2  9  1 -1</clus>
<clus scale="   79.131">  5  6 -1 -1</clus>
<clus scale="   88.209">  1 10  2 -1</clus>
<clus scale="   91.750">  7  8 -1 -1</clus>
<clus scale="  193.626">  1  5  2 -1</clus>
<clus scale="   88.209">  1  5  2 -1</clus>
</clustering>
</event>
<event>
10    4  0.5389768E-005  0.1032297E+03  0.7546771E-02  0.1278172E+00
         21   -1    0    0  503  502  0.00000000000E+00  0.00000000000E+00  0.50539548067E+03  0.50539548067E+03  0.00000000000E+00 0.  1.
         -3   -1    0    0    0  501 -0.00000000000E+00 -0.00000000000E+00 -0.13370764622E+03  0.13370764622E+03  0.00000000000E+00 0.  1.
         24    2    1    2    0    0 -0.30188952792E+02 -0.96332179409E+01 -0.63386814835E+02  0.10744300543E+03  0.80758525009E+02 0.  0.
         23    2    1    2    0    0  0.35205646982E+02 -0.34221544900E+02  0.15417472362E+03  0.18546849954E+03  0.90654107468E+02 0.  0.
        -13    1    3    3    0    0 -0.24582512909E+02 -0.26606561757E+02 -0.76919806977E+02  0.85022736811E+02  0.00000000000E+00 0.  1.
         14    1    3    3    0    0 -0.56064398828E+01  0.16973343816E+02  0.13532992142E+02  0.22420268616E+02  0.00000000000E+00 0. -1.
        -11    1    4    4    0    0  0.59043210469E+02 -0.37381766389E+02  0.74070156988E+02  0.10183263385E+03  0.00000000000E+00 0. -1.
         11    1    4    4    0    0 -0.23837563487E+02  0.31602214890E+01  0.80104566637E+02  0.83635865685E+02  0.00000000000E+00 0.  1.
         21    1    1    2  503  501 -0.23137267876E+02 -0.27496705199E+02 -0.16696274361E+02  0.39625339609E+02  0.00000000000E+00 0. -1.
         -4    1    1    2    0  502  0.18120573686E+02  0.71351468040E+02  0.29759620003E+03  0.30656628231E+03  0.00000000000E+00 0.  1.
<scales pt_clust_5="13000.00000" pt_clust_6="13000.00000" pt_clust_7="13000.00000" pt_clust_8="13000.00000" pt_clust_9="35.93608" pt_clust_10="72.24506"></scales>
<clustering>
<clus scale="   35.936">  2  9  1 -1</clus>
<clus scale="   72.245">  1 10  2 -1</clus>
<clus scale="   80.759">  5  6 -1 -1</clus>
<clus scale="   90.654">  7  8 -1 -1</clus>
<clus scale="   94.658">  2  5  1 -1</clus>
<clus scale="   72.245">  1  5  2 -1</clus>
</clustering>
</event>
<event>
10    4  0.5389768E-005  0.9201703E+02  0.7546771E-02  0.1303464E+00
          2   -1    0    0  503    0 -0.00000000000E+00  0.00000000000E+00  0.39642057033E+03  0.39642057033E+03  0.00000000000E+00 0. -1.
         21   -1    0    0  501  502  0.00000000000E+00 -0.00000000000E+00 -0.97616337935E+02  0.97616337935E+02  0.00000000000E+00 0.  1.
         24    2    1    2    0    0  0.25327400738E+02  0.36171725535E+02  0.29255054043E+03  0.30650245135E+03  0.80050378007E+02 0.  0.
         23    2    1    2    0    0  0.11468549277E+02 -0.10200902159E+02 -0.49728643131E+02  0.10319869199E+03  0.89114791442E+02 0.  0.
        -11    1    3    3    0    0 -0.15712186144E+02 -0.17540863347E+02  0.86443318674E+02  0.89593537846E+02  0.00000000000E+00 0.  1.
         12    1    3    3    0    0  0.41039586882E+02  0.53712588882E+02  0.20610722176E+03  0.21690891350E+03  0.00000000000E+00 0. -1.
        -13    1    4    4    0    0  0.35142358580E+02  0.10072594675E+02  0.81559067509E+01  0.37456125600E+02  0.00000000000E+00 0. -1.
         13    1    4    4    0    0 -0.23673809302E+02 -0.20273496834E+02 -0.57884549882E+02  0.65742566392E+02  0.00000000000E+00 0.  1.
         21    1    1    2  503  502 -0.39806916381E+01 -0.26023054154E+02  0.39872653850E+02  0.47779428403E+02  0.00000000000E+00 0.  1.
          1    1    1    2  501    0 -0.32815258377E+02  0.52230777864E-01  0.16109681249E+02  0.36556336528E+02  0.00000000000E+00 0. -1.
<scales pt_clust_5="13000.00000" pt_clust_6="13000.00000" pt_clust_7="13000.00000" pt_clust_8="13000.00000" pt_clust_9="26.32575" pt_clust_10="33.16652"></scales>
<clustering>
<clus scale="   26.326">  1  9  2 -1</clus>
<clus scale="   33.167">  2 10  1 -1</clus>
<clus scale="   80.050">  5  6 -1 -1</clus>
<clus scale="   83.269">  1  5  2 -1</clus>
<clus scale="   89.115">  7  8 -1 -1</clus>
<clus scale="   33.167">  2  5  1 -1</clus>
</clustering>
</event>
<event>
10    4  0.5389768E-005  0.1183550E+03  0.7546771E-02  0.1257166E+00
         21   -1    0    0  501  502  0.00000000000E+00  0.00000000000E+00  0.61055722833E+02  0.61055722833E+02  0.00000000000E+00 0.  1.
          2   -1    0    0  503    0 -0.00000000000E+00 -0.00000000000E+00 -0.68595504515E+03  0.68595504515E+03  0.00000000000E+00 0. -1.
         23    2    1    2    0    0 -0.11455482698E+02  0.18054144856E+02 -0.27747879174E+03  0.29284099436E+03  0.91127316900E+02 0.  0.
         24    2    1    2    0    0  0.67722612765E+01  0.62143595283E+02 -0.65101276223E+02  0.12147510588E+03  0.81303968071E+02 0.  0.
        -13    1    4    4    0    0 -0.20527542717E+01  0.59272192863E+02 -0.37502955036E+01  0.59426184156E+02  0.00000000000E+00 0.  1.
         14    1    4    4    0    0  0.88250155482E+01  0.28714024190E+01 -0.61350980720E+02  0.62048921719E+02  0.00000000000E+00 0. -1.
        -11    1    3    3    0    0 -0.51315685203E+02  0.15608636102E+02 -0.15537417776E+03  0.16437172562E+03  0.00000000000E+00 0.  1.
         11    1    3    3    0    0  0.39860202505E+02  0.24455087535E+01 -0.12210461398E+03  0.12846926875E+03  0.00000000000E+00 0. -1.
         21    1    1    2  503  502 -0.20190068578E+01 -0.10659638697E+03 -0.28598598574E+03  0.30521279486E+03  0.00000000000E+00 0. -1.
          1    1    1    2  501    0  0.67022282788E+01  0.26398646832E+02  0.36667313840E+01  0.27481872889E+02  0.00000000000E+00 0. -1.
<scales pt_clust_5="13000.00000" pt_clust_6="13000.00000" pt_clust_7="13000.00000" pt_clust_8="13000.00000" pt_clust_9="86.00907" pt_clust_10="27.23616"></scales>
<clustering>
<clus scale="   27.236">  1 10  2 -1</clus>
<clus scale="   81.304">  5  6 -1 -1</clus>
<clus scale="   91.127">  7  8 -1 -1</clus>
<clus scale="   94.433">  2  7  1 -1</clus>
<clus scale="   86.009">  2  9  1 -1</clus>
<clus scale="   27.236">  1  5  2 -1</clus>
</clustering>
</event>
<event>
10    4  0.5389768E-005  0.3623028E+03  0.7546771E-02  0.1057992E+00
          2   -1    0    0  503    0 -0.00000000000E+00  0.00000000000E+00  0.12670557524E+04  0.12670557524E+04  0.00000000000E+00 0. -1.
         21   -1    0    0  501  502  0.00000000000E+00 -0.00000000000E+00 -0.45347585180E+03  0.45347585180E+03  0.00000000000E+00 0. -1.
         24    2    1    2    0    0  0.77749797626E+02 -0.32169934624E+03  0.98350692233E+03  0.10408427378E+04  0.80822263197E+02 0.  0.
         23    2    1    2    0    0 -0.15199007232E+03  0.30977942930E+03 -0.19089629198E+03  0.40539963729E+03  0.94038262013E+02 0.  0.
        -11    1    3    3    0    0  0.14292195441E+02 -0.10498671098E+03  0.43402159819E+03  0.44676752794E+03  0.00000000000E+00 0.  1.
         12    1    3    3    0    0  0.63457602185E+02 -0.21671263526E+03  0.54948532414E+03  0.59407520989E+03  0.00000000000E+00 0. -1.
        -11    1    4    4    0    0 -0.14404179372E+03  0.19779673732E+03 -0.11902686484E+03  0.27210105143E+03  0.00000000000E+00 0. -1.
         11    1    4    4    0    0 -0.79482785915E+01  0.11198269197E+03 -0.71869427143E+02  0.13329858586E+03  0.00000000000E+00 0.  1.
         21    1    1    2  503  502  0.38048220852E+02 -0.12194550160E+02  0.14103735851E+03  0.14658755288E+03  0.00000000000E+00 0. -1.
          1    1    1    2  501    0  0.36192053836E+02  0.24114467101E+02 -0.12006808827E+03  0.12770167620E+03  0.00000000000E+00 0. -1.
<scales pt_clust_5="13000.00000" pt_clust_6="13000.00000" pt_clust_7="13000.00000" pt_clust_8="13000.00000" pt_clust_9="39.95465" pt_clust_10="43.57466"></scales>
<clustering>
<clus scale="   39.955">  1  9  2 -1</clus>
<clus scale="   43.575">  2 10  1 -1</clus>
<clus scale="   80.822">  5  6 -1 -1</clus>
<clus scale="   94.038">  7  8 -1 -1</clus>
<clus scale="  359.099">  1  5  2 -1</clus>
<clus scale="   43.575">  2  5  1 -1</clus>
</clustering>
</event>
<event>
10    4  0.5389768E-005  0.9176030E+02  0.7546771E-02  0.1301040E+00
          2   -1    0    0  503    0 -0.00000000000E+00  0.00000000000E+00  0.55350618252E+03  0.55350618252E+03  0.00000000000E+00 0. -1.
         21   -1    0    0  501  502  0.00000000000E+00 -0.00000000000E+00 -0.91712436824E+02  0.91712436824E+02  0.00000000000E+00 0. -1.
         24    2    1    2    0    0  0.21279108020E+02  0.43609970778E+01  0.29265134576E+03  0.30429360158E+03  0.80485818951E+02 0.  0.
         23    2    1    2    0    0 -0.46197442520E+02 -0.61080047837E+02  0.12094383884E+02  0.10852225251E+03  0.75933057552E+02 0.  0.
        -11    1    3    3    0    0  0.99568636445E+01 -0.27349974761E+02  0.40332888520E+02  0.49738336818E+02  0.00000000000E+00 0.  1.
         12    1    3    3    0    0  0.11322244376E+02  0.31710971839E+02  0.25231845724E+03  0.25455526476E+03  0.00000000000E+00 0. -1.
        -11    1    4    4    0    0 -0.17582199046E+02 -0.37038774333E+02  0.43447653244E+02  0.59738623183E+02  0.00000000000E+00 0. -1.
         11    1    4    4    0    0 -0.28615243474E+02 -0.24041273504E+02 -0.31353269360E+02  0.48783629327E+02  0.00000000000E+00 0.  1.
         21    1    1    2  503  502  0.74987542095E+01  0.28834440598E+02  0.18613516504E+03  0.18850452499E+03  0.00000000000E+00 0. -1.
          1    1    1    2  501    0  0.17419580291E+02  0.27884610162E+02 -0.29087148991E+02  0.43898240258E+02  0.00000000000E+00 0. -1.
<scales pt_clust_5="13000.00000" pt_clust_6="13000.00000" pt_clust_7="13000.00000" pt_clust_8="13000.00000" pt_clust_9="29.79356" pt_clust_10="33.45386"></scales>
<clustering>
<clus scale="   29.794">  1  9  2 -1</clus>
<clus scale="   33.454">  2 10  1 -1</clus>
<clus scale="   75.933">  7  8 -1 -1</clus>
<clus scale="   80.486">  5  6 -1 -1</clus>
<clus scale="   87.794">  2  7  1 -1</clus>
<clus scale="   33.454">  2  5  1 -1</clus>
</clustering>
</event>
<event>
10    4  0.5389768E-005  0.1661755E+03  0.7546771E-02  0.1183070E+00
         21   -1    0    0  501  502  0.00000000000E+00  0.00000000000E+00  0.29004482666E+03  0.29004482666E+03  0.00000000000E+00 0. -1.
          2   -1    0    0  503    0 -0.00000000000E+00 -0.00000000000E+00 -0.19914353856E+03  0.19914353856E+03  0.00000000000E+00 0. -1.
         23    2    1    2    0    0 -0.11800828914E+03  0.27598674359E+02 -0.46724463419E+01  0.15124386268E+03  0.90361668368E+02 0.  0.
         24    2    1    2    0    0  0.11840920718E+03 -0.10198899140E+03  0.99024215855E+02  0.20243370783E+03  0.82165175276E+02 0.  0.
        -11    1    4    4    0    0  0.27342093598E+02 -0.76834956189E+02  0.53703020474E+02  0.97648425399E+02  0.00000000000E+00 0.  1.
         12    1    4    4    0    0  0.91067113578E+02 -0.25154035211E+02  0.45321195381E+02  0.10478528243E+03  0.00000000000E+00 0. -1.
        -13    1    3    3    0    0 -0.62218967173E+01  0.36093978743E+02 -0.12904875456E+02  0.38833273243E+02  0.00000000000E+00 0.  1.
         13    1    3    3    0    0 -0.11178639242E+03 -0.84953043839E+01  0.82324291138E+01  0.11241058943E+03  0.00000000000E+00 0. -1.
         21    1    1    2  503  502 -0.22868122594E+02  0.49479416681E+02 -0.52767861587E+02  0.75865742747E+02  0.00000000000E+00 0.  1.
          1    1    1    2  501    0  0.22467204558E+02  0.24910900361E+02  0.49317380172E+02  0.59645051970E+02  0.00000000000E+00 0. -1.
<scales pt_clust_5="13000.00000" pt_clust_6="13000.00000" pt_clust_7="13000.00000" pt_clust_8="13000.00000" pt_clust_9="55.17562" pt_clust_10="33.54591"></scales>
<clustering>
<clus scale="   33.546">  1 10  2 -1</clus>
<clus scale="   55.176">  2  9  1 -1</clus>
<clus scale="   82.165">  5  6 -1 -1</clus>
<clus scale="   90.362">  7  8 -1 -1</clus>
<clus scale="  161.865">  1  5  2 -1</clus>
<clus scale="   33.546">  1  5  2 -1</clus>
</clustering>
</event>
<event>
10    4  0.5389768E-005  0.1120592E+03  0.7546771E-02  0.1264639E+00
         21   -1    0    0  501  502  0.00000000000E+00  0.00000000000E+00  0.11158528600E+03  0.11158528600E+03  0.00000000000E+00 0. -1.
          2   -1    0    0  503    0 -0.00000000000E+00 -0.00000000000E+00 -0.32562086394E+03  0.32562086394E+03  0.00000000000E+00 0. -1.
         23    2    1    2    0    0 -0.46751214974E+02  0.16946123132E+01 -0.13807313678E+03  0.17612939649E+03  0.98837368417E+02 0.  0.
         24    2    1    2    0    0  0.33932463714E+02  0.63298138899E+02 -0.16663630772E+02  0.10899119651E+03  0.80270404541E+02 0.  0.
        -11    1    4    4    0    0  0.37262608876E+02  0.11837197465E+02 -0.36741196456E+02  0.53651996991E+02  0.00000000000E+00 0.  1.
         12    1    4    4    0    0 -0.33301451616E+01  0.51460941434E+02  0.20077565684E+02  0.55339199523E+02  0.00000000000E+00 0. -1.
        -13    1    3    3    0    0  0.20232527779E+02  0.21444299665E+01  0.24152899208E+01  0.20488713615E+02  0.00000000000E+00 0.  1.
         13    1    3    3    0    0 -0.66983742753E+02 -0.44981765338E+00 -0.14048842670E+03  0.15564068288E+03  0.00000000000E+00 0. -1.
         21    1    1    2  503  502 -0.20305560686E+02  0.28835017366E+01 -0.72559876783E+02  0.75402692895E+02  0.00000000000E+00 0.  1.
          1    1    1    2  501    0  0.33124311946E+02 -0.67876252949E+02  0.13261066391E+02  0.76682864044E+02  0.00000000000E+00 0. -1.
<scales pt_clust_5="13000.00000" pt_clust_6="13000.00000" pt_clust_7="13000.00000" pt_clust_8="13000.00000" pt_clust_9="20.50928" pt_clust_10="74.10963"></scales>
<clustering>
<clus scale="   20.509">  2  9  1 -1</clus>
<clus scale="   74.110">  1 10  2 -1</clus>
<clus scale="   80.270">  5  6 -1 -1</clus>
<clus scale="   96.082">  1  5  2 -1</clus>
<clus scale="   98.837">  7  8 -1 -1</clus>
<clus scale="   74.110">  1  5  2 -1</clus>
</clustering>
</event>
<event>
10    4  0.5389768E-005  0.1370343E+03  0.7546771E-02  0.1219790E+00
          2   -1    0    0  503    0 -0.00000000000E+00  0.00000000000E+00  0.15040155930E+04  0.15040155930E+04  0.00000000000E+00 0. -1.
         21   -1    0    0  501  502  0.00000000000E+00 -0.00000000000E+00 -0.41888943020E+02  0.41888943020E+02  0.00000000000E+00 0. -1.
         24    2    1    2    0    0 -0.77488701180E+02  0.54301748291E+02  0.83361122511E+03  0.84296951370E+03  0.82077693177E+02 0.  0.
         23    2    1    2    0    0  0.11796841558E+03 -0.47779928858E+02  0.14651708479E+03  0.21498331907E+03  0.92472172389E+02 0.  0.
        -11    1    3    3    0    0 -0.81400562934E+02  0.61125347398E+02  0.55568486552E+03  0.56493188042E+03  0.00000000000E+00 0.  1.
         12    1    3    3    0    0  0.39118617542E+01 -0.68235991077E+01  0.27792635958E+03  0.27803763328E+03  0.00000000000E+00 0. -1.
        -11    1    4    4    0    0  0.26118165951E+02  0.18780050206E+02  0.33743092663E+01  0.32345553657E+02  0.00000000000E+00 0.  1.
         11    1    4    4    0    0  0.91850249629E+02 -0.66559979064E+02  0.14314277552E+03  0.18263776541E+03  0.00000000000E+00 0. -1.
         21    1    1    2  503  502 -0.21129447833E+02 -0.35133691181E+02  0.23490737131E+03  0.23845817855E+03  0.00000000000E+00 0.  1.
          1    1    1    2  501    0 -0.19350266567E+02  0.28611871749E+02  0.24709096882E+03  0.24949352475E+03  0.00000000000E+00 0. -1.
<scales pt_clust_5="13000.00000" pt_clust_6="13000.00000" pt_clust_7="13000.00000" pt_clust_8="13000.00000" pt_clust_9="40.38633" pt_clust_10="34.54089"></scales>
<clustering>
<clus scale="   34.541">  2 10  1 -1</clus>
<clus scale="   40.386">  1  9  2 -1</clus>
<clus scale="   82.078">  5  6 -1 -1</clus>
<clus scale="   92.472">  7  8 -1 -1</clus>
<clus scale="  130.246">  1  5  2 -1</clus>
<clus scale="   34.541">  2  5  1 -1</clus>
</clustering>
</event>
<event>
10    4  0.5389768E-005  0.9702845E+02  0.7546771E-02  0.1289508E+00
         21   -1    0    0  503  502  0.00000000000E+00  0.00000000000E+00  0.99668758140E+02  0.99668758140E+02  0.00000000000E+00 0. -1.
         -1   -1    0    0    0  501 -0.00000000000E+00 -0.00000000000E+00 -0.36577347206E+03  0.36577347206E+03  0.00000000000E+00 0.  1.
         23    2    1    2    0    0  0.26801929567E+01  0.87218856123E+01 -0.88843357354E+02  0.12780864213E+03  0.91425664521E+02 0.  0.
         24    2    1    2    0    0  0.22370050698E+02 -0.27992832202E+02  0.28392117360E+02  0.97452409377E+02  0.86063011465E+02 0.  0.
        -13    1    4    4    0    0 -0.27925720177E+02  0.92566181945E+01  0.18759008346E+01  0.29479651146E+02  0.00000000000E+00 0.  1.
         14    1    4    4    0    0  0.50295770875E+02 -0.37249450396E+02  0.26516216525E+02  0.67972758231E+02  0.00000000000E+00 0. -1.
        -11    1    3    3    0    0 -0.38961469974E+02  0.25777228135E+02 -0.49066464953E+02  0.67749388306E+02  0.00000000000E+00 0.  1.
         11    1    3    3    0    0  0.41641662931E+02 -0.17055342523E+02 -0.39776892402E+02  0.60059253820E+02  0.00000000000E+00 0. -1.
         21    1    1    2  503  501 -0.57442639162E+02  0.78876252165E+01 -0.19617261181E+03  0.20456188563E+03  0.00000000000E+00 0.  1.
         -2    1    1    2    0  502  0.32392395507E+02  0.11383321373E+02 -0.94808621079E+01  0.35619293065E+02  0.00000000000E+00 0.  1.
<scales pt_clust_5="13000.00000" pt_clust_6="13000.00000" pt_clust_7="13000.00000" pt_clust_8="13000.00000" pt_clust_9="56.50735" pt_clust_10="34.33435"></scales>
<clustering>
<clus scale="   34.334">  1 10  2 -1</clus>
<clus scale="   56.507">  2  9  1 -1</clus>
<clus scale="   86.063">  5  6 -1 -1</clus>
<clus scale="   91.426">  7  8 -1 -1</clus>
<clus scale="   91.993">  1  5  2 -1</clus>
<clus scale="   34.334">  1  5  2 -1</clus>
</clustering>
</event>
<event>
10    4  0.5389768E-005  0.1142366E+03  0.7546771E-02  0.1257719E+00
          2   -1    0    0  502    0 -0.00000000000E+00  0.00000000000E+00  0.39894921911E+03  0.39894921911E+03  0.00000000000E+00 0. -1.
         21   -1    0    0  503  502  0.00000000000E+00 -0.00000000000E+00 -0.75459379800E+02  0.75459379800E+02  0.00000000000E+00 0. -1.
         24    2    1    2    0    0 -0.54499927927E+02 -0.38058603965E+02  0.15048623018E+03  0.18285589134E+03  0.79821501148E+02 0.  0.
         23    2    1    2    0    0  0.77523604563E+02 -0.21632572344E+01  0.32065164432E+02  0.12519407673E+03  0.92902062039E+02 0.  0.
        -13    1    3    3    0    0 -0.35511044126E+02 -0.51163079126E+02  0.14683536935E+03  0.15949708653E+03  0.00000000000E+00 0.  1.
         14    1    3    3    0    0 -0.18988883801E+02  0.13104475161E+02  0.36508608262E+01  0.23358804807E+02  0.00000000000E+00 0. -1.
        -13    1    4    4    0    0  0.62407638693E+02  0.26831081109E+02  0.53179825169E+02  0.86271166016E+02  0.00000000000E+00 0.  1.
         13    1    4    4    0    0  0.15115965870E+02 -0.28994338343E+02 -0.21114660737E+02  0.38922910711E+02  0.00000000000E+00 0. -1.
         21    1    1    2  503  501 -0.20364083643E+02 -0.16078615077E+02  0.19433228064E+02  0.32417096082E+02  0.00000000000E+00 0. -1.
          1    1    1    2  501    0 -0.26595929934E+01  0.56300476277E+02  0.12150521664E+03  0.13394153476E+03  0.00000000000E+00 0. -1.
<scales pt_clust_5="13000.00000" pt_clust_6="13000.00000" pt_clust_7="13000.00000" pt_clust_8="13000.00000" pt_clust_9="25.94644" pt_clust_10="55.03477"></scales>
<clustering>
<clus scale="   25.946">  2  9  1 -1</clus>
<clus scale="   55.035">  2 10  1 -1</clus>
<clus scale="   79.822">  5  6 -1 -1</clus>
<clus scale="   92.902">  7  8 -1 -1</clus>
<clus scale="  103.878">  1  5  2 -1</clus>
<clus scale="   25.946">  2  5  1 -1</clus>
</clustering>
</event>
<event>
10    4  0.5389768E-005  0.1893510E+03  0.7546771E-02  0.1183806E+00
         21   -1    0    0  501  502  0.00000000000E+00  0.00000000000E+00  0.71872847725E+03  0.71872847725E+03  0.00000000000E+00 0. -1.
          2   -1    0    0  503    0 -0.00000000000E+00 -0.00000000000E+00 -0.14132909374E+03  0.14132909374E+03  0.00000000000E+00 0. -1.
         24    2    1    2    0    0  0.23463164856E+01  0.75496624580E+02  0.17633840862E+03  0.20841335659E+03  0.81459482711E+02 0.  0.
         23    2    1    2    0    0 -0.17796612998E+02 -0.18982650913E+03  0.32703527267E+03  0.38963958580E+03  0.92282794995E+02 0.  0.
        -13    1    3    3    0    0 -0.28446697631E+02 -0.60818076838E+00  0.36829059375E+02  0.46539919471E+02  0.00000000000E+00 0.  1.
         14    1    3    3    0    0  0.30793014117E+02  0.76104805349E+02  0.13950934925E+03  0.16187343711E+03  0.00000000000E+00 0. -1.
        -13    1    4    4    0    0 -0.13145219342E+02 -0.69859359031E+02  0.21108001527E+03  0.22272830912E+03  0.00000000000E+00 0.  1.
         13    1    4    4    0    0 -0.46513936554E+01 -0.11996715010E+03  0.11595525740E+03  0.16691127668E+03  0.00000000000E+00 0. -1.
         21    1    1    2  503  502 -0.75392088501E+01 -0.24953382056E+02 -0.61199658192E+02  0.66519990295E+02  0.00000000000E+00 0. -1.
          1    1    1    2  501    0  0.22989505362E+02  0.13928326661E+03  0.13522536042E+03  0.19548463831E+03  0.00000000000E+00 0. -1.
<scales pt_clust_5="13000.00000" pt_clust_6="13000.00000" pt_clust_7="13000.00000" pt_clust_8="13000.00000" pt_clust_9="26.06743" pt_clust_10="165.34124"></scales>
<clustering>
<clus scale="   26.067">  2  9  1 -1</clus>
<clus scale="   81.459">  5  6 -1 -1</clus>
<clus scale="   92.283">  7  8 -1 -1</clus>
<clus scale="  107.623">  2  5  1 -1</clus>
<clus scale="  165.341">  1 10  2 -1</clus>
<clus scale="  165.341">  1  5  2 -1</clus>
</clustering>
</event>
<event>
10    4  0.6931656E-005  0.9814823E+02  0.7546771E-02  0.1290744E+00
          2   -1    0    0  503    0 -0.00000000000E+00  0.00000000000E+00  0.82642207981E+03  0.82642207981E+03  0.00000000000E+00 0. -1.
         21   -1    0    0  501  502  0.00000000000E+00 -0.00000000000E+00 -0.69413132930E+02  0.69413132930E+02  0.00000000000E+00 0.  1.
         24    2    1    2    0    0  0.31754503123E+02  0.17649863560E+02  0.69852350384E+03  0.70393321547E+03  0.79164513960E+02 0.  0.
         23    2    1    2    0    0  0.32614622974E+00  0.64106298213E+01  0.26417201637E+02  0.95376906045E+02  0.91420364899E+02 0.  0.
        -11    1    3    3    0    0 -0.13891935747E+02 -0.21144427660E+02  0.14646278597E+03  0.14863182827E+03  0.00000000000E+00 0.  1.
         12    1    3    3    0    0  0.45646438871E+02  0.38794291220E+02  0.55206071787E+03  0.55530138720E+03  0.00000000000E+00 0. -1.
        -13    1    4    4    0    0  0.10059844928E+02  0.42013109987E+02  0.37108705199E+02  0.56950486322E+02  0.00000000000E+00 0. -1.
         13    1    4    4    0    0 -0.97336986982E+01 -0.35602480166E+02 -0.10691503562E+02  0.38426419723E+02  0.00000000000E+00 0.  1.
         21    1    1    2  503  502  0.10572167810E+02 -0.19850084454E+02  0.46209963588E+02  0.51392191234E+02  0.00000000000E+00 0. -1.
          1    1    1    2  501    0 -0.42652817163E+02 -0.42104089278E+01 -0.14141722186E+02  0.45132899992E+02  0.00000000000E+00 0. -1.
<scales pt_clust_5="13000.00000" pt_clust_6="13000.00000" pt_clust_7="13000.00000" pt_clust_8="13000.00000" pt_clust_9="22.48992" pt_clust_10="42.69134"></scales>
<clustering>
<clus scale="   22.490">  1  9  2 -1</clus>
<clus scale="   42.691">  2 10  1 -1</clus>
<clus scale="   79.165">  5  6 -1 -1</clus>
<clus scale="   86.847">  1  5  2 -1</clus>
<clus scale="   91.420">  7  8 -1 -1</clus>
<clus scale="   42.691">  2  5  1 -1</clus>
</clustering>
</event>
<event>
10    4  0.5389768E-005  0.1065790E+03  0.7546771E-02  0.1271761E+00
         -3   -1    0    0    0  501 -0.00000000000E+00  0.00000000000E+00  0.42491752555E+03  0.42491752555E+03  0.00000000000E+00 0.  1.
         21   -1    0    0  503  502  0.00000000000E+00 -0.00000000000E+00 -0.11075186269E+03  0.11075186269E+03  0.00000000000E+00 0.  1.
         23    2    1    2    0    0  0.45504030605E+02  0.13037328894E+02  0.97481701049E+02  0.14098374365E+03  0.90183951947E+02 0.  0.
         24    2    1    2    0    0 -0.94705895293E+02 -0.46506591751E+02 -0.68472767733E+01  0.13196414555E+03  0.78965694028E+02 0.  0.
        -13    1    4    4    0    0 -0.72458138513E+02  0.14298810049E+01 -0.24095751840E+02  0.76372977244E+02  0.00000000000E+00 0.  1.
         14    1    4    4    0    0 -0.22247756781E+02 -0.47936472755E+02  0.17248475067E+02  0.55591168311E+02  0.00000000000E+00 0. -1.
        -13    1    3    3    0    0 -0.16118054075E+01 -0.27984111141E+02  0.36627116197E+01  0.28268778704E+02  0.00000000000E+00 0. -1.
         13    1    3    3    0    0  0.47115836012E+02  0.41021440035E+02  0.93818989430E+02  0.11271496495E+03  0.00000000000E+00 0.  1.
         21    1    1    2  503  501 -0.67683911505E+01 -0.40837304067E+02  0.98785555968E+02  0.10710780826E+03  0.00000000000E+00 0.  1.
         -4    1    1    2    0  502  0.55970255839E+02  0.74306566924E+02  0.12474568261E+03  0.15561369078E+03  0.00000000000E+00 0.  1.
<scales pt_clust_5="13000.00000" pt_clust_6="13000.00000" pt_clust_7="13000.00000" pt_clust_8="13000.00000" pt_clust_9="41.39440" pt_clust_10="77.50337"></scales>
<clustering>
<clus scale="   41.394">  1  9  2 -1</clus>
<clus scale="   77.503">  2 10  1 -1</clus>
<clus scale="   78.966">  5  6 -1 -1</clus>
<clus scale="   90.184">  7  8 -1 -1</clus>
<clus scale="   97.270">  2  5  1 -1</clus>
<clus scale="   77.503">  2  5  1 -1</clus>
</clustering>
</event>
<event>
10    4  0.5389768E-005  0.4123132E+03  0.7546771E-02  0.1039845E+00
         21   -1    0    0  501  502  0.00000000000E+00  0.00000000000E+00  0.23350897902E+04  0.23350897902E+04  0.00000000000E+00 0. -1.
          2   -1    0    0  503    0 -0.00000000000E+00 -0.00000000000E+00 -0.19743262070E+03  0.19743262070E+03  0.00000000000E+00 0. -1.
         23    2    1    2    0    0  0.21047395456E+01 -0.42512247410E+03  0.32124700361E+03  0.54114590345E+03  0.94370035434E+02 0.  0.
         24    2    1    2    0    0  0.22777068052E+03  0.26296717969E+03  0.14272584743E+04  0.14712496376E+04  0.80483061789E+02 0.  0.
        -13    1    4    4    0    0  0.53413239690E+02  0.11547787625E+03  0.57649631349E+03  0.59036947207E+03  0.00000000000E+00 0.  1.
         14    1    4    4    0    0  0.17435744083E+03  0.14748930343E+03  0.85076216079E+03  0.88088016553E+03  0.00000000000E+00 0. -1.
        -13    1    3    3    0    0  0.21552645960E+02 -0.17321855373E+03  0.18398767522E+03  0.25361515834E+03  0.00000000000E+00 0.  1.
         13    1    3    3    0    0 -0.19447906414E+02 -0.25190392036E+03  0.13725932839E+03  0.28753074512E+03  0.00000000000E+00 0. -1.
         21    1    1    2  503  502  0.79359067816E+01 -0.34304142826E+02  0.26731048016E+02  0.44207485333E+02  0.00000000000E+00 0.  1.
          1    1    1    2  501    0 -0.23781132685E+03  0.19645943724E+03  0.36242064361E+03  0.47591938453E+03  0.00000000000E+00 0. -1.
<scales pt_clust_5="13000.00000" pt_clust_6="13000.00000" pt_clust_7="13000.00000" pt_clust_8="13000.00000" pt_clust_9="35.21012" pt_clust_10="300.12313"></scales>
<clustering>
<clus scale="   35.210">  2  9  1 -1</clus>
<clus scale="   80.483">  5  6 -1 -1</clus>
<clus scale="   94.370">  7  8 -1 -1</clus>
<clus scale="  300.123">  1 10  2 -1</clus>
<clus scale="  409.358">  1  5  2 -1</clus>
<clus scale="  300.123">  1  5  2 -1</clus>
</clustering>
</event>
<event>
10    4  0.5389768E-005  0.2434082E+03  0.7546771E-02  0.1147586E+00
          2   -1    0    0  503    0 -0.00000000000E+00  0.00000000000E+00  0.80371176384E+03  0.80371176384E+03  0.00000000000E+00 0. -1.
         21   -1    0    0  501  502  0.00000000000E+00 -0.00000000000E+00 -0.40527938798E+03  0.40527938798E+03  0.00000000000E+00 0. -1.
         23    2    1    2    0    0  0.71019843966E+02  0.35578526078E+01  0.46410044228E+02  0.12355015206E+03  0.89745592191E+02 0.  0.
         24    2    1    2    0    0 -0.23777352210E+03 -0.21838759059E+03  0.44073928047E+03  0.55213722967E+03  0.79843719206E+02 0.  0.
        -11    1    4    4    0    0 -0.11851485777E+03 -0.13824352417E+03  0.19014611075E+03  0.26327283741E+03  0.00000000000E+00 0.  1.
         12    1    4    4    0    0 -0.11925866433E+03 -0.80144066429E+02  0.25059316972E+03  0.28886439225E+03  0.00000000000E+00 0. -1.
        -13    1    3    3    0    0  0.61728523106E+02 -0.22773041294E+02 -0.40073108892E+01  0.65917224723E+02  0.00000000000E+00 0.  1.
         13    1    3    3    0    0  0.92913208605E+01  0.26330893901E+02  0.50417355117E+02  0.57632927342E+02  0.00000000000E+00 0. -1.
         21    1    1    2  503  502  0.22230910325E+02  0.45559308038E+02  0.17848526920E+03  0.18554475267E+03  0.00000000000E+00 0. -1.
          1    1    1    2  501    0  0.14452276781E+03  0.16927042995E+03 -0.26720221804E+03  0.34775901742E+03  0.00000000000E+00 0. -1.
<scales pt_clust_5="13000.00000" pt_clust_6="13000.00000" pt_clust_7="13000.00000" pt_clust_8="13000.00000" pt_clust_9="50.69383" pt_clust_10="229.94024"></scales>
<clustering>
<clus scale="   50.694">  1  9  2 -1</clus>
<clus scale="   79.844">  5  6 -1 -1</clus>
<clus scale="   89.746">  7  8 -1 -1</clus>
<clus scale="  116.768">  1  7  2 -1</clus>
<clus scale="  229.940">  2 10  1 -1</clus>
<clus scale="  229.940">  2  5  1 -1</clus>
</clustering>
</event>
<event>
10    4  0.5389768E-005  0.1006710E+03  0.7546771E-02  0.1283831E+00
         -3   -1    0    0    0  501 -0.00000000000E+00  0.00000000000E+00  0.54689988580E+02  0.54689988580E+02  0.00000000000E+00 0.  1.
         21   -1    0    0  503  502  0.00000000000E+00 -0.00000000000E+00 -0.72596979417E+03  0.72596979417E+03  0.00000000000E+00 0.  1.
         23    2    1    2    0    0 -0.44533729120E+02 -0.47895422433E+02 -0.49212251817E+02  0.12183887160E+03  0.90253201517E+02 0.  0.
         24    2    1    2    0    0  0.61133773762E+02 -0.14202399911E+02 -0.52818447857E+03  0.53789406858E+03  0.80075833786E+02 0.  0.
        -11    1    4    4    0    0  0.69961119856E+02 -0.14060298973E+02 -0.26145115816E+03  0.27101468300E+03  0.00000000000E+00 0.  1.
         12    1    4    4    0    0 -0.88273460938E+01 -0.14210093734E+00 -0.26673332041E+03  0.26687938558E+03  0.00000000000E+00 0. -1.
        -11    1    3    3    0    0 -0.35308202292E+02  0.34955725443E+01 -0.58875025939E+02  0.68739776373E+02  0.00000000000E+00 0. -1.
         11    1    3    3    0    0 -0.92255268283E+01 -0.51390994978E+02  0.96627741213E+01  0.53099095226E+02  0.00000000000E+00 0.  1.
         21    1    1    2  503  501  0.12430166511E+02  0.29909360192E+02 -0.46964727175E+02  0.57050543075E+02  0.00000000000E+00 0.  1.
         -4    1    1    2    0  502 -0.29030211153E+02  0.32188462152E+02 -0.46918348029E+02  0.63876299494E+02  0.00000000000E+00 0.  1.
<scales pt_clust_5="13000.00000" pt_clust_6="13000.00000" pt_clust_7="13000.00000" pt_clust_8="13000.00000" pt_clust_9="32.38949" pt_clust_10="45.98954"></scales>
<clustering>
<clus scale="   32.389">  1  9  2 -1</clus>
<clus scale="   45.990">  2 10  1 -1</clus>
<clus scale="   80.076">  5  6 -1 -1</clus>
<clus scale="   90.253">  7  8 -1 -1</clus>
<clus scale="   91.658">  2  5  1 -1</clus>
<clus scale="   45.990">  2  5  1 -1</clus>
</clustering>
</event>
<event>
10    4  0.5389768E-005  0.1029109E+03  0.7546771E-02  0.1279316E+00
         21   -1    0    0  501  502  0.00000000000E+00  0.00000000000E+00  0.10357473090E+03  0.10357473090E+03  0.00000000000E+00 0. -1.
          2   -1    0    0  503    0 -0.00000000000E+00 -0.00000000000E+00 -0.47434268438E+03  0.47434268438E+03  0.00000000000E+00 0. -1.
         23    2    1    2    0    0  0.68688166104E+02  0.11049408819E+02 -0.24205123414E+03  0.26787519588E+03  0.91258791447E+02 0.  0.
         24    2    1    2    0    0 -0.20256143884E+02  0.31541194441E+01  0.62563557621E+02  0.10397397133E+03  0.80474394301E+02 0.  0.
        -11    1    4    4    0    0  0.21604675036E+02 -0.78008871270E+01 -0.52209958023E+01  0.23555776798E+02  0.00000000000E+00 0.  1.
         12    1    4    4    0    0 -0.41860818919E+02  0.10955006571E+02  0.67784553423E+02  0.80418194536E+02  0.00000000000E+00 0. -1.
        -13    1    3    3    0    0 -0.66172446395E+01  0.21150084030E+02 -0.13378713383E+03  0.13561014401E+03  0.00000000000E+00 0. -1.
         13    1    3    3    0    0  0.75305410744E+02 -0.10100675211E+02 -0.10826410032E+03  0.13226505186E+03  0.00000000000E+00 0.  1.
         21    1    1    2  503  502 -0.25918670731E+02  0.10015611712E+02 -0.15291618015E+03  0.15542023074E+03  0.00000000000E+00 0. -1.
          1    1    1    2  501    0 -0.22513351490E+02 -0.24219139975E+02 -0.38364096795E+02  0.50648017329E+02  0.00000000000E+00 0. -1.
<scales pt_clust_5="13000.00000" pt_clust_6="13000.00000" pt_clust_7="13000.00000" pt_clust_8="13000.00000" pt_clust_9="27.78651" pt_clust_10="34.68609"></scales>
<clustering>
<clus scale="   27.787">  2  9  1 -1</clus>
<clus scale="   34.686">  1 10  2 -1</clus>
<clus scale="   80.474">  5  6 -1 -1</clus>
<clus scale="   91.259">  7  8 -1 -1</clus>
<clus scale="   93.481">  1  5  2 -1</clus>
<clus scale="   34.686">  1  5  2 -1</clus>
</clustering>
</event>
<event>
10    4  0.5389768E-005  0.1560784E+03  0.7546771E-02  0.1206147E+00
          2   -1    0    0  503    0 -0.00000000000E+00  0.00000000000E+00  0.34272665485E+03  0.34272665485E+03  0.00000000000E+00 0. -1.
         21   -1    0    0  501  502  0.00000000000E+00 -0.00000000000E+00 -0.37187354666E+03  0.37187354666E+03  0.00000000000E+00 0. -1.
         24    2    1    2    0    0 -0.84185586387E+02  0.35391109870E+02  0.23736802661E+03  0.26728675542E+03  0.82212444036E+02 0.  0.
         23    2    1    2    0    0  0.41011098857E+02  0.91226492275E+02 -0.67742822701E+02  0.15104629736E+03  0.90673649960E+02 0.  0.
        -11    1    3    3    0    0  0.13010764506E+02  0.20766312772E+02  0.43595276603E+02  0.50010677673E+02  0.00000000000E+00 0.  1.
         12    1    3    3    0    0 -0.97196350894E+02  0.14624797098E+02  0.19377275001E+03  0.21727607775E+03  0.00000000000E+00 0. -1.
        -13    1    4    4    0    0 -0.20990705758E+02 -0.39704305563E+01 -0.95173123570E+01  0.23387032337E+02  0.00000000000E+00 0.  1.
         13    1    4    4    0    0  0.62001804615E+02  0.95196922832E+02 -0.58225510344E+02  0.12765926503E+03  0.00000000000E+00 0. -1.
         21    1    1    2  503  502  0.21817917760E+02  0.20227216186E+02  0.17097490383E+02  0.34314515695E+02  0.00000000000E+00 0.  1.
          1    1    1    2  501    0  0.21356569771E+02 -0.14684481833E+03 -0.21586958611E+03  0.26195263303E+03  0.00000000000E+00 0. -1.
<scales pt_clust_5="13000.00000" pt_clust_6="13000.00000" pt_clust_7="13000.00000" pt_clust_8="13000.00000" pt_clust_9="29.75167" pt_clust_10="127.03836"></scales>
<clustering>
<clus scale="   29.752">  1  9  2 -1</clus>
<clus scale="   82.212">  5  6 -1 -1</clus>
<clus scale="   90.674">  7  8 -1 -1</clus>
<clus scale="  117.793">  1  5  2 -1</clus>
<clus scale="  127.038">  2 10  1 -1</clus>
<clus scale="  127.038">  2  5  1 -1</clus>
</clustering>
</event>
<event>
10    4  0.5389768E-005  0.1365442E+03  0.7546771E-02  0.1220299E+00
         21   -1    0    0  501  502  0.00000000000E+00  0.00000000000E+00  0.28686453445E+03  0.28686453445E+03  0.00000000000E+00 0.  1.
          2   -1    0    0  503    0 -0.00000000000E+00 -0.00000000000E+00 -0.20888561992E+03  0.20888561992E+03  0.00000000000E+00 0. -1.
         24    2    1    2    0    0  0.89030470261E+02  0.30354419194E+02 -0.78916881110E+02  0.14714188268E+03  0.81086645721E+02 0.  0.
         23    2    1    2    0    0 -0.10030728493E+03 -0.13194152644E+02 -0.88615241295E+01  0.13626093235E+03  0.90845352108E+02 0.  0.
        -11    1    3    3    0    0  0.30769468775E+02  0.50470606029E+02 -0.21479942767E+02  0.62892211146E+02  0.00000000000E+00 0.  1.
         12    1    3    3    0    0  0.58261001486E+02 -0.20116186835E+02 -0.57436938343E+02  0.84249671531E+02  0.00000000000E+00 0. -1.
        -13    1    4    4    0    0 -0.62860315463E+02 -0.40610871017E+02  0.24897923924E+02  0.78870582099E+02  0.00000000000E+00 0.  1.
         13    1    4    4    0    0 -0.37446969471E+02  0.27416718373E+02 -0.33759448053E+02  0.57390350250E+02  0.00000000000E+00 0. -1.
         21    1    1    2  503  502  0.31355830512E+02  0.10423599378E+02 -0.90353337183E+01  0.34256047444E+02  0.00000000000E+00 0. -1.
          1    1    1    2  501    0 -0.20079015838E+02 -0.27583865928E+02  0.17479265349E+03  0.17809129190E+03  0.00000000000E+00 0. -1.
<scales pt_clust_5="13000.00000" pt_clust_6="13000.00000" pt_clust_7="13000.00000" pt_clust_8="13000.00000" pt_clust_9="33.04300" pt_clust_10="33.88162"></scales>
<clustering>
<clus scale="   33.043">  2  9  1 -1</clus>
<clus scale="   33.882">  1 10  2 -1</clus>
<clus scale="   81.087">  5  6 -1 -1</clus>
<clus scale="   90.845">  7  8 -1 -1</clus>
<clus scale="  130.255">  2  5  1 -1</clus>
<clus scale="   33.882">  1  5  2 -1</clus>
</clustering>
</event>
<event>
10    4  0.5389768E-005  0.9747397E+02  0.7546771E-02  0.1288200E+00
         -1   -1    0    0    0  501 -0.00000000000E+00  0.00000000000E+00  0.45644307007E+03  0.45644307007E+03  0.00000000000E+00 0.  1.
         21   -1    0    0  503  502  0.00000000000E+00 -0.00000000000E+00 -0.81676350310E+02  0.81676350310E+02  0.00000000000E+00 0. -1.
         23    2    1    2    0    0 -0.57612827292E+02  0.58360666819E+01  0.16854423612E+03  0.19991045899E+03  0.90574469583E+02 0.  0.
         24    2    1    2    0    0  0.46013230097E+02 -0.47474053598E+02  0.30491830571E+02  0.11247705455E+03  0.85734082836E+02 0.  0.
        -13    1    4    4    0    0  0.66773623832E+02 -0.30764218755E+02  0.40587394826E+02  0.83979108200E+02  0.00000000000E+00 0.  1.
         14    1    4    4    0    0 -0.20760393735E+02 -0.16709834843E+02 -0.10095564255E+02  0.28497946350E+02  0.00000000000E+00 0. -1.
        -13    1    3    3    0    0  0.18935274763E+01  0.38990759999E+02  0.69280244332E+02  0.79521173698E+02  0.00000000000E+00 0. -1.
         13    1    3    3    0    0 -0.59506354769E+02 -0.33154693317E+02  0.99263991792E+02  0.12038928529E+03  0.00000000000E+00 0.  1.
         21    1    1    2  503  501  0.58992988949E+02 -0.72472886921E+01  0.13212424869E+03  0.14487757946E+03  0.00000000000E+00 0. -1.
         -2    1    1    2    0  502 -0.47393391754E+02  0.48885275609E+02  0.43606404377E+02  0.80854327379E+02  0.00000000000E+00 0.  1.
<scales pt_clust_5="13000.00000" pt_clust_6="13000.00000" pt_clust_7="13000.00000" pt_clust_8="13000.00000" pt_clust_9="59.43649" pt_clust_10="59.48181"></scales>
<clustering>
<clus scale="   59.436">  1  9  2 -1</clus>
<clus scale="   59.482">  2 10  1 -1</clus>
<clus scale="   85.734">  5  6 -1 -1</clus>
<clus scale="   90.574">  7  8 -1 -1</clus>
<clus scale="   92.993">  2  5  1 -1</clus>
<clus scale="   59.482">  2  5  1 -1</clus>
</clustering>
</event>
<event>
10    4  0.5389768E-005  0.1035350E+03  0.7546771E-02  0.1277966E+00
         21   -1    0    0  501  502  0.00000000000E+00  0.00000000000E+00  0.91792599646E+02  0.91792599646E+02  0.00000000000E+00 0.  1.
          4   -1    0    0  503    0 -0.00000000000E+00 -0.00000000000E+00 -0.37908205899E+03  0.37908205899E+03  0.00000000000E+00 0. -1.
         23    2    1    2    0    0 -0.37792830339E+02  0.93047274477E+02 -0.21929687370E+03  0.25753153677E+03  0.90251206656E+02 0.  0.
         24    2    1    2    0    0  0.26066694936E+02 -0.16372717433E+02  0.19396100669E+02  0.87304356119E+02  0.79361851132E+02 0.  0.
        -11    1    4    4    0    0 -0.19542338349E+02 -0.31407443668E+02  0.62593466218E+01  0.37516795253E+02  0.00000000000E+00 0.  1.
         12    1    4    4    0    0  0.45609033284E+02  0.15034726235E+02  0.13136754048E+02  0.49787560866E+02  0.00000000000E+00 0. -1.
        -11    1    3    3    0    0 -0.50768016735E+02  0.22931750104E+02 -0.54332387842E+02  0.77815583624E+02  0.00000000000E+00 0.  1.
         11    1    3    3    0    0  0.12975186396E+02  0.70115524373E+02 -0.16496448586E+03  0.17971595315E+03  0.00000000000E+00 0. -1.
         21    1    1    2  503  502  0.16299646535E+02 -0.50067636309E+02 -0.83567802944E+02  0.98772589171E+02  0.00000000000E+00 0. -1.
          3    1    1    2  501    0 -0.45735111318E+01 -0.26606920734E+02 -0.38208833610E+01  0.27266176569E+02  0.00000000000E+00 0. -1.
<scales pt_clust_5="13000.00000" pt_clust_6="13000.00000" pt_clust_7="13000.00000" pt_clust_8="13000.00000" pt_clust_9="54.93476" pt_clust_10="26.99713"></scales>
<clustering>
<clus scale="   26.997">  1 10  2 -1</clus>
<clus scale="   54.935">  2  9  1 -1</clus>
<clus scale="   79.362">  5  6 -1 -1</clus>
<clus scale="   90.251">  7  8 -1 -1</clus>
<clus scale="   94.194">  1  5  2 -1</clus>
<clus scale="   26.997">  1  5  2 -1</clus>
</clustering>
</event>
<event>
10    4  0.5389768E-005  0.3753169E+03  0.7546771E-02  0.1052685E+00
          2   -1    0    0  503    0 -0.00000000000E+00  0.00000000000E+00  0.74711966160E+03  0.74711966160E+03  0.00000000000E+00 0. -1.
         21   -1    0    0  501  502  0.00000000000E+00 -0.00000000000E+00 -0.45314935162E+03  0.45314935162E+03  0.00000000000E+00 0. -1.
         24    2    1    2    0    0 -0.11526703089E+03  0.40230117362E+03  0.20199290696E+03  0.47148903541E+03  0.79800083566E+02 0.  0.
         23    2    1    2    0    0  0.95646528794E+02 -0.29117744730E+03 -0.79958093081E+01  0.31671364248E+03  0.79442017107E+02 0.  0.
        -13    1    3    3    0    0 -0.34534925270E+02  0.10448630289E+03  0.93514665924E+02  0.14441274631E+03  0.00000000000E+00 0.  1.
         14    1    3    3    0    0 -0.80732105621E+02  0.29781487074E+03  0.10847824104E+03  0.32707628910E+03  0.00000000000E+00 0. -1.
        -11    1    4    4    0    0  0.15192920101E+02 -0.17022734481E+03  0.40387993029E+01  0.17095170558E+03  0.00000000000E+00 0.  1.
         11    1    4    4    0    0  0.80453608693E+02 -0.12095010249E+03 -0.12034608611E+02  0.14576193690E+03  0.00000000000E+00 0. -1.
         21    1    1    2  503  502  0.38386196317E+02  0.24287716719E+01  0.23300478707E+03  0.23615806105E+03  0.00000000000E+00 0. -1.
          1    1    1    2  501    0 -0.18765694219E+02 -0.11355249800E+03 -0.13303157474E+03  0.17590827428E+03  0.00000000000E+00 0. -1.
<scales pt_clust_5="13000.00000" pt_clust_6="13000.00000" pt_clust_7="13000.00000" pt_clust_8="13000.00000" pt_clust_9="38.46296" pt_clust_10="114.74135"></scales>
<clustering>
<clus scale="   38.463">  1  9  2 -1</clus>
<clus scale="   79.442">  7  8 -1 -1</clus>
<clus scale="   79.800">  5  6 -1 -1</clus>
<clus scale="  114.741">  2 10  1 -1</clus>
<clus scale="  375.241">  2  7  1 -1</clus>
<clus scale="  114.741">  2  5  1 -1</clus>
</clustering>
</event>
<event>
10    4  0.5389768E-005  0.1311464E+03  0.7546771E-02  0.1229081E+00
         -3   -1    0    0    0  501 -0.00000000000E+00  0.00000000000E+00  0.42144182406E+03  0.42144182406E+03  0.00000000000E+00 0.  1.
         21   -1    0    0  503  502  0.00000000000E+00 -0.00000000000E+00 -0.12494681808E+03  0.12494681808E+03  0.00000000000E+00 0. -1.
         24    2    1    2    0    0  0.10540160241E+02 -0.82833199922E+02  0.16404410213E+03  0.20092718001E+03  0.80553275780E+02 0.  0.
         23    2    1    2    0    0 -0.12367022612E+02  0.62905216460E+02 -0.65486535632E+02  0.13075764612E+03  0.93268784512E+02 0.  0.
        -11    1    3    3    0    0 -0.32563851025E+02 -0.38509658948E+02  0.48968932073E+02  0.70294768897E+02  0.00000000000E+00 0.  1.
         12    1    3    3    0    0  0.43104011266E+02 -0.44323540974E+02  0.11507517005E+03  0.13063241112E+03  0.00000000000E+00 0. -1.
        -11    1    4    4    0    0  0.28979982902E+02  0.36458880219E+02 -0.67065441713E+02  0.81650859322E+02  0.00000000000E+00 0. -1.
         11    1    4    4    0    0 -0.41347005514E+02  0.26446336242E+02  0.15789060806E+01  0.49106786802E+02  0.00000000000E+00 0.  1.
         21    1    1    2  503  501  0.18149219626E+02 -0.24823017707E+02  0.11520183158E+03  0.11923522291E+03  0.00000000000E+00 0.  1.
         -4    1    1    2    0  502 -0.16322357255E+02  0.44751001168E+02  0.82735607900E+02  0.95468593090E+02  0.00000000000E+00 0.  1.
<scales pt_clust_5="13000.00000" pt_clust_6="13000.00000" pt_clust_7="13000.00000" pt_clust_8="13000.00000" pt_clust_9="30.75023" pt_clust_10="39.06348"></scales>
<clustering>
<clus scale="   30.750">  1  9  2 -1</clus>
<clus scale="   39.063">  2 10  1 -1</clus>
<clus scale="   80.553">  5  6 -1 -1</clus>
<clus scale="   93.269">  7  8 -1 -1</clus>
<clus scale="  122.430">  1  5  2 -1</clus>
<clus scale="   39.063">  2  5  1 -1</clus>
</clustering>
</event>
<event>
10    4  0.5389768E-005  0.2577057E+03  0.7546771E-02  0.1109011E+00
          2   -1    0    0  503    0 -0.00000000000E+00  0.00000000000E+00  0.13085875625E+04  0.13085875625E+04  0.00000000000E+00 0. -1.
         21   -1    0    0  501  502  0.00000000000E+00 -0.00000000000E+00 -0.10407003381E+03  0.10407003381E+03  0.00000000000E+00 0.  1.
         23    2    1    2    0    0 -0.20456716505E+03 -0.29833429974E+02  0.67024892990E+03  0.70719427730E+03  0.90290416201E+02 0.  0.
         24    2    1    2    0    0  0.27544924590E+03 -0.72033751149E+00  0.35730092995E+03  0.45834154083E+03  0.80871549743E+02 0.  0.
        -11    1    4    4    0    0  0.20356039587E+03  0.31656858297E+02  0.23163563776E+03  0.30999041941E+03  0.00000000000E+00 0.  1.
         12    1    4    4    0    0  0.71888850025E+02 -0.32377195808E+02  0.12566529219E+03  0.14835112142E+03  0.00000000000E+00 0. -1.
        -13    1    3    3    0    0 -0.78016613664E+01  0.19979898507E+02  0.45533866938E+02  0.50332845169E+02  0.00000000000E+00 0.  1.
         13    1    3    3    0    0 -0.19676550369E+03 -0.49813328481E+02  0.62471506296E+03  0.65686143214E+03  0.00000000000E+00 0. -1.
         21    1    1    2  503  502 -0.42620259347E+02  0.41901173507E+02  0.20012717715E+03  0.20886139395E+03  0.00000000000E+00 0.  1.
          1    1    1    2  501    0 -0.28261821496E+02 -0.11347406022E+02 -0.23159508300E+02  0.38260384243E+02  0.00000000000E+00 0. -1.
<scales pt_clust_5="13000.00000" pt_clust_6="13000.00000" pt_clust_7="13000.00000" pt_clust_8="13000.00000" pt_clust_9="60.51680" pt_clust_10="30.45479"></scales>
<clustering>
<clus scale="   30.455">  2 10  1 -1</clus>
<clus scale="   60.517">  1  9  2 -1</clus>
<clus scale="   80.872">  5  6 -1 -1</clus>
<clus scale="   90.290">  7  8 -1 -1</clus>
<clus scale="  254.559">  2  5  1 -1</clus>
<clus scale="   30.455">  2  5  1 -1</clus>
</clustering>
</event>
<event>
10    4  0.5389768E-005  0.2648312E+03  0.7546771E-02  0.1141071E+00
         21   -1    0    0  503  502  0.00000000000E+00  0.00000000000E+00  0.63077073057E+02  0.63077073057E+02  0.00000000000E+00 0.  1.
          2   -1    0    0  502    0 -0.00000000000E+00 -0.00000000000E+00 -0.16487588150E+04  0.16487588150E+04  0.00000000000E+00 0. -1.
         24    2    1    2    0    0  0.74786628247E+02 -0.15488282836E+02 -0.17119333603E+03  0.20133246795E+03  0.73448469546E+02 0.  0.
         23    2    1    2    0    0 -0.27737661719E+03  0.66323872804E+02 -0.64996551926E+03  0.71529278312E+03  0.88611204070E+02 0.  0.
        -13    1    3    3    0    0  0.69726894982E+02  0.18026222278E+02 -0.11359096835E+03  0.13449792810E+03  0.00000000000E+00 0.  1.
         14    1    3    3    0    0  0.50597332651E+01 -0.33514505113E+02 -0.57602367688E+02  0.66834539850E+02  0.00000000000E+00 0. -1.
        -11    1    4    4    0    0 -0.23566756088E+03  0.65846421435E+02 -0.46248101612E+03  0.52322427385E+03  0.00000000000E+00 0.  1.
         11    1    4    4    0    0 -0.41709056312E+02  0.47745136907E+00 -0.18748450314E+03  0.19206850927E+03  0.00000000000E+00 0. -1.
         21    1    1    2  503  501  0.19596301104E+02 -0.15225995146E+02 -0.17936096670E+03  0.18106960629E+03  0.00000000000E+00 0. -1.
          1    1    1    2  501    0  0.18299368784E+03 -0.35609594822E+02 -0.58516191991E+03  0.61414103066E+03  0.00000000000E+00 0. -1.
<scales pt_clust_5="13000.00000" pt_clust_6="13000.00000" pt_clust_7="13000.00000" pt_clust_8="13000.00000" pt_clust_9="23.75102" pt_clust_10="257.91752"></scales>
<clustering>
<clus scale="   23.751">  9 10 -1 -1</clus>
<clus scale="   73.448">  5  6 -1 -1</clus>
<clus scale="   88.611">  7  8 -1 -1</clus>
<clus scale="  105.960">  2  5  1 -1</clus>
<clus scale="  257.918">  1  9  2 -1</clus>
<clus scale="  257.918">  1  5  2 -1</clus>
</clustering>
</event>
<event>
10    4  0.5389768E-005  0.1320344E+03  0.7546771E-02  0.1227034E+00
          2   -1    0    0  503    0 -0.00000000000E+00  0.00000000000E+00  0.22637794301E+03  0.22637794301E+03  0.00000000000E+00 0. -1.
         21   -1    0    0  501  502  0.00000000000E+00 -0.00000000000E+00 -0.25054256750E+03  0.25054256750E+03  0.00000000000E+00 0.  1.
         24    2    1    2    0    0 -0.79870642135E+01 -0.10890652313E+03  0.11563232271E+03  0.17775109718E+03  0.79373764672E+02 0.  0.
         23    2    1    2    0    0  0.32516031511E+02  0.81538123856E+02 -0.30049119767E+02  0.12912720085E+03  0.89806049097E+02 0.  0.
        -11    1    3    3    0    0 -0.32937401180E+01 -0.28546275102E+02 -0.83541215881E+01  0.29925405489E+02  0.00000000000E+00 0.  1.
         12    1    3    3    0    0 -0.46933240955E+01 -0.80360248031E+02  0.12398644430E+03  0.14782569169E+03  0.00000000000E+00 0. -1.
        -11    1    4    4    0    0  0.86209849499E+01  0.50579984614E+02 -0.60670397382E+02  0.79457871502E+02  0.00000000000E+00 0.  1.
         11    1    4    4    0    0  0.23895046561E+02  0.30958139241E+02  0.30621277615E+02  0.49669329352E+02  0.00000000000E+00 0. -1.
         21    1    1    2  503  502  0.22969809855E+02  0.99679601502E+01  0.19182926626E+02  0.31542940070E+02  0.00000000000E+00 0. -1.
          1    1    1    2  501    0 -0.47498777153E+02  0.17400439127E+02 -0.12893075406E+03  0.13849927240E+03  0.00000000000E+00 0. -1.
<scales pt_clust_5="13000.00000" pt_clust_6="13000.00000" pt_clust_7="13000.00000" pt_clust_8="13000.00000" pt_clust_9="25.03942" pt_clust_10="50.15562"></scales>
<clustering>
<clus scale="   25.039">  1  9  2 -1</clus>
<clus scale="   50.156">  2 10  1 -1</clus>
<clus scale="   79.374">  5  6 -1 -1</clus>
<clus scale="   89.806">  7  8 -1 -1</clus>
<clus scale="  125.173">  1  5  2 -1</clus>
<clus scale="   50.156">  2  5  1 -1</clus>
</clustering>
</event>
<event>
10    4  0.5389768E-005  0.1399257E+03  0.7546771E-02  0.1216028E+00
         21   -1    0    0  501  502  0.00000000000E+00  0.00000000000E+00  0.16695299517E+03  0.16695299517E+03  0.00000000000E+00 0. -1.
          2   -1    0    0  503    0 -0.00000000000E+00 -0.00000000000E+00 -0.34031986498E+03  0.34031986498E+03  0.00000000000E+00 0. -1.
         23    2    1    2    0    0  0.10749301592E+03 -0.20005460492E+02 -0.20977284492E+03  0.25406375962E+03  0.92675674079E+02 0.  0.
         24    2    1    2    0    0 -0.67455443624E+02  0.95716903315E+01  0.10954172061E+03  0.15227834051E+03  0.80916316666E+02 0.  0.
        -11    1    4    4    0    0 -0.37864754678E+02  0.33110776705E+02  0.18322433430E+02  0.53532931431E+02  0.00000000000E+00 0.  1.
         12    1    4    4    0    0 -0.29590688946E+02 -0.23539086374E+02  0.91219287182E+02  0.98745409076E+02  0.00000000000E+00 0. -1.
        -13    1    3    3    0    0  0.11264215055E+03  0.97921912714E+01 -0.16741027580E+03  0.20201569626E+03  0.00000000000E+00 0. -1.
         13    1    3    3    0    0 -0.51491346228E+01 -0.29797651764E+02 -0.42362569118E+02  0.52048063367E+02  0.00000000000E+00 0.  1.
         21    1    1    2  503  502  0.66854285232E+01  0.19514952781E+02 -0.13603186407E+02  0.24709816208E+02  0.00000000000E+00 0.  1.
          1    1    1    2  501    0 -0.46723000823E+02 -0.90811826208E+01 -0.59532559098E+02  0.76220943818E+02  0.00000000000E+00 0. -1.
<scales pt_clust_5="13000.00000" pt_clust_6="13000.00000" pt_clust_7="13000.00000" pt_clust_8="13000.00000" pt_clust_9="20.62834" pt_clust_10="45.58040"></scales>
<clustering>
<clus scale="   20.628">  2  9  1 -1</clus>
<clus scale="   45.580">  1 10  2 -1</clus>
<clus scale="   80.916">  5  6 -1 -1</clus>
<clus scale="   92.676">  7  8 -1 -1</clus>
<clus scale="  132.431">  1  5  2 -1</clus>
<clus scale="   45.580">  1  5  2 -1</clus>
</clustering>
</event>
<event>
10    4  0.5389768E-005  0.1867272E+03  0.7546771E-02  0.1196931E+00
         21   -1    0    0  501  502  0.00000000000E+00  0.00000000000E+00  0.36331437472E+02  0.36331437472E+02  0.00000000000E+00 0.  1.
          2   -1    0    0  503    0 -0.00000000000E+00 -0.00000000000E+00 -0.17711490488E+04  0.17711490488E+04  0.00000000000E+00 0. -1.
         24    2    1    2    0    0 -0.77720601755E+01 -0.21349059521E+02 -0.55504421663E+03  0.56135404812E+03  0.80796643866E+02 0.  0.
         23    2    1    2    0    0 -0.52967405239E+02 -0.14670816681E+03 -0.37659484273E+03  0.41767934570E+03  0.91123696300E+02 0.  0.
        -13    1    3    3    0    0 -0.43877354033E+02 -0.61676653995E+01 -0.26532012215E+03  0.26899447859E+03  0.00000000000E+00 0.  1.
         14    1    3    3    0    0  0.36105293858E+02 -0.15181394121E+02 -0.28972409448E+03  0.29235956952E+03  0.00000000000E+00 0. -1.
        -13    1    4    4    0    0 -0.34773454802E+02 -0.29691788337E+01 -0.58065017915E+02  0.67746258105E+02  0.00000000000E+00 0. -1.
         13    1    4    4    0    0 -0.18193950437E+02 -0.14373898798E+03 -0.31852982482E+03  0.34993308760E+03  0.00000000000E+00 0.  1.
         21    1    1    2  503  502 -0.22459910023E+02  0.12847380321E+02 -0.13462165594E+03  0.13708571402E+03  0.00000000000E+00 0. -1.
          1    1    1    2  501    0  0.83199375437E+02  0.15520984601E+03 -0.66855689606E+03  0.69136137847E+03  0.00000000000E+00 0. -1.
<scales pt_clust_5="13000.00000" pt_clust_6="13000.00000" pt_clust_7="13000.00000" pt_clust_8="13000.00000" pt_clust_9="25.87475" pt_clust_10="162.98325"></scales>
<clustering>
<clus scale="   25.875">  2  9  1 -1</clus>
<clus scale="   80.797">  5  6 -1 -1</clus>
<clus scale="   83.989">  2  5  1 -1</clus>
<clus scale="   91.124">  7  8 -1 -1</clus>
<clus scale="  162.983">  1 10  2 -1</clus>
<clus scale="  162.983">  1  5  2 -1</clus>
</clustering>
</event>
<event>
10    4  0.5389768E-005  0.1902748E+03  0.7546771E-02  0.1159106E+00
         21   -1    0    0  503  502  0.00000000000E+00  0.00000000000E+00  0.16642175206E+03  0.16642175206E+03  0.00000000000E+00 0.  1.
         -1   -1    0    0    0  501 -0.00000000000E+00 -0.00000000000E+00 -0.90876070727E+03  0.90876070727E+03  0.00000000000E+00 0.  1.
         24    2    1    2    0    0 -0.14023406832E+03 -0.86309709002E+02 -0.15241574286E+03  0.23791593995E+03  0.79110530425E+02 0.  0.
         23    2    1    2    0    0  0.18958980356E+03  0.75429956488E+02 -0.13215323547E+01  0.22219552049E+03  0.87949593112E+02 0.  0.
        -13    1    3    3    0    0 -0.14790130730E+03 -0.77947330787E+02 -0.15290178087E+03  0.22656022967E+03  0.00000000000E+00 0.  1.
         14    1    3    3    0    0  0.76672389745E+01 -0.83623782150E+01  0.48603800981E+00  0.11355710275E+02  0.00000000000E+00 0. -1.
        -13    1    4    4    0    0  0.54394963131E+02  0.64674509734E+02 -0.15204194827E+02  0.85864845913E+02  0.00000000000E+00 0. -1.
         13    1    4    4    0    0  0.13519484043E+03  0.10755446754E+02  0.13882662472E+02  0.13633067458E+03  0.00000000000E+00 0.  1.
         21    1    1    2  503  501  0.46399420669E+02 -0.27786005488E+02 -0.36238341759E+03  0.36639692914E+03  0.00000000000E+00 0.  1.
         -2    1    1    2    0  502 -0.95755155905E+02  0.38665758001E+02 -0.22621826241E+03  0.24867406976E+03  0.00000000000E+00 0.  1.
<scales pt_clust_5="13000.00000" pt_clust_6="13000.00000" pt_clust_7="13000.00000" pt_clust_8="13000.00000" pt_clust_9="54.08298" pt_clust_10="80.04639"></scales>
<clustering>
<clus scale="   54.083">  2  9  1 -1</clus>
<clus scale="   79.111">  5  6 -1 -1</clus>
<clus scale="   80.046">  1 10  2 -1</clus>
<clus scale="   87.950">  7  8 -1 -1</clus>
<clus scale="  186.354">  2  5  1 -1</clus>
<clus scale="   80.046">  1  5  2 -1</clus>
</clustering>
</event>
<event>
10    4  0.5389768E-005  0.1127943E+03  0.7546771E-02  0.1259358E+00
         -1   -1    0    0    0  501 -0.00000000000E+00  0.00000000000E+00  0.24701607509E+03  0.24701607509E+03  0.00000000000E+00 0.  1.
         21   -1    0    0  503  502  0.00000000000E+00 -0.00000000000E+00 -0.31839021025E+03  0.31839021025E+03  0.00000000000E+00 0. -1.
         23    2    1    2    0    0  0.10001314128E+02 -0.18652456151E+02  0.17177584577E+03  0.19531887561E+03  0.90523928190E+02 0.  0.
         24    2    1    2    0    0 -0.80197354172E+02  0.78926902561E+02 -0.19665178891E+03  0.24025437079E+03  0.79932252794E+02 0.  0.
        -11    1    4    4    0    0 -0.21593017093E+02  0.68064851702E+02 -0.68644445419E+02  0.99051210550E+02  0.00000000000E+00 0.  1.
         12    1    4    4    0    0 -0.58604337079E+02  0.10862050859E+02 -0.12800734350E+03  0.14120316024E+03  0.00000000000E+00 0. -1.
        -11    1    3    3    0    0 -0.14401284244E+02  0.29872049647E+02  0.99689424656E+02  0.10506054315E+03  0.00000000000E+00 0. -1.
         11    1    3    3    0    0  0.24402598372E+02 -0.48524505798E+02  0.72086421115E+02  0.90258332465E+02  0.00000000000E+00 0.  1.
         21    1    1    2  503  501  0.21339129744E+02 -0.42038274766E+02  0.14743779906E+02  0.49395891017E+02  0.00000000000E+00 0.  1.
         -2    1    1    2    0  502  0.48856910300E+02 -0.18236171644E+02 -0.61241971923E+02  0.80437147919E+02  0.00000000000E+00 0.  1.
<scales pt_clust_5="13000.00000" pt_clust_6="13000.00000" pt_clust_7="13000.00000" pt_clust_8="13000.00000" pt_clust_9="47.14419" pt_clust_10="53.71732"></scales>
<clustering>
<clus scale="   47.144">  1  9  2 -1</clus>
<clus scale="   53.717">  2 10  1 -1</clus>
<clus scale="   79.932">  5  6 -1 -1</clus>
<clus scale="   90.524">  7  8 -1 -1</clus>
<clus scale="  104.485">  2  5  1 -1</clus>
<clus scale="   53.717">  2  5  1 -1</clus>
</clustering>
</event>
<event>
10    4  0.5389768E-005  0.1970097E+03  0.7546771E-02  0.1153342E+00
          2   -1    0    0  503    0 -0.00000000000E+00  0.00000000000E+00  0.42076580257E+03  0.42076580257E+03  0.00000000000E+00 0. -1.
         21   -1    0    0  501  502  0.00000000000E+00 -0.00000000000E+00 -0.41568243896E+03  0.41568243896E+03  0.00000000000E+00 0. -1.
         24    2    1    2    0    0  0.80802148701E+02  0.17858860076E+03  0.29862972370E+03  0.36563588875E+03  0.78019329054E+02 0.  0.
         23    2    1    2    0    0 -0.11962805442E+03 -0.10983355286E+03 -0.23405501819E+03  0.29854089111E+03  0.89278392589E+02 0.  0.
        -11    1    3    3    0    0  0.21255886023E+02  0.23296258644E+01  0.13871064238E+02  0.25488159416E+02  0.00000000000E+00 0.  1.
         12    1    3    3    0    0  0.59546262678E+02  0.17625897489E+03  0.28475865946E+03  0.34014772933E+03  0.00000000000E+00 0. -1.
        -13    1    4    4    0    0 -0.66290628903E+02 -0.77200398528E+02 -0.71472939211E+02  0.12434922618E+03  0.00000000000E+00 0.  1.
         13    1    4    4    0    0 -0.53337425515E+02 -0.32633154337E+02 -0.16258207898E+03  0.17419166492E+03  0.00000000000E+00 0. -1.
         21    1    1    2  503  502  0.19624876699E+01 -0.23440466966E+02  0.46011959321E+02  0.51675983300E+02  0.00000000000E+00 0. -1.
          1    1    1    2  501    0  0.36863418047E+02 -0.45314580926E+02 -0.10550330122E+03  0.12059547837E+03  0.00000000000E+00 0. -1.
<scales pt_clust_5="13000.00000" pt_clust_6="13000.00000" pt_clust_7="13000.00000" pt_clust_8="13000.00000" pt_clust_9="23.52248" pt_clust_10="58.80977"></scales>
<clustering>
<clus scale="   23.522">  1  9  2 -1</clus>
<clus scale="   58.810">  2 10  1 -1</clus>
<clus scale="   78.019">  5  6 -1 -1</clus>
<clus scale="   89.278">  7  8 -1 -1</clus>
<clus scale="  192.170">  1  5  2 -1</clus>
<clus scale="   58.810">  2  5  1 -1</clus>
</clustering>
</event>
<event>
10    4  0.5389768E-005  0.1070465E+03  0.7546771E-02  0.1268604E+00
          2   -1    0    0  503    0 -0.00000000000E+00  0.00000000000E+00  0.46651969892E+03  0.46651969892E+03  0.00000000000E+00 0. -1.
         21   -1    0    0  501  502  0.00000000000E+00 -0.00000000000E+00 -0.66563624120E+02  0.66563624120E+02  0.00000000000E+00 0. -1.
         24    2    1    2    0    0  0.40251735532E+02 -0.36688179723E+02  0.25038855071E+03  0.26992941724E+03  0.84860115608E+02 0.  0.
         23    2    1    2    0    0 -0.73451410858E+02 -0.12222600974E+02  0.93187798838E+02  0.14991948506E+03  0.90815111165E+02 0.  0.
        -11    1    3    3    0    0 -0.18317484954E+02  0.13201216247E+02  0.40266503989E+02  0.46164853611E+02  0.00000000000E+00 0.  1.
         12    1    3    3    0    0  0.58569220486E+02 -0.49889395970E+02  0.21012204672E+03  0.22376456363E+03  0.00000000000E+00 0. -1.
        -13    1    4    4    0    0 -0.84037927128E+02  0.13627382658E+02  0.86135872134E+02  0.12110931930E+03  0.00000000000E+00 0.  1.
         13    1    4    4    0    0  0.10586516270E+02 -0.25849983631E+02  0.70519267047E+01  0.28810165753E+02  0.00000000000E+00 0. -1.
         21    1    1    2  503  502  0.12494534823E+02  0.19327807345E+02  0.70728702366E+02  0.74378941076E+02  0.00000000000E+00 0.  1.
          1    1    1    2  501    0  0.20705140503E+02  0.29582973351E+02 -0.14348977116E+02  0.38855479663E+02  0.00000000000E+00 0. -1.
<scales pt_clust_5="13000.00000" pt_clust_6="13000.00000" pt_clust_7="13000.00000" pt_clust_8="13000.00000" pt_clust_9="23.01472" pt_clust_10="36.82427"></scales>
<clustering>
<clus scale="   23.015">  1  9  2 -1</clus>
<clus scale="   36.824">  2 10  1 -1</clus>
<clus scale="   84.860">  5  6 -1 -1</clus>
<clus scale="   90.815">  7  8 -1 -1</clus>
<clus scale="  102.043">  1  5  2 -1</clus>
<clus scale="   36.824">  2  5  1 -1</clus>
</clustering>
</event>
<event>
10    4  0.5584105E-005  0.2400051E+03  0.7546771E-02  0.1159984E+00
         21   -1    0    0  501  502  0.00000000000E+00  0.00000000000E+00  0.90595994811E+02  0.90595994811E+02  0.00000000000E+00 0. -1.
          2   -1    0    0  503    0 -0.00000000000E+00 -0.00000000000E+00 -0.14297439270E+04  0.14297439270E+04  0.00000000000E+00 0. -1.
         24    2    1    2    0    0 -0.43930482841E+02  0.21365085228E+01 -0.90678312084E+02  0.12924201622E+03  0.80910385509E+02 0.  0.
         23    2    1    2    0    0 -0.26456075715E+02 -0.21946489156E+03 -0.20002947129E+03  0.31450195538E+03  0.10017448769E+03 0.  0.
        -11    1    3    3    0    0 -0.65597395888E+02  0.67843756553E+01 -0.49422042661E+02  0.82411069652E+02  0.00000000000E+00 0.  1.
         12    1    3    3    0    0  0.21666913047E+02 -0.46478671326E+01 -0.41256269423E+02  0.46830946569E+02  0.00000000000E+00 0. -1.
        -11    1    4    4    0    0 -0.18052304365E+01 -0.46324493816E+02  0.30953363183E+01  0.46462874332E+02  0.00000000000E+00 0.  1.
         11    1    4    4    0    0 -0.24650845278E+02 -0.17314039774E+03 -0.20312480761E+03  0.26803908105E+03  0.00000000000E+00 0. -1.
         21    1    1    2  503  502  0.29946737435E+02  0.13888097556E+02 -0.87383646398E+02  0.93410855871E+02  0.00000000000E+00 0. -1.
          1    1    1    2  501    0  0.40439821120E+02  0.20344028548E+03 -0.96105650240E+03  0.98318509432E+03  0.00000000000E+00 0. -1.
<scales pt_clust_5="13000.00000" pt_clust_6="13000.00000" pt_clust_7="13000.00000" pt_clust_8="13000.00000" pt_clust_9="33.01040" pt_clust_10="218.09989"></scales>
<clustering>
<clus scale="   33.010">  2  9  1 -1</clus>
<clus scale="   80.910">  5  6 -1 -1</clus>
<clus scale="   90.979">  2  5  1 -1</clus>
<clus scale="  100.174">  7  8 -1 -1</clus>
<clus scale="  218.100">  1 10  2 -1</clus>
<clus scale="  218.100">  1  5  2 -1</clus>
</clustering>
</event>
<event>
10    4  0.5389768E-005  0.2059132E+03  0.7546771E-02  0.1145907E+00
          2   -1    0    0  503    0 -0.00000000000E+00  0.00000000000E+00  0.17559118333E+03  0.17559118333E+03  0.00000000000E+00 0. -1.
         21   -1    0    0  501  502  0.00000000000E+00 -0.00000000000E+00 -0.78364059259E+03  0.78364059259E+03  0.00000000000E+00 0.  1.
         24    2    1    2    0    0 -0.58825084768E+02 -0.20190152457E+03 -0.15480025824E+03  0.27306492835E+03  0.79854360684E+02 0.  0.
         23    2    1    2    0    0 -0.95094864622E+02  0.13593901187E+03 -0.45473078406E+03  0.49272725632E+03  0.92073964401E+02 0.  0.
        -13    1    3    3    0    0 -0.64687046890E+02 -0.18935008419E+03 -0.16200016483E+03  0.25745275648E+03  0.00000000000E+00 0.  1.
         14    1    3    3    0    0  0.58619621221E+01 -0.12551440387E+02  0.71999065811E+01  0.15612171870E+02  0.00000000000E+00 0. -1.
        -13    1    4    4    0    0 -0.96439836958E+02  0.93696673573E+02 -0.25190390791E+03  0.28554384534E+03  0.00000000000E+00 0. -1.
         13    1    4    4    0    0  0.13449723358E+01  0.42242338295E+02 -0.20282687615E+03  0.20718341098E+03  0.00000000000E+00 0.  1.
         21    1    1    2  503  502  0.21119677230E+02 -0.16713457669E+02  0.23147932251E+02  0.35513479146E+02  0.00000000000E+00 0. -1.
          1    1    1    2  501    0  0.13280027216E+03  0.82675970374E+02 -0.21666299199E+02  0.15792611210E+03  0.00000000000E+00 0. -1.
<scales pt_clust_5="13000.00000" pt_clust_6="13000.00000" pt_clust_7="13000.00000" pt_clust_8="13000.00000" pt_clust_9="26.93289" pt_clust_10="161.10324"></scales>
<clustering>
<clus scale="   26.933">  1  9  2 -1</clus>
<clus scale="   79.854">  5  6 -1 -1</clus>
<clus scale="   92.074">  7  8 -1 -1</clus>
<clus scale="  161.103">  2 10  1 -1</clus>
<clus scale="  200.747">  1  5  2 -1</clus>
<clus scale="  161.103">  2  5  1 -1</clus>
</clustering>
</event>
<event>
10    4  0.5389768E-005  0.1009221E+03  0.7546771E-02  0.1282722E+00
         21   -1    0    0  503  502  0.00000000000E+00  0.00000000000E+00  0.31641334155E+03  0.31641334155E+03  0.00000000000E+00 0. -1.
         -1   -1    0    0    0  501 -0.00000000000E+00 -0.00000000000E+00 -0.70312473764E+02  0.70312473764E+02  0.00000000000E+00 0.  1.
         23    2    1    2    0    0 -0.18076785331E+01 -0.53861280209E+01  0.31797210044E+02  0.96715786075E+02  0.91162506727E+02 0.  0.
         24    2    1    2    0    0  0.39043207946E+02  0.18632474611E+02  0.94685251824E+02  0.14387947980E+03  0.99320021130E+02 0.  0.
        -11    1    4    4    0    0 -0.20931054850E+02  0.32287100435E+02  0.10997291808E+02  0.40018824804E+02  0.00000000000E+00 0.  1.
         12    1    4    4    0    0  0.59974262796E+02 -0.13654625824E+02  0.83687960016E+02  0.10386065499E+03  0.00000000000E+00 0. -1.
        -13    1    3    3    0    0 -0.33593785398E+02  0.26873016053E+02  0.27868290636E+02  0.51257614382E+02  0.00000000000E+00 0.  1.
         13    1    3    3    0    0  0.31786106865E+02 -0.32259144074E+02  0.39289194080E+01  0.45458171693E+02  0.00000000000E+00 0. -1.
         21    1    1    2  503  501 -0.42407871449E+02  0.73012667123E+01  0.26290153617E+02  0.50427256852E+02  0.00000000000E+00 0.  1.
         -2    1    1    2    0  502  0.51723420358E+01 -0.20547613302E+02  0.93328252301E+02  0.95703292588E+02  0.00000000000E+00 0.  1.
<scales pt_clust_5="13000.00000" pt_clust_6="13000.00000" pt_clust_7="13000.00000" pt_clust_8="13000.00000" pt_clust_9="41.68271" pt_clust_10="21.18862"></scales>
<clustering>
<clus scale="   21.189">  1 10  2 -1</clus>
<clus scale="   41.683">  1  9  2 -1</clus>
<clus scale="   91.163">  7  8 -1 -1</clus>
<clus scale="   92.905">  2  7  1 -1</clus>
<clus scale="   99.320">  5  6 -1 -1</clus>
<clus scale="   21.189">  1  5  2 -1</clus>
</clustering>
</event>
<event>
10    4  0.5389768E-005  0.1348565E+03  0.7546771E-02  0.1222251E+00
         21   -1    0    0  503  502  0.00000000000E+00  0.00000000000E+00  0.55197944576E+02  0.55197944576E+02  0.00000000000E+00 0. -1.
         -1   -1    0    0    0  501 -0.00000000000E+00 -0.00000000000E+00 -0.57149001816E+03  0.57149001816E+03  0.00000000000E+00 0.  1.
         23    2    1    2    0    0  0.91729660684E+02 -0.32922409956E+02 -0.27462018411E+03  0.30470932957E+03  0.89069154470E+02 0.  0.
         24    2    1    2    0    0 -0.10514733984E+03  0.17896727484E+02 -0.23176830521E+03  0.26773986597E+03  0.81190101612E+02 0.  0.
        -11    1    4    4    0    0 -0.10269739620E+03  0.27791987751E+02 -0.23422349088E+03  0.25725433612E+03  0.00000000000E+00 0.  1.
         12    1    4    4    0    0 -0.24499436427E+01 -0.98952602672E+01  0.24551856746E+01  0.10485529853E+02  0.00000000000E+00 0. -1.
        -11    1    3    3    0    0  0.56878563953E+02 -0.63280750552E+02 -0.19272906088E+03  0.21067537904E+03  0.00000000000E+00 0.  1.
         11    1    3    3    0    0  0.34851096731E+02  0.30358340596E+02 -0.81891123237E+02  0.94033950529E+02  0.00000000000E+00 0. -1.
         21    1    1    2  503  501 -0.60404035104E+01  0.21596494713E+02 -0.21148206133E+02  0.30824368300E+02  0.00000000000E+00 0.  1.
         -2    1    1    2    0  502  0.19458082670E+02 -0.65708122405E+01  0.11244621870E+02  0.23414398897E+02  0.00000000000E+00 0.  1.
<scales pt_clust_5="13000.00000" pt_clust_6="13000.00000" pt_clust_7="13000.00000" pt_clust_8="13000.00000" pt_clust_9="21.05914" pt_clust_10="20.53759"></scales>
<clustering>
<clus scale="   20.538">  1 10  2 -1</clus>
<clus scale="   21.059">  1  9  2 -1</clus>
<clus scale="   81.190">  5  6 -1 -1</clus>
<clus scale="   89.069">  7  8 -1 -1</clus>
<clus scale="  129.788">  1  5  2 -1</clus>
<clus scale="   20.538">  1  5  2 -1</clus>
</clustering>
</event>
<event>
10    4  0.5389768E-005  0.2416897E+03  0.7546771E-02  0.1142983E+00
          2   -1    0    0  503    0 -0.00000000000E+00  0.00000000000E+00  0.11189302831E+04  0.11189302831E+04  0.00000000000E+00 0. -1.
         21   -1    0    0  501  502  0.00000000000E+00 -0.00000000000E+00 -0.17035812374E+03  0.17035812374E+03  0.00000000000E+00 0.  1.
         24    2    1    2    0    0 -0.10977584568E+03  0.64186324597E+02  0.65223349797E+03  0.66937211504E+03  0.80497651890E+02 0.  0.
         23    2    1    2    0    0  0.17305252866E+03  0.15101641342E+03  0.66225883277E+02  0.25525542514E+03  0.89533958090E+02 0.  0.
        -13    1    3    3    0    0 -0.11607707256E+03  0.73296231675E+02  0.56503732078E+03  0.58147519141E+03  0.00000000000E+00 0.  1.
         14    1    3    3    0    0  0.63012268778E+01 -0.91099070785E+01  0.87196177189E+02  0.87896923629E+02  0.00000000000E+00 0. -1.
        -13    1    4    4    0    0  0.11380665214E+03  0.51565491556E+02  0.61843977105E+02  0.13941173370E+03  0.00000000000E+00 0. -1.
         13    1    4    4    0    0  0.59245876522E+02  0.99450921864E+02  0.43819061720E+01  0.11584369144E+03  0.00000000000E+00 0.  1.
         21    1    1    2  503  502  0.33761613645E+02 -0.78472842874E+01  0.89527715699E+02  0.96003324447E+02  0.00000000000E+00 0.  1.
          1    1    1    2  501    0 -0.97038296627E+02 -0.20735545373E+03  0.14058506237E+03  0.26865754217E+03  0.00000000000E+00 0. -1.
<scales pt_clust_5="13000.00000" pt_clust_6="13000.00000" pt_clust_7="13000.00000" pt_clust_8="13000.00000" pt_clust_9="34.66160" pt_clust_10="224.49418"></scales>
<clustering>
<clus scale="   34.662">  1  9  2 -1</clus>
<clus scale="   80.498">  5  6 -1 -1</clus>
<clus scale="   89.534">  7  8 -1 -1</clus>
<clus scale="  133.142">  1  5  2 -1</clus>
<clus scale="  224.494">  2 10  1 -1</clus>
<clus scale="  224.494">  2  5  1 -1</clus>
</clustering>
</event>
<event>
10    4  0.5389768E-005  0.1364824E+03  0.7546771E-02  0.1220865E+00
          4   -1    0    0  503    0 -0.00000000000E+00  0.00000000000E+00  0.30981339341E+03  0.30981339341E+03  0.00000000000E+00 0. -1.
         21   -1    0    0  501  502  0.00000000000E+00 -0.00000000000E+00 -0.30064122757E+03  0.30064122757E+03  0.00000000000E+00 0.  1.
         23    2    1    2    0    0 -0.67278500307E+02  0.42805859074E+02  0.14985264480E+03  0.19316171984E+03  0.92178612935E+02 0.  0.
         24    2    1    2    0    0  0.63344432122E+02  0.11724063773E+02 -0.19339338688E+03  0.21916566405E+03  0.80514690949E+02 0.  0.
        -13    1    4    4    0    0  0.52164433990E+02  0.31595999467E+02 -0.18512453157E+03  0.19491158904E+03  0.00000000000E+00 0.  1.
         14    1    4    4    0    0  0.11179998132E+02 -0.19871935693E+02 -0.82688553157E+01  0.24254075011E+02  0.00000000000E+00 0. -1.
        -13    1    3    3    0    0 -0.65494735925E+02  0.63463491349E+02  0.14589355697E+03  0.17205262315E+03  0.00000000000E+00 0. -1.
         13    1    3    3    0    0 -0.17837643827E+01 -0.20657632275E+02  0.39590878353E+01  0.21109096690E+02  0.00000000000E+00 0.  1.
         21    1    1    2  503  502 -0.15691783631E+02  0.50320483407E+02  0.72500059482E+02  0.89636163175E+02  0.00000000000E+00 0. -1.
          3    1    1    2  501    0  0.19625851816E+02 -0.10485040625E+03 -0.19787151569E+02  0.10849107391E+03  0.00000000000E+00 0. -1.
<scales pt_clust_5="13000.00000" pt_clust_6="13000.00000" pt_clust_7="13000.00000" pt_clust_8="13000.00000" pt_clust_9="52.71037" pt_clust_10="96.52885"></scales>
<clustering>
<clus scale="   52.710">  1  9  2 -1</clus>
<clus scale="   80.515">  5  6 -1 -1</clus>
<clus scale="   92.179">  7  8 -1 -1</clus>
<clus scale="   96.529">  2 10  1 -1</clus>
<clus scale="  128.892">  2  5  1 -1</clus>
<clus scale="   96.529">  2  5  1 -1</clus>
</clustering>
</event>
<event>
10    4  0.5389768E-005  0.2074075E+03  0.7546771E-02  0.1168935E+00
         -3   -1    0    0    0  501 -0.00000000000E+00  0.00000000000E+00  0.11346473907E+04  0.11346473907E+04  0.00000000000E+00 0.  1.
         21   -1    0    0  503  502  0.00000000000E+00 -0.00000000000E+00 -0.17068715714E+03  0.17068715714E+03  0.00000000000E+00 0.  1.
         23    2    1    2    0    0  0.50880057947E+02 -0.40697740707E+02  0.80837284274E+02  0.14240487339E+03  0.97464840023E+02 0.  0.
         24    2    1    2    0    0  0.57084720519E+01 -0.16470832089E+03  0.67227126298E+03  0.69651938817E+03  0.77647855411E+02 0.  0.
        -11    1    4    4    0    0  0.24207587768E+02 -0.16150577888E+03  0.59568769896E+03  0.61766816221E+03  0.00000000000E+00 0.  1.
         12    1    4    4    0    0 -0.18499115716E+02 -0.32025420032E+01  0.76583564022E+02  0.78851225963E+02  0.00000000000E+00 0. -1.
        -13    1    3    3    0    0 -0.28010986637E+02 -0.16814442160E+01  0.11355329107E+02  0.30271870213E+02  0.00000000000E+00 0. -1.
         13    1    3    3    0    0  0.78891044584E+02 -0.39016296491E+02  0.69481955167E+02  0.11213300318E+03  0.00000000000E+00 0.  1.
         21    1    1    2  503  501 -0.39734088840E+02  0.10746242777E+02  0.26137457346E+03  0.26459581856E+03  0.00000000000E+00 0. -1.
         -4    1    1    2    0  502 -0.16854441158E+02  0.19465981882E+03 -0.50522887155E+02  0.20181446771E+03  0.00000000000E+00 0.  1.
<scales pt_clust_5="13000.00000" pt_clust_6="13000.00000" pt_clust_7="13000.00000" pt_clust_8="13000.00000" pt_clust_9="41.16163" pt_clust_10="192.32438"></scales>
<clustering>
<clus scale="   41.162">  1  9  2 -1</clus>
<clus scale="   77.648">  5  6 -1 -1</clus>
<clus scale="   97.465">  7  8 -1 -1</clus>
<clus scale="  114.641">  1  7  2 -1</clus>
<clus scale="  192.324">  2 10  1 -1</clus>
<clus scale="  192.324">  2  5  1 -1</clus>
</clustering>
</event>
<event>
10    4  0.5389768E-005  0.1764814E+03  0.7546771E-02  0.1172100E+00
          2   -1    0    0  503    0 -0.00000000000E+00  0.00000000000E+00  0.59716770835E+03  0.59716770835E+03  0.00000000000E+00 0. -1.
         21   -1    0    0  501  502  0.00000000000E+00 -0.00000000000E+00 -0.31003346931E+03  0.31003346931E+03  0.00000000000E+00 0.  1.
         23    2    1    2    0    0  0.13454687691E+03 -0.92669369096E+02  0.42942327785E+03  0.46789003435E+03  0.88466143960E+02 0.  0.
         24    2    1    2    0    0 -0.12805331521E+03  0.13774334161E+03 -0.18034671066E+03  0.27302198813E+03  0.81518036403E+02 0.  0.
        -13    1    4    4    0    0 -0.13337779730E+03  0.13117028487E+03 -0.14502461657E+03  0.23670111925E+03  0.00000000000E+00 0.  1.
         14    1    4    4    0    0  0.53244820887E+01  0.65730567404E+01 -0.35322094094E+02  0.36320868872E+02  0.00000000000E+00 0. -1.
        -11    1    3    3    0    0  0.50629133174E+02 -0.95601874298E+01  0.55373429320E+02  0.75636783276E+02  0.00000000000E+00 0.  1.
         11    1    3    3    0    0  0.83917743736E+02 -0.83109181666E+02  0.37404984853E+03  0.39225325107E+03  0.00000000000E+00 0. -1.
         21    1    1    2  503  502 -0.22035689843E+02 -0.40276721857E+01  0.93175917434E+02  0.95830816337E+02  0.00000000000E+00 0. -1.
          1    1    1    2  501    0  0.15542128142E+02 -0.41046300329E+02 -0.55118245577E+02  0.70458338849E+02  0.00000000000E+00 0. -1.
<scales pt_clust_5="13000.00000" pt_clust_6="13000.00000" pt_clust_7="13000.00000" pt_clust_8="13000.00000" pt_clust_9="22.40075" pt_clust_10="43.82998"></scales>
<clustering>
<clus scale="   22.401">  1  9  2 -1</clus>
<clus scale="   43.830">  2 10  1 -1</clus>
<clus scale="   81.518">  5  6 -1 -1</clus>
<clus scale="   88.466">  7  8 -1 -1</clus>
<clus scale="  173.103">  2  5  1 -1</clus>
<clus scale="   43.830">  2  5  1 -1</clus>
</clustering>
</event>
<event>
10    4  0.5389768E-005  0.1639628E+03  0.7546771E-02  0.1212891E+00
         21   -1    0    0  501  502  0.00000000000E+00  0.00000000000E+00  0.12074493935E+03  0.12074493935E+03  0.00000000000E+00 0. -1.
          2   -1    0    0  503    0 -0.00000000000E+00 -0.00000000000E+00 -0.49977472610E+03  0.49977472610E+03  0.00000000000E+00 0. -1.
         24    2    1    2    0    0 -0.97844700852E+01  0.11122694553E+02 -0.15390946092E+03  0.17583713730E+03  0.83732469825E+02 0.  0.
         23    2    1    2    0    0 -0.90619162028E+02  0.82823968267E+02 -0.33443661773E+02  0.15799190298E+03  0.93655328996E+02 0.  0.
        -11    1    3    3    0    0 -0.41650300921E+02  0.12521139620E+02 -0.12654761807E+03  0.13381265316E+03  0.00000000000E+00 0.  1.
         12    1    3    3    0    0  0.31865830835E+02 -0.13984450672E+01 -0.27361842845E+02  0.42024484141E+02  0.00000000000E+00 0. -1.
        -13    1    4    4    0    0 -0.91317572980E+02  0.32068026006E+02  0.75171811097E+00  0.96787512144E+02  0.00000000000E+00 0. -1.
         13    1    4    4    0    0  0.69841095175E+00  0.50755942261E+02 -0.34195379884E+02  0.61204390840E+02  0.00000000000E+00 0.  1.
         21    1    1    2  503  502 -0.44796590681E+02 -0.26975208167E+02 -0.59671249753E+02  0.79341379112E+02  0.00000000000E+00 0. -1.
          1    1    1    2  501    0  0.14520022279E+03 -0.66971454653E+02 -0.13200541430E+03  0.20734924606E+03  0.00000000000E+00 0. -1.
<scales pt_clust_5="13000.00000" pt_clust_6="13000.00000" pt_clust_7="13000.00000" pt_clust_8="13000.00000" pt_clust_9="52.29146" pt_clust_10="134.58274"></scales>
<clustering>
<clus scale="   52.291">  2  9  1 -1</clus>
<clus scale="   83.732">  5  6 -1 -1</clus>
<clus scale="   87.966">  2  5  1 -1</clus>
<clus scale="   93.655">  7  8 -1 -1</clus>
<clus scale="  134.583">  1 10  2 -1</clus>
<clus scale="  134.583">  1  5  2 -1</clus>
</clustering>
</event>
<event>
10    4  0.5389768E-005  0.1265402E+03  0.7546771E-02  0.1236852E+00
          2   -1    0    0  503    0 -0.00000000000E+00  0.00000000000E+00  0.10389285898E+04  0.10389285898E+04  0.00000000000E+00 0. -1.
         21   -1    0    0  501  502  0.00000000000E+00 -0.00000000000E+00 -0.38724836475E+02  0.38724836475E+02  0.00000000000E+00 0. -1.
         24    2    1    2    0    0  0.43921239991E+02 -0.79675167476E+02  0.47778139824E+03  0.49286511276E+03  0.79773098401E+02 0.  0.
         23    2    1    2    0    0  0.17118867819E+02  0.68509523511E+02  0.96726326040E+02  0.15238508851E+03  0.94226443237E+02 0.  0.
        -13    1    3    3    0    0  0.16675657711E+02  0.11325532542E+02  0.38804304241E+02  0.43727786075E+02  0.00000000000E+00 0.  1.
         14    1    3    3    0    0  0.27245582280E+02 -0.91000700018E+02  0.43897709400E+03  0.44913732668E+03  0.00000000000E+00 0. -1.
        -11    1    4    4    0    0 -0.22367381847E+02  0.17239123668E+02  0.81009394946E+02  0.85790496123E+02  0.00000000000E+00 0.  1.
         11    1    4    4    0    0  0.39486249665E+02  0.51270399843E+02  0.15716931094E+02  0.66594592391E+02  0.00000000000E+00 0. -1.
         21    1    1    2  503  502 -0.34348833821E+02 -0.15399395711E+02  0.18649738036E+03  0.19025839444E+03  0.00000000000E+00 0. -1.
          1    1    1    2  501    0 -0.26691273988E+02  0.26565039676E+02  0.23919864871E+03  0.24214483060E+03  0.00000000000E+00 0. -1.
<scales pt_clust_5="13000.00000" pt_clust_6="13000.00000" pt_clust_7="13000.00000" pt_clust_8="13000.00000" pt_clust_9="37.64284" pt_clust_10="42.64872"></scales>
<clustering>
<clus scale="   37.643">  1  9  2 -1</clus>
<clus scale="   42.649">  2 10  1 -1</clus>
<clus scale="   79.773">  5  6 -1 -1</clus>
<clus scale="   94.226">  7  8 -1 -1</clus>
<clus scale="  116.179">  1  5  2 -1</clus>
<clus scale="   42.649">  2  5  1 -1</clus>
</clustering>
</event>
<event>
10    4  0.5389768E-005  0.1780291E+03  0.7546771E-02  0.1170743E+00
          2   -1    0    0  503    0 -0.00000000000E+00  0.00000000000E+00  0.77083119793E+03  0.77083119793E+03  0.00000000000E+00 0. -1.
         21   -1    0    0  501  502  0.00000000000E+00 -0.00000000000E+00 -0.12111335978E+03  0.12111335978E+03  0.00000000000E+00 0. -1.
         23    2    1    2    0    0  0.87625503218E+01  0.14915199257E+03  0.50769358035E+03  0.53671003579E+03  0.89340874243E+02 0.  0.
         24    2    1    2    0    0  0.12497272075E+02 -0.17545113896E+03  0.76980314749E+02  0.20833666524E+03  0.80863547127E+02 0.  0.
        -13    1    4    4    0    0  0.21761922765E+02 -0.42944146285E+01  0.83961866919E+01  0.23717487860E+02  0.00000000000E+00 0.  1.
         14    1    4    4    0    0 -0.92646506902E+01 -0.17115672433E+03  0.68584128057E+02  0.18461917738E+03  0.00000000000E+00 0. -1.
        -13    1    3    3    0    0 -0.28730520991E+02  0.11340000910E+02  0.77505440384E+02  0.83433397068E+02  0.00000000000E+00 0.  1.
         13    1    3    3    0    0  0.37493071313E+02  0.13781199166E+03  0.43018813996E+03  0.45327663872E+03  0.00000000000E+00 0. -1.
         21    1    1    2  503  502 -0.63660126339E+02  0.36359626960E+02  0.72015663691E+02  0.10276619082E+03  0.00000000000E+00 0.  1.
          1    1    1    2  501    0  0.42400303942E+02 -0.10060480574E+02 -0.69717206423E+01  0.44131665870E+02  0.00000000000E+00 0. -1.
<scales pt_clust_5="13000.00000" pt_clust_6="13000.00000" pt_clust_7="13000.00000" pt_clust_8="13000.00000" pt_clust_9="66.61467" pt_clust_10="43.57751"></scales>
<clustering>
<clus scale="   43.578">  2 10  1 -1</clus>
<clus scale="   66.615">  2  9  1 -1</clus>
<clus scale="   80.864">  5  6 -1 -1</clus>
<clus scale="   89.341">  7  8 -1 -1</clus>
<clus scale="  173.929">  2  5  1 -1</clus>
<clus scale="   43.578">  2  5  1 -1</clus>
</clustering>
</event>
<event>
10    4  0.5389768E-005  0.1450978E+03  0.7546771E-02  0.1213091E+00
         21   -1    0    0  503  502  0.00000000000E+00  0.00000000000E+00  0.50654940595E+03  0.50654940595E+03  0.00000000000E+00 0.  1.
         -1   -1    0    0    0  501 -0.00000000000E+00 -0.00000000000E+00 -0.16710062824E+03  0.16710062824E+03  0.00000000000E+00 0.  1.
         24    2    1    2    0    0 -0.10986825444E+03 -0.53919663798E+01  0.45888644720E+01  0.13787439911E+03  0.82995093926E+02 0.  0.
         23    2    1    2    0    0  0.60590133716E+02 -0.87583209236E+02  0.24553814594E+03  0.28913135962E+03  0.10938911811E+03 0.  0.
        -13    1    3    3    0    0 -0.49671254004E+02 -0.43511362130E+02 -0.37290941145E+01  0.66139082634E+02  0.00000000000E+00 0.  1.
         14    1    3    3    0    0 -0.60197000440E+02  0.38119395750E+02  0.83179585865E+01  0.71735316472E+02  0.00000000000E+00 0. -1.
        -13    1    4    4    0    0  0.57394242375E+02 -0.11261171086E+03  0.19092516502E+03  0.22897142861E+03  0.00000000000E+00 0.  1.
         13    1    4    4    0    0  0.31958913403E+01  0.25028501622E+02  0.54612980919E+02  0.60159931015E+02  0.00000000000E+00 0. -1.
         21    1    1    2  503  501  0.26104338275E+02  0.52363751007E+02 -0.63785537419E+02  0.86556303526E+02  0.00000000000E+00 0. -1.
         -2    1    1    2    0  502  0.23173782453E+02  0.40611424610E+02  0.15310730471E+03  0.16008797193E+03  0.00000000000E+00 0.  1.
<scales pt_clust_5="13000.00000" pt_clust_6="13000.00000" pt_clust_7="13000.00000" pt_clust_8="13000.00000" pt_clust_9="60.02872" pt_clust_10="46.75802"></scales>
<clustering>
<clus scale="   46.758">  1 10  2 -1</clus>
<clus scale="   60.029">  2  9  1 -1</clus>
<clus scale="   82.995">  5  6 -1 -1</clus>
<clus scale="  109.389">  7  8 -1 -1</clus>
<clus scale="  126.395">  2  5  1 -1</clus>
<clus scale="   46.758">  1  5  2 -1</clus>
</clustering>
</event>
<event>
10    4  0.5389768E-005  0.9343061E+02  0.7546771E-02  0.1302264E+00
         21   -1    0    0  501  502  0.00000000000E+00  0.00000000000E+00  0.39414504063E+03  0.39414504063E+03  0.00000000000E+00 0.  1.
          2   -1    0    0  503    0 -0.00000000000E+00 -0.00000000000E+00 -0.39770259742E+02  0.39770259742E+02  0.00000000000E+00 0. -1.
         23    2    1    2    0    0  0.18486682830E+02  0.39559425131E+00  0.12097552000E+03  0.15340310621E+03  0.92496068128E+02 0.  0.
         24    2    1    2    0    0  0.32937270181E+01 -0.27454797155E+02  0.20323631136E+03  0.22024678509E+03  0.80243588925E+02 0.  0.
        -11    1    4    4    0    0  0.12468698669E+02 -0.54490235289E+02  0.14462770813E+03  0.15505427484E+03  0.00000000000E+00 0.  1.
         12    1    4    4    0    0 -0.91749716504E+01  0.27035438134E+02  0.58608603227E+02  0.65192510246E+02  0.00000000000E+00 0. -1.
        -11    1    3    3    0    0  0.31327534465E+02 -0.31407705694E+02  0.23777200289E+02  0.50331040584E+02  0.00000000000E+00 0. -1.
         11    1    3    3    0    0 -0.12840851636E+02  0.31803299945E+02  0.97198319711E+02  0.10307206563E+03  0.00000000000E+00 0.  1.
         21    1    1    2  503  502 -0.27490580475E+02  0.51367658891E+01  0.23832078023E+02  0.36743520811E+02  0.00000000000E+00 0. -1.
          1    1    1    2  501    0  0.57101706277E+01  0.21922437015E+02  0.63308715066E+01  0.23521888260E+02  0.00000000000E+00 0. -1.
<scales pt_clust_5="13000.00000" pt_clust_6="13000.00000" pt_clust_7="13000.00000" pt_clust_8="13000.00000" pt_clust_9="27.89812" pt_clust_10="22.65391"></scales>
<clustering>
<clus scale="   22.654">  1 10  2 -1</clus>
<clus scale="   27.898">  2  9  1 -1</clus>
<clus scale="   80.244">  5  6 -1 -1</clus>
<clus scale="   81.319">  1  5  2 -1</clus>
<clus scale="   92.496">  7  8 -1 -1</clus>
<clus scale="   22.654">  1  5  2 -1</clus>
</clustering>
</event>
<event>
10    4  0.5389768E-005  0.2347593E+03  0.7546771E-02  0.1124189E+00
         21   -1    0    0  501  502  0.00000000000E+00  0.00000000000E+00  0.75303810858E+03  0.75303810858E+03  0.00000000000E+00 0.  1.
          2   -1    0    0  503    0 -0.00000000000E+00 -0.00000000000E+00 -0.56466706237E+03  0.56466706237E+03  0.00000000000E+00 0. -1.
         23    2    1    2    0    0 -0.19219584080E+03  0.67747017644E+02  0.15375721243E+03  0.27138671894E+03  0.92090016952E+02 0.  0.
         24    2    1    2    0    0  0.20467980318E+03 -0.23237428055E+02  0.39144972924E+03  0.44928359487E+03  0.78670567612E+02 0.  0.
        -11    1    4    4    0    0  0.15249259493E+03  0.10825097605E+02  0.31884679245E+03  0.35360210874E+03  0.00000000000E+00 0.  1.
         12    1    4    4    0    0  0.52187208245E+02 -0.34062525660E+02  0.72602936791E+02  0.95681486137E+02  0.00000000000E+00 0. -1.
        -11    1    3    3    0    0 -0.74942241511E+02 -0.18563446551E+02  0.64547837104E+02  0.10063480703E+03  0.00000000000E+00 0.  1.
         11    1    3    3    0    0 -0.11725359929E+03  0.86310464195E+02  0.89209375321E+02  0.17075191191E+03  0.00000000000E+00 0. -1.
         21    1    1    2  503  502 -0.68488237979E+02 -0.37239567926E+02 -0.46688094618E+03  0.47334473914E+03  0.00000000000E+00 0. -1.
          1    1    1    2  501    0  0.56004275606E+02 -0.72700216621E+01  0.11004505073E+03  0.12369011800E+03  0.00000000000E+00 0. -1.
<scales pt_clust_5="13000.00000" pt_clust_6="13000.00000" pt_clust_7="13000.00000" pt_clust_8="13000.00000" pt_clust_9="77.72571" pt_clust_10="56.47417"></scales>
<clustering>
<clus scale="   56.474">  1 10  2 -1</clus>
<clus scale="   77.726">  2  9  1 -1</clus>
<clus scale="   78.671">  5  6 -1 -1</clus>
<clus scale="   92.090">  7  8 -1 -1</clus>
<clus scale="  229.827">  1  5  2 -1</clus>
<clus scale="   56.474">  1  5  2 -1</clus>
</clustering>
</event>
<event>
10    4  0.5389768E-005  0.1115136E+03  0.7546771E-02  0.1261036E+00
         21   -1    0    0  501  502  0.00000000000E+00  0.00000000000E+00  0.34300386463E+02  0.34300386463E+02  0.00000000000E+00 0. -1.
          2   -1    0    0  503    0 -0.00000000000E+00 -0.00000000000E+00 -0.97672711369E+03  0.97672711369E+03  0.00000000000E+00 0. -1.
         24    2    1    2    0    0  0.63177865916E+02  0.66238080274E+02 -0.27336716457E+03  0.30472999778E+03  0.98751399292E+02 0.  0.
         23    2    1    2    0    0  0.19849183064E+01 -0.22558948354E+02 -0.24835668409E+03  0.26543529515E+03  0.90895584743E+02 0.  0.
        -11    1    3    3    0    0 -0.22931945711E+02  0.36816433744E+02 -0.79273985181E+02  0.90364200069E+02  0.00000000000E+00 0.  1.
         12    1    3    3    0    0  0.86109811627E+02  0.29421646530E+02 -0.19409317939E+03  0.21436579771E+03  0.00000000000E+00 0. -1.
        -13    1    4    4    0    0 -0.16798023366E+01  0.35010214421E+02 -0.11265220793E+03  0.11797905238E+03  0.00000000000E+00 0.  1.
         13    1    4    4    0    0  0.36647206430E+01 -0.57569162775E+02 -0.13570447617E+03  0.14745624277E+03  0.00000000000E+00 0. -1.
         21    1    1    2  503  502 -0.41396916724E+02 -0.78957199699E+02 -0.29280988857E+03  0.30608099409E+03  0.00000000000E+00 0. -1.
          1    1    1    2  501    0 -0.23765867499E+02  0.35278067779E+02 -0.12789298999E+03  0.13478121313E+03  0.00000000000E+00 0. -1.
<scales pt_clust_5="13000.00000" pt_clust_6="13000.00000" pt_clust_7="13000.00000" pt_clust_8="13000.00000" pt_clust_9="85.18656" pt_clust_10="42.53658"></scales>
<clustering>
<clus scale="   42.537">  1 10  2 -1</clus>
<clus scale="   85.187">  2  9  1 -1</clus>
<clus scale="   90.896">  7  8 -1 -1</clus>
<clus scale="   98.751">  5  6 -1 -1</clus>
<clus scale="  104.621">  1  7  2 -1</clus>
<clus scale="   42.537">  1  5  2 -1</clus>
</clustering>
</event>
<event>
10    4  0.5389768E-005  0.1222096E+03  0.7546771E-02  0.1243374E+00
         21   -1    0    0  503  502  0.00000000000E+00  0.00000000000E+00  0.75037831082E+02  0.75037831082E+02  0.00000000000E+00 0.  1.
         -1   -1    0    0    0  501 -0.00000000000E+00 -0.00000000000E+00 -0.48640132498E+03  0.48640132498E+03  0.00000000000E+00 0.  1.
         23    2    1    2    0    0 -0.17298467199E+02 -0.48596859736E+02 -0.67719497683E+02  0.12561466595E+03  0.92370028639E+02 0.  0.
         24    2    1    2    0    0  0.81690968138E+02  0.81781728062E+02 -0.96072818876E+02  0.17015281537E+03  0.79751669155E+02 0.  0.
        -13    1    4    4    0    0  0.82207035801E+02  0.93844192650E+02 -0.97018781904E+02  0.15804231481E+03  0.00000000000E+00 0.  1.
         14    1    4    4    0    0 -0.51606766331E+00 -0.12062464589E+02  0.94596302795E+00  0.12110500561E+02  0.00000000000E+00 0. -1.
        -11    1    3    3    0    0 -0.29883300499E+02 -0.31881077096E+02 -0.86875931558E+02  0.97246296637E+02  0.00000000000E+00 0. -1.
         11    1    3    3    0    0  0.12584833299E+02 -0.16715782640E+02  0.19156433876E+02  0.28368369309E+02  0.00000000000E+00 0.  1.
         21    1    1    2  503  501 -0.30707151303E+02 -0.10179557507E+02 -0.20173691696E+03  0.20431430737E+03  0.00000000000E+00 0.  1.
         -2    1    1    2    0  502 -0.33685349635E+02 -0.23005310818E+02 -0.45834260381E+02  0.61357367370E+02  0.00000000000E+00 0.  1.
<scales pt_clust_5="13000.00000" pt_clust_6="13000.00000" pt_clust_7="13000.00000" pt_clust_8="13000.00000" pt_clust_9="32.35046" pt_clust_10="46.70377"></scales>
<clustering>
<clus scale="   32.350">  2  9  1 -1</clus>
<clus scale="   46.704">  1 10  2 -1</clus>
<clus scale="   79.752">  5  6 -1 -1</clus>
<clus scale="   92.370">  7  8 -1 -1</clus>
<clus scale="  112.975">  1  5  2 -1</clus>
<clus scale="   46.704">  1  5  2 -1</clus>
</clustering>
</event>
<event>
10    4  0.5389768E-005  0.1682181E+03  0.7546771E-02  0.1205295E+00
         21   -1    0    0  501  502  0.00000000000E+00  0.00000000000E+00  0.11802621397E+03  0.11802621397E+03  0.00000000000E+00 0. -1.
          2   -1    0    0  503    0 -0.00000000000E+00 -0.00000000000E+00 -0.73995829263E+03  0.73995829263E+03  0.00000000000E+00 0. -1.
         23    2    1    2    0    0 -0.50740164685E+00 -0.14215356820E+03 -0.15708934659E+03  0.23103732730E+03  0.92159043966E+02 0.  0.
         24    2    1    2    0    0  0.73683029928E+02  0.60982358550E+02 -0.38530385981E+02  0.13090118322E+03  0.80638031782E+02 0.  0.
        -13    1    4    4    0    0  0.10748851028E+02  0.37381385527E+02 -0.49335419671E+02  0.62824274102E+02  0.00000000000E+00 0.  1.
         14    1    4    4    0    0  0.62934178900E+02  0.23600973022E+02  0.10805033689E+02  0.68076909113E+02  0.00000000000E+00 0. -1.
        -13    1    3    3    0    0  0.22987273007E+02  0.91320733187E+00 -0.32847296088E+02  0.40102288316E+02  0.00000000000E+00 0.  1.
         13    1    3    3    0    0 -0.23494674653E+02 -0.14306677553E+03 -0.12424205050E+03  0.19093503898E+03  0.00000000000E+00 0. -1.
         21    1    1    2  503  502 -0.27269233578E+01  0.14018609924E+03 -0.34842632287E+03  0.37558019250E+03  0.00000000000E+00 0. -1.
          1    1    1    2  501    0 -0.70448704923E+02 -0.59014889589E+02 -0.77886023220E+02  0.12046580358E+03  0.00000000000E+00 0. -1.
<scales pt_clust_5="13000.00000" pt_clust_6="13000.00000" pt_clust_7="13000.00000" pt_clust_8="13000.00000" pt_clust_9="140.72679" pt_clust_10="91.90091"></scales>
<clustering>
<clus scale="   80.638">  5  6 -1 -1</clus>
<clus scale="   91.901">  1 10  2 -1</clus>
<clus scale="   92.159">  7  8 -1 -1</clus>
<clus scale="   95.826">  1  5  2 -1</clus>
<clus scale="  140.727">  2  9  1 -1</clus>
<clus scale="   91.901">  1  5  2 -1</clus>
</clustering>
</event>
<event>
10    4  0.5389768E-005  0.9754063E+02  0.7546771E-02  0.1291818E+00
          2   -1    0    0  503    0 -0.00000000000E+00  0.00000000000E+00  0.97088582805E+02  0.97088582805E+02  0.00000000000E+00 0. -1.
         21   -1    0    0  501  502  0.00000000000E+00 -0.00000000000E+00 -0.13638774569E+03  0.13638774569E+03  0.00000000000E+00 0. -1.
         24    2    1    2    0    0 -0.77433601440E+01  0.47187149115E+02 -0.17682409562E+02  0.91516791109E+02  0.76000452493E+02 0.  0.
         23    2    1    2    0    0  0.24971539852E+02 -0.29542919018E+02 -0.15618889435E+02  0.97518362756E+02  0.88144877905E+02 0.  0.
        -13    1    3    3    0    0 -0.17654048263E+02 -0.12453735936E+02  0.11399002605E+02  0.24427407133E+02  0.00000000000E+00 0.  1.
         14    1    3    3    0    0  0.99106881193E+01  0.59640885051E+02 -0.29081412167E+02  0.67089383976E+02  0.00000000000E+00 0. -1.
        -13    1    4    4    0    0  0.39624799440E+02  0.69803130420E+01  0.19556580967E+02  0.44735996244E+02  0.00000000000E+00 0.  1.
         13    1    4    4    0    0 -0.14653259588E+02 -0.36523232060E+02 -0.35175470402E+02  0.52782366513E+02  0.00000000000E+00 0. -1.
         21    1    1    2  503  502  0.62569488211E+01 -0.19424294844E+02 -0.14928363476E+01  0.20461700787E+02  0.00000000000E+00 0. -1.
          1    1    1    2  501    0 -0.23485128529E+02  0.17800647470E+01 -0.45050275360E+01  0.23979473839E+02  0.00000000000E+00 0. -1.
<scales pt_clust_5="13000.00000" pt_clust_6="13000.00000" pt_clust_7="13000.00000" pt_clust_8="13000.00000" pt_clust_9="20.40717" pt_clust_10="22.79283"></scales>
<clustering>
<clus scale="   20.407">  1  9  2 -1</clus>
<clus scale="   22.793">  2 10  1 -1</clus>
<clus scale="   76.000">  5  6 -1 -1</clus>
<clus scale="   86.722">  1  5  2 -1</clus>
<clus scale="   88.145">  7  8 -1 -1</clus>
<clus scale="   22.793">  2  5  1 -1</clus>
</clustering>
</event>
<event>
10    4  0.5389768E-005  0.1098934E+03  0.7546771E-02  0.1265487E+00
          2   -1    0    0  503    0 -0.00000000000E+00  0.00000000000E+00  0.30581204748E+03  0.30581204748E+03  0.00000000000E+00 0. -1.
         21   -1    0    0  501  502  0.00000000000E+00 -0.00000000000E+00 -0.15687413241E+03  0.15687413241E+03  0.00000000000E+00 0.  1.
         24    2    1    2    0    0 -0.45698804857E+02 -0.37258192247E+02  0.93079408995E+02  0.13589354814E+03  0.79540721594E+02 0.  0.
         23    2    1    2    0    0  0.78121184661E+01  0.78638427316E+02 -0.69166321295E+02  0.13925228593E+03  0.91444998166E+02 0.  0.
        -13    1    3    3    0    0 -0.29061460483E+02 -0.62071628660E+02  0.71471430550E+02  0.99023335405E+02  0.00000000000E+00 0.  1.
         14    1    3    3    0    0 -0.16637344374E+02  0.24813436413E+02  0.21607978446E+02  0.36870212733E+02  0.00000000000E+00 0. -1.
        -13    1    4    4    0    0  0.26935839295E+01  0.47003931884E+02 -0.89620728845E+02  0.10123487564E+03  0.00000000000E+00 0.  1.
         13    1    4    4    0    0  0.51185345366E+01  0.31634495433E+02  0.20454407550E+02  0.38017410292E+02  0.00000000000E+00 0. -1.
         21    1    1    2  503  502 -0.26618526280E+02  0.22181090790E+02  0.78330188490E+02  0.85651416561E+02  0.00000000000E+00 0.  1.
          1    1    1    2  501    0  0.64505212671E+02 -0.63561325860E+02  0.46694638878E+02  0.10188892926E+03  0.00000000000E+00 0. -1.
<scales pt_clust_5="13000.00000" pt_clust_6="13000.00000" pt_clust_7="13000.00000" pt_clust_8="13000.00000" pt_clust_9="34.64891" pt_clust_10="79.10407"></scales>
<clustering>
<clus scale="   34.649">  1  9  2 -1</clus>
<clus scale="   79.104">  2 10  1 -1</clus>
<clus scale="   79.541">  5  6 -1 -1</clus>
<clus scale="   91.445">  7  8 -1 -1</clus>
<clus scale="  100.205">  1  5  2 -1</clus>
<clus scale="   79.104">  2  5  1 -1</clus>
</clustering>
</event>
<event>
10    4  0.5389768E-005  0.1279611E+03  0.7546771E-02  0.1232912E+00
         21   -1    0    0  503  502  0.00000000000E+00  0.00000000000E+00  0.14713921274E+03  0.14713921274E+03  0.00000000000E+00 0.  1.
         -1   -1    0    0    0  501 -0.00000000000E+00 -0.00000000000E+00 -0.37109229945E+03  0.37109229945E+03  0.00000000000E+00 0.  1.
         23    2    1    2    0    0  0.86307259382E+02 -0.59236066244E+02 -0.73546262339E+02  0.15641583881E+03  0.89994485175E+02 0.  0.
         24    2    1    2    0    0 -0.25507301534E+02  0.59151610375E+02  0.72544289980E+02  0.12637499480E+03  0.80984133388E+02 0.  0.
        -13    1    4    4    0    0 -0.39353387925E+01  0.63145478311E+02  0.15329968812E+02  0.65098742432E+02  0.00000000000E+00 0.  1.
         14    1    4    4    0    0 -0.21571962741E+02 -0.39938679352E+01  0.57214321168E+02  0.61276252368E+02  0.00000000000E+00 0. -1.
        -13    1    3    3    0    0  0.58721172351E+02 -0.64479555445E+02 -0.11059315691E+02  0.87909599113E+02  0.00000000000E+00 0.  1.
         13    1    3    3    0    0  0.27586087031E+02  0.52434892009E+01 -0.62486946648E+02  0.68506239702E+02  0.00000000000E+00 0. -1.
         21    1    1    2  503  501 -0.14577860950E+02 -0.20314419391E+02 -0.80623569913E+02  0.84411786443E+02  0.00000000000E+00 0.  1.
         -2    1    1    2    0  502 -0.46222096899E+02  0.20398875259E+02 -0.14232754444E+03  0.15102889213E+03  0.00000000000E+00 0.  1.
<scales pt_clust_5="13000.00000" pt_clust_6="13000.00000" pt_clust_7="13000.00000" pt_clust_8="13000.00000" pt_clust_9="25.00379" pt_clust_10="54.56965"></scales>
<clustering>
<clus scale="   25.004">  2  9  1 -1</clus>
<clus scale="   54.570">  1 10  2 -1</clus>
<clus scale="   80.984">  5  6 -1 -1</clus>
<clus scale="   89.994">  7  8 -1 -1</clus>
<clus scale="  121.793">  1  5  2 -1</clus>
<clus scale="   54.570">  1  5  2 -1</clus>
</clustering>
</event>
<event>
10    4  0.5389768E-005  0.1786869E+03  0.7546771E-02  0.1169843E+00
         21   -1    0    0  501  502  0.00000000000E+00  0.00000000000E+00  0.11630249137E+03  0.11630249137E+03  0.00000000000E+00 0. -1.
          2   -1    0    0  503    0 -0.00000000000E+00 -0.00000000000E+00 -0.48879547409E+03  0.48879547409E+03  0.00000000000E+00 0. -1.
         24    2    1    2    0    0  0.80796129727E+02 -0.12412490740E+03 -0.21493736191E+03  0.27358900673E+03  0.81962600265E+02 0.  0.
         23    2    1    2    0    0 -0.37481221740E+02  0.15861174340E+03 -0.12445579588E+03  0.22330738326E+03  0.88399180784E+02 0.  0.
        -13    1    3    3    0    0  0.60865473867E+02 -0.31966437616E+02 -0.12821028638E+03  0.14547967754E+03  0.00000000000E+00 0.  1.
         14    1    3    3    0    0  0.19930655861E+02 -0.92158469785E+02 -0.86727075535E+02  0.12810932920E+03  0.00000000000E+00 0. -1.
        -11    1    4    4    0    0 -0.44127601447E+02  0.12398566959E+03 -0.13291811434E+03  0.18704789919E+03  0.00000000000E+00 0. -1.
         11    1    4    4    0    0  0.66463797069E+01  0.34626073815E+02  0.84623184647E+01  0.36259484068E+02  0.00000000000E+00 0.  1.
         21    1    1    2  503  502 -0.18566167857E+01 -0.22918243523E+02 -0.55214382731E+02  0.59810709513E+02  0.00000000000E+00 0. -1.
          1    1    1    2  501    0 -0.41458291201E+02 -0.11568592479E+02  0.22114557794E+02  0.48390865953E+02  0.00000000000E+00 0. -1.
<scales pt_clust_5="13000.00000" pt_clust_6="13000.00000" pt_clust_7="13000.00000" pt_clust_8="13000.00000" pt_clust_9="22.99332" pt_clust_10="43.28921"></scales>
<clustering>
<clus scale="   22.993">  2  9  1 -1</clus>
<clus scale="   43.289">  1 10  2 -1</clus>
<clus scale="   81.963">  5  6 -1 -1</clus>
<clus scale="   88.399">  7  8 -1 -1</clus>
<clus scale="  175.592">  2  5  1 -1</clus>
<clus scale="   43.289">  1  5  2 -1</clus>
</clustering>
</event>
<event>
10    4  0.5389768E-005  0.1415032E+03  0.7546771E-02  0.1222141E+00
         21   -1    0    0  501  502  0.00000000000E+00  0.00000000000E+00  0.67151446931E+03  0.67151446931E+03  0.00000000000E+00 0. -1.
          2   -1    0    0  503    0 -0.00000000000E+00 -0.00000000000E+00 -0.11770819000E+03  0.11770819000E+03  0.00000000000E+00 0. -1.
         24    2    1    2    0    0 -0.89117573148E+02 -0.19605236548E+02 -0.90033992132E+01  0.12129745920E+03  0.79408471006E+02 0.  0.
         23    2    1    2    0    0 -0.78730622033E+02 -0.41060455812E+01  0.29597066101E+03  0.32020936011E+03  0.93381109816E+02 0.  0.
        -11    1    3    3    0    0 -0.44006981234E+02  0.93749337720E+01  0.30795026981E+02  0.54523733065E+02  0.00000000000E+00 0.  1.
         12    1    3    3    0    0 -0.45110591914E+02 -0.28980170321E+02 -0.39798426195E+02  0.66773726137E+02  0.00000000000E+00 0. -1.
        -11    1    4    4    0    0 -0.29880886625E+02  0.30443307958E+02  0.44201678478E+02  0.61428419850E+02  0.00000000000E+00 0.  1.
         11    1    4    4    0    0 -0.48849735407E+02 -0.34549353539E+02  0.25176898253E+03  0.25878094026E+03  0.00000000000E+00 0. -1.
         21    1    1    2  503  502  0.21956352900E+02 -0.14359428207E+02 -0.13423146559E+02  0.29469568620E+02  0.00000000000E+00 0. -1.
          1    1    1    2  501    0  0.14589184228E+03  0.38070710337E+02  0.28026216408E+03  0.31824627137E+03  0.00000000000E+00 0. -1.
<scales pt_clust_5="13000.00000" pt_clust_6="13000.00000" pt_clust_7="13000.00000" pt_clust_8="13000.00000" pt_clust_9="26.23499" pt_clust_10="106.31620"></scales>
<clustering>
<clus scale="   26.235">  2  9  1 -1</clus>
<clus scale="   79.408">  5  6 -1 -1</clus>
<clus scale="   93.381">  7  8 -1 -1</clus>
<clus scale="  112.604">  2  5  1 -1</clus>
<clus scale="  106.316">  1 10  2 -1</clus>
<clus scale="  106.316">  1  5  2 -1</clus>
</clustering>
</event>
<event>
10    4  0.5389768E-005  0.1183348E+03  0.7546771E-02  0.1249716E+00
         21   -1    0    0  503  502  0.00000000000E+00  0.00000000000E+00  0.15987067700E+03  0.15987067700E+03  0.00000000000E+00 0.  1.
         -3   -1    0    0    0  501 -0.00000000000E+00 -0.00000000000E+00 -0.41403946018E+03  0.41403946018E+03  0.00000000000E+00 0.  1.
         23    2    1    2    0    0  0.65037204470E+02  0.84765629199E+02 -0.13549272440E+03  0.19553920874E+03  0.91990510010E+02 0.  0.
         24    2    1    2    0    0 -0.30120010324E+02 -0.43329754098E+02  0.87367962309E+02  0.12991770124E+03  0.80378888062E+02 0.  0.
        -11    1    4    4    0    0 -0.16517052583E+02  0.21549792649E+02  0.12412871567E+02  0.29854412902E+02  0.00000000000E+00 0.  1.
         12    1    4    4    0    0 -0.13602957742E+02 -0.64879546747E+02  0.74955090742E+02  0.10006328834E+03  0.00000000000E+00 0. -1.
        -13    1    3    3    0    0  0.39122477665E+02  0.87033490629E+02 -0.13970867232E+03  0.16918602150E+03  0.00000000000E+00 0.  1.
         13    1    3    3    0    0  0.25914726804E+02 -0.22678614298E+01  0.42159479235E+01  0.26353187240E+02  0.00000000000E+00 0. -1.
         21    1    1    2  503  501 -0.35882326285E+02 -0.16667234962E+02 -0.21755506495E+03  0.22112336906E+03  0.00000000000E+00 0. -1.
         -4    1    1    2    0  502  0.96513213992E+00 -0.24768640139E+02  0.11511043865E+02  0.27329858127E+02  0.00000000000E+00 0.  1.
<scales pt_clust_5="13000.00000" pt_clust_6="13000.00000" pt_clust_7="13000.00000" pt_clust_8="13000.00000" pt_clust_9="39.68684" pt_clust_10="24.78744"></scales>
<clustering>
<clus scale="   24.787">  1 10  2 -1</clus>
<clus scale="   39.687">  2  9  1 -1</clus>
<clus scale="   80.379">  5  6 -1 -1</clus>
<clus scale="   91.991">  7  8 -1 -1</clus>
<clus scale="  109.552">  1  5  2 -1</clus>
<clus scale="   24.787">  1  5  2 -1</clus>
</clustering>
</event>
<event>
10    4  0.5389768E-005  0.1115470E+03  0.7546771E-02  0.1258367E+00
         21   -1    0    0  501  502  0.00000000000E+00  0.00000000000E+00  0.35384843603E+02  0.35384843603E+02  0.00000000000E+00 0. -1.
          2   -1    0    0  503    0 -0.00000000000E+00 -0.00000000000E+00 -0.85366906703E+03  0.85366906703E+03  0.00000000000E+00 0. -1.
         24    2    1    2    0    0  0.31786181029E+02 -0.97358077319E+02 -0.33363611424E+03  0.35806321848E+03  0.80045332005E+02 0.  0.
         23    2    1    2    0    0 -0.33797907071E+01  0.42160469199E+02 -0.10603340116E+03  0.14052486897E+03  0.81946497722E+02 0.  0.
        -11    1    3    3    0    0  0.30330529962E+02 -0.49624078292E+01 -0.41371352515E+02  0.51537902054E+02  0.00000000000E+00 0.  1.
         12    1    3    3    0    0  0.14556510665E+01 -0.92395669490E+02 -0.29226476173E+03  0.30652531642E+03  0.00000000000E+00 0. -1.
        -13    1    4    4    0    0 -0.37877824855E+02  0.26220169181E+02 -0.28478405337E+02  0.54159454006E+02  0.00000000000E+00 0.  1.
         13    1    4    4    0    0  0.34498034148E+02  0.15940300018E+02 -0.77554995823E+02  0.86365414964E+02  0.00000000000E+00 0. -1.
         21    1    1    2  503  502 -0.38043531532E+02 -0.81242232993E+00 -0.17344218316E+03  0.17756734278E+03  0.00000000000E+00 0. -1.
          1    1    1    2  501    0  0.96371412104E+01  0.56010030450E+02 -0.20517252486E+03  0.21289848041E+03  0.00000000000E+00 0. -1.
<scales pt_clust_5="13000.00000" pt_clust_6="13000.00000" pt_clust_7="13000.00000" pt_clust_8="13000.00000" pt_clust_9="38.05221" pt_clust_10="55.79877"></scales>
<clustering>
<clus scale="   38.052">  2  9  1 -1</clus>
<clus scale="   55.799">  1 10  2 -1</clus>
<clus scale="   80.045">  5  6 -1 -1</clus>
<clus scale="   81.946">  7  8 -1 -1</clus>
<clus scale="  110.158">  2  5  1 -1</clus>
<clus scale="   55.799">  1  5  2 -1</clus>
</clustering>
</event>
<event>
10    4  0.5389768E-005  0.1041822E+03  0.7546771E-02  0.1277330E+00
         -3   -1    0    0    0  501 -0.00000000000E+00  0.00000000000E+00  0.43283178147E+03  0.43283178147E+03  0.00000000000E+00 0.  1.
         21   -1    0    0  503  502  0.00000000000E+00 -0.00000000000E+00 -0.13903431256E+03  0.13903431256E+03  0.00000000000E+00 0.  1.
         24    2    1    2    0    0 -0.15257985785E+02  0.23895409031E+02  0.25525140344E+03  0.26867196018E+03  0.78914805512E+02 0.  0.
         23    2    1    2    0    0  0.32088623521E+02 -0.60669904352E+02 -0.10315657148E+02  0.11463562774E+03  0.91238135176E+02 0.  0.
        -13    1    3    3    0    0  0.30035066642E+02  0.24150341534E+02  0.12021206422E+03  0.12623899797E+03  0.00000000000E+00 0.  1.
         14    1    3    3    0    0 -0.45293052427E+02 -0.25493250256E+00  0.13503933922E+03  0.14243296221E+03  0.00000000000E+00 0. -1.
        -11    1    4    4    0    0  0.63126860130E+02 -0.28642128566E+02 -0.25720721996E+01  0.69368491075E+02  0.00000000000E+00 0.  1.
         11    1    4    4    0    0 -0.31038236609E+02 -0.32027775786E+02 -0.77435849483E+01  0.45267136661E+02  0.00000000000E+00 0. -1.
         21    1    1    2  503  501  0.77186889523E+01  0.28524579825E+02  0.11436509342E+03  0.11812114293E+03  0.00000000000E+00 0.  1.
         -4    1    1    2    0  502 -0.24549326689E+02  0.82499154955E+01 -0.65503370798E+02  0.70437363185E+02  0.00000000000E+00 0.  1.
<scales pt_clust_5="13000.00000" pt_clust_6="13000.00000" pt_clust_7="13000.00000" pt_clust_8="13000.00000" pt_clust_9="29.59934" pt_clust_10="25.89847"></scales>
<clustering>
<clus scale="   25.898">  2 10  1 -1</clus>
<clus scale="   29.599">  1  9  2 -1</clus>
<clus scale="   78.915">  5  6 -1 -1</clus>
<clus scale="   91.238">  7  8 -1 -1</clus>
<clus scale="   93.579">  1  5  2 -1</clus>
<clus scale="   25.898">  2  5  1 -1</clus>
</clustering>
</event>
<event>
10    4  0.5389768E-005  0.1644214E+03  0.7546771E-02  0.1187246E+00
         21   -1    0    0  501  502  0.00000000000E+00  0.00000000000E+00  0.66092244090E+03  0.66092244090E+03  0.00000000000E+00 0. -1.
          2   -1    0    0  503    0 -0.00000000000E+00 -0.00000000000E+00 -0.15413391253E+03  0.15413391253E+03  0.00000000000E+00 0. -1.
         23    2    1    2    0    0  0.17333523161E+03 -0.12838977903E+02 -0.23969470782E+02  0.20301726088E+03  0.10213486582E+03 0.  0.
         24    2    1    2    0    0 -0.10018138319E+03  0.18312018424E+02  0.20640760350E+03  0.24403737294E+03  0.81107959241E+02 0.  0.
        -11    1    4    4    0    0 -0.10816646133E+03  0.28524790757E+02  0.15582824129E+03  0.19182306386E+03  0.00000000000E+00 0.  1.
         12    1    4    4    0    0  0.79850781348E+01 -0.10212772333E+02  0.50579362212E+02  0.52214309086E+02  0.00000000000E+00 0. -1.
        -11    1    3    3    0    0  0.13928416933E+03 -0.25509989348E+02 -0.58204449348E+02  0.15309669267E+03  0.00000000000E+00 0. -1.
         11    1    3    3    0    0  0.34051062283E+02  0.12671011445E+02  0.34234978566E+02  0.49920568216E+02  0.00000000000E+00 0.  1.
         21    1    1    2  503  502 -0.42540604028E+02  0.25243024674E+02  0.97394244426E+01  0.50415966462E+02  0.00000000000E+00 0. -1.
          1    1    1    2  501    0 -0.30613244389E+02 -0.30716065196E+02  0.31461097121E+03  0.31758575314E+03  0.00000000000E+00 0. -1.
<scales pt_clust_5="13000.00000" pt_clust_6="13000.00000" pt_clust_7="13000.00000" pt_clust_8="13000.00000" pt_clust_9="50.52868" pt_clust_10="43.36643"></scales>
<clustering>
<clus scale="   43.366">  1 10  2 -1</clus>
<clus scale="   50.529">  2  9  1 -1</clus>
<clus scale="   81.108">  5  6 -1 -1</clus>
<clus scale="  102.135">  7  8 -1 -1</clus>
<clus scale="  152.254">  1  5  2 -1</clus>
<clus scale="   43.366">  1  5  2 -1</clus>
</clustering>
</event>
<event>
10    4  0.5389768E-005  0.3369460E+03  0.7546771E-02  0.1069108E+00
         21   -1    0    0  501  502  0.00000000000E+00  0.00000000000E+00  0.22116631885E+03  0.22116631885E+03  0.00000000000E+00 0. -1.
          2   -1    0    0  503    0 -0.00000000000E+00 -0.00000000000E+00 -0.14855520866E+04  0.14855520866E+04  0.00000000000E+00 0. -1.
         24    2    1    2    0    0  0.15448872395E+03  0.19068639067E+03 -0.13330389251E+03  0.29157574273E+03  0.83776014324E+02 0.  0.
         23    2    1    2    0    0 -0.27123121483E+03 -0.31345279975E+03 -0.39179302419E+03  0.58175689538E+03  0.11454379927E+03 0.  0.
        -13    1    3    3    0    0  0.73291610514E+02  0.34588854860E+02 -0.60595096791E+02  0.10119197007E+03  0.00000000000E+00 0.  1.
         14    1    3    3    0    0  0.81197113439E+02  0.15609753581E+03 -0.72708795722E+02  0.19038377266E+03  0.00000000000E+00 0. -1.
        -11    1    4    4    0    0 -0.19722702284E+03 -0.14558342191E+03 -0.24751181609E+03  0.34836063264E+03  0.00000000000E+00 0. -1.
         11    1    4    4    0    0 -0.74004191987E+02 -0.16786937784E+03 -0.14428120810E+03  0.23339626274E+03  0.00000000000E+00 0.  1.
         21    1    1    2  503  502 -0.48910428198E+01 -0.11508092407E+03 -0.26683771696E+03  0.29063707364E+03  0.00000000000E+00 0. -1.
          1    1    1    2  501    0  0.12163353369E+03  0.23784733315E+03 -0.47245113408E+03  0.54274869369E+03  0.00000000000E+00 0. -1.
<scales pt_clust_5="13000.00000" pt_clust_6="13000.00000" pt_clust_7="13000.00000" pt_clust_8="13000.00000" pt_clust_9="115.18481" pt_clust_10="224.02498"></scales>
<clustering>
<clus scale="   83.776">  5  6 -1 -1</clus>
<clus scale="  114.544">  7  8 -1 -1</clus>
<clus scale="  115.185">  2  9  1 -1</clus>
<clus scale="  224.025">  1 10  2 -1</clus>
<clus scale="  327.766">  2  5  1 -1</clus>
<clus scale="  224.025">  1  5  2 -1</clus>
</clustering>
</event>
<event>
10    4  0.5389768E-005  0.1111626E+03  0.7546771E-02  0.1266671E+00
          2   -1    0    0  503    0 -0.00000000000E+00  0.00000000000E+00  0.33199849360E+03  0.33199849360E+03  0.00000000000E+00 0. -1.
         21   -1    0    0  501  502  0.00000000000E+00 -0.00000000000E+00 -0.12568483510E+03  0.12568483510E+03  0.00000000000E+00 0. -1.
         23    2    1    2    0    0  0.43092942687E+02 -0.24743095097E+02  0.13862548764E+03  0.17221069158E+03  0.89276391092E+02 0.  0.
         24    2    1    2    0    0  0.33665788076E+02  0.17005325729E+00 -0.11004471827E+02  0.87734042173E+02  0.80266740004E+02 0.  0.
        -11    1    4    4    0    0 -0.26116415722E+02 -0.12320819721E+01  0.30011499078E+01  0.26317144544E+02  0.00000000000E+00 0.  1.
         12    1    4    4    0    0  0.59782203798E+02  0.14021352294E+01 -0.14005621735E+02  0.61416897629E+02  0.00000000000E+00 0. -1.
        -11    1    3    3    0    0  0.57046467110E+02 -0.44479576993E+02  0.12511129388E+03  0.14451840033E+03  0.00000000000E+00 0.  1.
         11    1    3    3    0    0 -0.13953524423E+02  0.19736481895E+02  0.13514193763E+02  0.27692291247E+02  0.00000000000E+00 0. -1.
         21    1    1    2  503  502 -0.11627044067E+03  0.33661766922E+02  0.14632397618E+02  0.12192635886E+03  0.00000000000E+00 0. -1.
          1    1    1    2  501    0  0.39511709904E+02 -0.90887250814E+01  0.64060245068E+02  0.75812236093E+02  0.00000000000E+00 0. -1.
<scales pt_clust_5="13000.00000" pt_clust_6="13000.00000" pt_clust_7="13000.00000" pt_clust_8="13000.00000" pt_clust_9="66.23321" pt_clust_10="40.54358"></scales>
<clustering>
<clus scale="   40.544">  2 10  1 -1</clus>
<clus scale="   80.267">  5  6 -1 -1</clus>
<clus scale="   89.276">  7  8 -1 -1</clus>
<clus scale="   94.606">  2  5  1 -1</clus>
<clus scale="   66.233">  2  9  1 -1</clus>
<clus scale="   40.544">  2  5  1 -1</clus>
</clustering>
</event>
<event>
10    4  0.5389768E-005  0.3164411E+03  0.7546771E-02  0.1131691E+00
         21   -1    0    0  501  502  0.00000000000E+00  0.00000000000E+00  0.20558671984E+03  0.20558671984E+03  0.00000000000E+00 0. -1.
          2   -1    0    0  503    0 -0.00000000000E+00 -0.00000000000E+00 -0.21567833519E+04  0.21567833519E+04  0.00000000000E+00 0. -1.
         24    2    1    2    0    0 -0.15224239148E+02 -0.10709327678E+02 -0.25067636047E+02  0.81507072034E+02  0.75289768611E+02 0.  0.
         23    2    1    2    0    0 -0.23721973481E+03  0.17945742319E+03 -0.57362129026E+01  0.31222708021E+03  0.94734767414E+02 0.  0.
        -11    1    3    3    0    0 -0.14349651190E+02 -0.23529038833E+02  0.20380935233E+02  0.34276970091E+02  0.00000000000E+00 0.  1.
         12    1    3    3    0    0 -0.87458795862E+00  0.12819711155E+02 -0.45448571279E+02  0.47230101943E+02  0.00000000000E+00 0. -1.
        -11    1    4    4    0    0 -0.12258455190E+03  0.13764287549E+03  0.26007994120E+02  0.18614228240E+03  0.00000000000E+00 0.  1.
         11    1    4    4    0    0 -0.11463518291E+03  0.41814547695E+02 -0.31744207022E+02  0.12608479781E+03  0.00000000000E+00 0. -1.
         21    1    1    2  503  502 -0.68574446300E+02 -0.12912648891E+02 -0.20595160023E+03  0.21745172527E+03  0.00000000000E+00 0.  1.
          1    1    1    2  501    0  0.32101842026E+03 -0.15583544662E+03 -0.17144411828E+04  0.17511841942E+04  0.00000000000E+00 0. -1.
<scales pt_clust_5="13000.00000" pt_clust_6="13000.00000" pt_clust_7="13000.00000" pt_clust_8="13000.00000" pt_clust_9="69.77959" pt_clust_10="301.92783"></scales>
<clustering>
<clus scale="   69.780">  2  9  1 -1</clus>
<clus scale="   75.290">  5  6 -1 -1</clus>
<clus scale="   77.997">  2  5  1 -1</clus>
<clus scale="   94.735">  7  8 -1 -1</clus>
<clus scale="  301.928">  1 10  2 -1</clus>
<clus scale="  301.928">  1  5  2 -1</clus>
</clustering>
</event>
<event>
10    4  0.5389768E-005  0.1099385E+03  0.7546771E-02  0.1264001E+00
         21   -1    0    0  501  502  0.00000000000E+00  0.00000000000E+00  0.72177437496E+02  0.72177437496E+02  0.00000000000E+00 0. -1.
          2   -1    0    0  503    0 -0.00000000000E+00 -0.00000000000E+00 -0.58489108305E+03  0.58489108305E+03  0.00000000000E+00 0. -1.
         24    2    1    2    0    0  0.27285611182E+02  0.43573332035E+02 -0.17062464694E+03  0.19683692028E+03  0.83599421053E+02 0.  0.
         23    2    1    2    0    0 -0.10005799191E+03 -0.13879073491E+02 -0.12390728511E+03  0.18444094747E+03  0.91984875793E+02 0.  0.
        -13    1    3    3    0    0  0.34273620010E+02 -0.11472797722E+02 -0.35050930361E+02  0.50347530578E+02  0.00000000000E+00 0.  1.
         14    1    3    3    0    0 -0.69880088285E+01  0.55046129756E+02 -0.13557371658E+03  0.14648938970E+03  0.00000000000E+00 0. -1.
        -13    1    4    4    0    0 -0.82392480602E+02  0.19282840751E+02 -0.11976099847E+03  0.14663916790E+03  0.00000000000E+00 0. -1.
         13    1    4    4    0    0 -0.17665511308E+02 -0.33161914242E+02 -0.41462866389E+01  0.37801779573E+02  0.00000000000E+00 0.  1.
         21    1    1    2  503  502  0.73209251453E+02  0.30259333246E+02 -0.41947425934E+02  0.89637092150E+02  0.00000000000E+00 0. -1.
          1    1    1    2  501    0 -0.43687072398E+00 -0.59953591789E+02 -0.17623428757E+03  0.18615356064E+03  0.00000000000E+00 0. -1.
<scales pt_clust_5="13000.00000" pt_clust_6="13000.00000" pt_clust_7="13000.00000" pt_clust_8="13000.00000" pt_clust_9="73.60552" pt_clust_10="59.95521"></scales>
<clustering>
<clus scale="   59.955">  1 10  2 -1</clus>
<clus scale="   73.606">  1  9  2 -1</clus>
<clus scale="   83.599">  5  6 -1 -1</clus>
<clus scale="   91.985">  7  8 -1 -1</clus>
<clus scale="  103.025">  2  5  1 -1</clus>
<clus scale="   59.955">  1  5  2 -1</clus>
</clustering>
</event>
<event>
10    4  0.5389768E-005  0.1022349E+03  0.7546771E-02  0.1285898E+00
         21   -1    0    0  501  502  0.00000000000E+00  0.00000000000E+00  0.40773160490E+02  0.40773160490E+02  0.00000000000E+00 0. -1.
          2   -1    0    0  503    0 -0.00000000000E+00 -0.00000000000E+00 -0.80170787625E+03  0.80170787625E+03  0.00000000000E+00 0. -1.
         24    2    1    2    0    0 -0.16587157985E+02  0.43531899530E+00 -0.38448793822E+03  0.39298987360E+03  0.79591097494E+02 0.  0.
         23    2    1    2    0    0  0.11698624955E+02 -0.16682220295E+02 -0.91309712365E+02  0.13585182548E+03  0.98504317751E+02 0.  0.
        -13    1    3    3    0    0 -0.20721259609E+02  0.10140233371E+02 -0.27710132256E+02  0.36056155678E+02  0.00000000000E+00 0.  1.
         14    1    3    3    0    0  0.41341016234E+01 -0.97049143757E+01 -0.35677780597E+03  0.35693371792E+03  0.00000000000E+00 0. -1.
        -13    1    4    4    0    0 -0.47043834854E+01  0.40034863040E+02 -0.26820344844E+02  0.48417480109E+02  0.00000000000E+00 0. -1.
         13    1    4    4    0    0  0.16403008440E+02 -0.56717083335E+02 -0.64489367521E+02  0.87434345375E+02  0.00000000000E+00 0.  1.
         21    1    1    2  503  502 -0.14525740542E+02 -0.43033024903E+02 -0.21513634040E+03  0.21987833757E+03  0.00000000000E+00 0. -1.
          1    1    1    2  501    0  0.19414273573E+02  0.59279926203E+02 -0.70000724770E+02  0.93761000087E+02  0.00000000000E+00 0. -1.
<scales pt_clust_5="13000.00000" pt_clust_6="13000.00000" pt_clust_7="13000.00000" pt_clust_8="13000.00000" pt_clust_9="45.41848" pt_clust_10="56.01256"></scales>
<clustering>
<clus scale="   45.418">  2  9  1 -1</clus>
<clus scale="   56.013">  1 10  2 -1</clus>
<clus scale="   79.591">  5  6 -1 -1</clus>
<clus scale="   84.164">  2  5  1 -1</clus>
<clus scale="   98.504">  7  8 -1 -1</clus>
<clus scale="   56.013">  1  5  2 -1</clus>
</clustering>
</event>
<event>
10    4  0.5389768E-005  0.1031586E+03  0.7546771E-02  0.1278714E+00
         21   -1    0    0  501  502  0.00000000000E+00  0.00000000000E+00  0.21716848165E+03  0.21716848165E+03  0.00000000000E+00 0. -1.
          2   -1    0    0  503    0 -0.00000000000E+00 -0.00000000000E+00 -0.83248116358E+03  0.83248116358E+03  0.00000000000E+00 0. -1.
         23    2    1    2    0    0  0.20472513384E+02  0.90873626384E+02 -0.48164014254E+03  0.49894399215E+03  0.91053504153E+02 0.  0.
         24    2    1    2    0    0  0.35916667579E+02  0.30651915329E+01 -0.14910777699E+03  0.17319034321E+03  0.80388826413E+02 0.  0.
        -11    1    4    4    0    0  0.51463678546E+02  0.17509412343E+00 -0.46464416754E+02  0.69336014391E+02  0.00000000000E+00 0.  1.
         12    1    4    4    0    0 -0.15547010967E+02  0.28900974094E+01 -0.10264336024E+03  0.10385432882E+03  0.00000000000E+00 0. -1.
        -11    1    3    3    0    0  0.18738932759E+02 -0.84917013568E+01 -0.29212249886E+02  0.35729709434E+02  0.00000000000E+00 0.  1.
         11    1    3    3    0    0  0.17335806258E+01  0.99365327740E+02 -0.45242789265E+03  0.46321428271E+03  0.00000000000E+00 0. -1.
         21    1    1    2  503  502 -0.33548375759E+02 -0.13688215650E+02 -0.17018758269E+03  0.17400193696E+03  0.00000000000E+00 0.  1.
          1    1    1    2  501    0 -0.22840805204E+02 -0.80250602267E+02  0.18562282029E+03  0.20351337292E+03  0.00000000000E+00 0. -1.
<scales pt_clust_5="13000.00000" pt_clust_6="13000.00000" pt_clust_7="13000.00000" pt_clust_8="13000.00000" pt_clust_9="36.23342" pt_clust_10="83.74139"></scales>
<clustering>
<clus scale="   36.233">  2  9  1 -1</clus>
<clus scale="   80.389">  5  6 -1 -1</clus>
<clus scale="   83.741">  1 10  2 -1</clus>
<clus scale="   91.054">  7  8 -1 -1</clus>
<clus scale="   93.879">  1  5  2 -1</clus>
<clus scale="   83.741">  1  5  2 -1</clus>
</clustering>
</event>
<event>
10    4  0.5389768E-005  0.1952888E+03  0.7546771E-02  0.1173797E+00
          2   -1    0    0  502    0 -0.00000000000E+00  0.00000000000E+00  0.13659950644E+04  0.13659950644E+04  0.00000000000E+00 0. -1.
         21   -1    0    0  503  502  0.00000000000E+00 -0.00000000000E+00 -0.50647563926E+02  0.50647563926E+02  0.00000000000E+00 0.  1.
         23    2    1    2    0    0  0.70833679081E+02  0.61753362886E+02  0.30257107332E+03  0.32658392778E+03  0.79227012773E+02 0.  0.
         24    2    1    2    0    0  0.98948133839E+02 -0.14920725514E+03  0.38257287309E+03  0.42998297745E+03  0.80435188181E+02 0.  0.
        -11    1    4    4    0    0  0.50819126815E+02 -0.13453375678E+03  0.25353725168E+03  0.29148422488E+03  0.00000000000E+00 0.  1.
         12    1    4    4    0    0  0.48129007024E+02 -0.14673498353E+02  0.12903562141E+03  0.13849875257E+03  0.00000000000E+00 0. -1.
        -13    1    3    3    0    0  0.36511114933E+02  0.67535628777E+02  0.26255070898E+03  0.27354523841E+03  0.00000000000E+00 0.  1.
         13    1    3    3    0    0  0.34322564148E+02 -0.57822658902E+01  0.40020364340E+02  0.53038689373E+02  0.00000000000E+00 0. -1.
         21    1    1    2  503  501 -0.64720606126E+02  0.57263566326E+02  0.25296314506E+03  0.26731671411E+03  0.00000000000E+00 0. -1.
          1    1    1    2  501    0 -0.10506120679E+03  0.30190325924E+02  0.37724040901E+03  0.39275900899E+03  0.00000000000E+00 0. -1.
<scales pt_clust_5="13000.00000" pt_clust_6="13000.00000" pt_clust_7="13000.00000" pt_clust_8="13000.00000" pt_clust_9="40.44688" pt_clust_10="183.67720"></scales>
<clustering>
<clus scale="   40.447">  9 10 -1 -1</clus>
<clus scale="   79.227">  7  8 -1 -1</clus>
<clus scale="   80.435">  5  6 -1 -1</clus>
<clus scale="  122.914">  1  7  2 -1</clus>
<clus scale="  183.677">  2  9  1 -1</clus>
<clus scale="  183.677">  2  5  1 -1</clus>
</clustering>
</event>
<event>
10    4  0.5389768E-005  0.9399088E+02  0.7546771E-02  0.1302497E+00
         21   -1    0    0  501  502  0.00000000000E+00  0.00000000000E+00  0.18359097262E+03  0.18359097262E+03  0.00000000000E+00 0.  1.
          2   -1    0    0  503    0 -0.00000000000E+00 -0.00000000000E+00 -0.30686711880E+03  0.30686711880E+03  0.00000000000E+00 0. -1.
         23    2    1    2    0    0 -0.38444695748E+01 -0.15293644521E+02 -0.16795510496E+03  0.19178719816E+03  0.91239994443E+02 0.  0.
         24    2    1    2    0    0  0.67768848199E+02  0.45098791022E+02  0.42954837309E+02  0.11953014903E+03  0.76261528585E+02 0.  0.
        -11    1    4    4    0    0  0.60015524061E+02  0.66022215159E+02  0.34938696002E+02  0.95820188380E+02  0.00000000000E+00 0.  1.
         12    1    4    4    0    0  0.77533241381E+01 -0.20923424137E+02  0.80161413072E+01  0.23709960655E+02  0.00000000000E+00 0. -1.
        -13    1    3    3    0    0 -0.20069111944E+02 -0.41251401860E+02 -0.42105229978E+02  0.62267951637E+02  0.00000000000E+00 0. -1.
         13    1    3    3    0    0  0.16224642369E+02  0.25957757339E+02 -0.12584987499E+03  0.12951924652E+03  0.00000000000E+00 0.  1.
         21    1    1    2  503  502 -0.32503973430E+02  0.55108710273E+02  0.45562323682E+02  0.78545550962E+02  0.00000000000E+00 0.  1.
          1    1    1    2  501    0 -0.31420405194E+02 -0.84913856775E+02 -0.43838202204E+02  0.10059519326E+03  0.00000000000E+00 0. -1.
<scales pt_clust_5="13000.00000" pt_clust_6="13000.00000" pt_clust_7="13000.00000" pt_clust_8="13000.00000" pt_clust_9="63.98030" pt_clust_10="81.92940"></scales>
<clustering>
<clus scale="   63.980">  1  9  2 -1</clus>
<clus scale="   76.262">  5  6 -1 -1</clus>
<clus scale="   81.929">  1 10  2 -1</clus>
<clus scale="   79.532">  1  5  2 -1</clus>
<clus scale="   91.240">  7  8 -1 -1</clus>
<clus scale="   63.980">  1  5  2 -1</clus>
</clustering>
</event>
<event>
10    4  0.5389768E-005  0.1292311E+03  0.7546771E-02  0.1230822E+00
         21   -1    0    0  503  502  0.00000000000E+00  0.00000000000E+00  0.11422938540E+03  0.11422938540E+03  0.00000000000E+00 0.  1.
         -3   -1    0    0    0  501 -0.00000000000E+00 -0.00000000000E+00 -0.10438371379E+04  0.10438371379E+04  0.00000000000E+00 0.  1.
         23    2    1    2    0    0  0.13293626356E+03 -0.21833831107E+01 -0.54761423753E+03  0.57051144798E+03  0.89023265503E+02 0.  0.
         24    2    1    2    0    0 -0.63142700403E+02  0.40684865992E+02 -0.25405150737E+03  0.27684936649E+03  0.80381244026E+02 0.  0.
        -11    1    4    4    0    0 -0.16988794682E+02  0.31876440945E+02 -0.27290287180E+02  0.45271253643E+02  0.00000000000E+00 0.  1.
         12    1    4    4    0    0 -0.46153905721E+02  0.88084250472E+01 -0.22676122019E+03  0.23157811284E+03  0.00000000000E+00 0. -1.
        -11    1    3    3    0    0  0.21566822894E+01  0.24690717206E+02 -0.12024409201E+03  0.12277183903E+03  0.00000000000E+00 0.  1.
         11    1    3    3    0    0  0.13077958127E+03 -0.26874100317E+02 -0.42737014551E+03  0.44773960895E+03  0.00000000000E+00 0. -1.
         21    1    1    2  503  501 -0.41804312108E+02  0.29551667595E+02 -0.20075861416E+03  0.20718330706E+03  0.00000000000E+00 0.  1.
         -4    1    1    2    0  502 -0.27989251046E+02 -0.68053150476E+02  0.72816606601E+02  0.10352240173E+03  0.00000000000E+00 0.  1.
<scales pt_clust_5="13000.00000" pt_clust_6="13000.00000" pt_clust_7="13000.00000" pt_clust_8="13000.00000" pt_clust_9="51.19474" pt_clust_10="73.38091"></scales>
<clustering>
<clus scale="   51.195">  2  9  1 -1</clus>
<clus scale="   73.381">  1 10  2 -1</clus>
<clus scale="   80.381">  5  6 -1 -1</clus>
<clus scale="   89.023">  7  8 -1 -1</clus>
<clus scale="  123.437">  1  5  2 -1</clus>
<clus scale="   73.381">  1  5  2 -1</clus>
</clustering>
</event>
<event>
10    4  0.5389768E-005  0.2888260E+03  0.7546771E-02  0.1118080E+00
         21   -1    0    0  501  502  0.00000000000E+00  0.00000000000E+00  0.14528266034E+03  0.14528266034E+03  0.00000000000E+00 0. -1.
          2   -1    0    0  503    0 -0.00000000000E+00 -0.00000000000E+00 -0.13365101024E+04  0.13365101024E+04  0.00000000000E+00 0. -1.
         24    2    1    2    0    0 -0.60615309009E+02 -0.99407102210E+02 -0.38209402937E+02  0.14650352605E+03  0.80295311297E+02 0.  0.
         23    2    1    2    0    0  0.17166349329E+03  0.27907247508E+03 -0.33162757319E+03  0.47489813733E+03  0.90562642774E+02 0.  0.
        -13    1    3    3    0    0 -0.62696226706E+02 -0.28042198152E+02 -0.28859452878E+02  0.74498655966E+02  0.00000000000E+00 0.  1.
         14    1    3    3    0    0  0.20809176972E+01 -0.71364904058E+02 -0.93499500594E+01  0.72004870083E+02  0.00000000000E+00 0. -1.
        -13    1    4    4    0    0  0.41144762865E+02  0.13062584690E+03 -0.17779780829E+03  0.22442830486E+03  0.00000000000E+00 0. -1.
         13    1    4    4    0    0  0.13051873042E+03  0.14844662818E+03 -0.15382976490E+03  0.25046983247E+03  0.00000000000E+00 0.  1.
         21    1    1    2  503  502  0.18820051196E+02 -0.54640719213E+02 -0.88815969992E+02  0.10596263043E+03  0.00000000000E+00 0. -1.
          1    1    1    2  501    0 -0.12986823547E+03 -0.12502465366E+03 -0.73257449595E+03  0.75442846892E+03  0.00000000000E+00 0. -1.
<scales pt_clust_5="13000.00000" pt_clust_6="13000.00000" pt_clust_7="13000.00000" pt_clust_8="13000.00000" pt_clust_9="57.79102" pt_clust_10="274.26072"></scales>
<clustering>
<clus scale="   57.791">  2  9  1 -1</clus>
<clus scale="   80.295">  5  6 -1 -1</clus>
<clus scale="   90.563">  7  8 -1 -1</clus>
<clus scale="  143.741">  2  5  1 -1</clus>
<clus scale="  274.261">  1 10  2 -1</clus>
<clus scale="  274.261">  1  5  2 -1</clus>
</clustering>
</event>
<event>
10    4  0.5389768E-005  0.9411113E+02  0.7546771E-02  0.1297634E+00
         21   -1    0    0  501  502  0.00000000000E+00  0.00000000000E+00  0.20601909078E+03  0.20601909078E+03  0.00000000000E+00 0.  1.
          2   -1    0    0  503    0 -0.00000000000E+00 -0.00000000000E+00 -0.18618949141E+03  0.18618949141E+03  0.00000000000E+00 0. -1.
         23    2    1    2    0    0  0.12265428932E+01 -0.23340855129E+02 -0.84700751536E+02  0.12482238705E+03  0.88657267448E+02 0.  0.
         24    2    1    2    0    0 -0.46891151927E+02 -0.48267307308E+00  0.53570741503E+02  0.10761787151E+03  0.80701727496E+02 0.  0.
        -11    1    4    4    0    0 -0.14610532225E+02 -0.15195336584E+02  0.66576149255E+02  0.69833727921E+02  0.00000000000E+00 0.  1.
         12    1    4    4    0    0 -0.32280619702E+02  0.14712663511E+02 -0.13005407752E+02  0.37784143589E+02  0.00000000000E+00 0. -1.
        -13    1    3    3    0    0  0.44682646415E+02 -0.79522730024E+01 -0.46154571964E+02  0.64730379651E+02  0.00000000000E+00 0.  1.
         13    1    3    3    0    0 -0.43456103522E+02 -0.15388582127E+02 -0.38546179571E+02  0.60092007394E+02  0.00000000000E+00 0. -1.
         21    1    1    2  503  502  0.29513218705E+02  0.73363319274E+01 -0.48730467955E+02  0.57441364465E+02  0.00000000000E+00 0. -1.
          1    1    1    2  501    0  0.16151390329E+02  0.16487196275E+02  0.99690077350E+02  0.10232695917E+03  0.00000000000E+00 0. -1.
<scales pt_clust_5="13000.00000" pt_clust_6="13000.00000" pt_clust_7="13000.00000" pt_clust_8="13000.00000" pt_clust_9="31.23049" pt_clust_10="23.08019"></scales>
<clustering>
<clus scale="   23.080">  1 10  2 -1</clus>
<clus scale="   31.230">  2  9  1 -1</clus>
<clus scale="   80.702">  5  6 -1 -1</clus>
<clus scale="   86.658">  1  5  2 -1</clus>
<clus scale="   88.657">  7  8 -1 -1</clus>
<clus scale="   23.080">  1  5  2 -1</clus>
</clustering>
</event>
<event>
10    4  0.5897177E-005  0.1737437E+03  0.7546771E-02  0.1193710E+00
         -1   -1    0    0    0  501 -0.00000000000E+00  0.00000000000E+00  0.74888451203E+03  0.74888451203E+03  0.00000000000E+00 0.  1.
         21   -1    0    0  501  502  0.00000000000E+00 -0.00000000000E+00 -0.18809826091E+03  0.18809826091E+03  0.00000000000E+00 0. -1.
         24    2    1    2    0    0 -0.91937249664E+01 -0.78752312385E+02 -0.11853889559E+03  0.16299789240E+03  0.78932831400E+02 0.  0.
         23    2    1    2    0    0  0.58809041151E+01 -0.90527881163E+02  0.52187863307E+03  0.53748417655E+03  0.91115586456E+02 0.  0.
        -13    1    3    3    0    0 -0.18875640823E+02 -0.18666026371E+02  0.33521517219E+01  0.26757191148E+02  0.00000000000E+00 0.  1.
         14    1    3    3    0    0  0.96819158564E+01 -0.60086286014E+02 -0.12189104731E+03  0.13624070125E+03  0.00000000000E+00 0. -1.
        -13    1    4    4    0    0 -0.41762301812E+02 -0.54928702944E+02  0.29085791975E+03  0.29893073067E+03  0.00000000000E+00 0.  1.
         13    1    4    4    0    0  0.47643205928E+02 -0.35599178219E+02  0.23102071332E+03  0.23855344588E+03  0.00000000000E+00 0. -1.
         21    1    1    2  503  502  0.16253542875E+02  0.33932039676E+02  0.17889771008E+02  0.41660591442E+02  0.00000000000E+00 0.  1.
         -2    1    1    2    0  503 -0.12940722024E+02  0.13534815387E+03  0.13955674263E+03  0.19484011255E+03  0.00000000000E+00 0.  1.
<scales pt_clust_5="13000.00000" pt_clust_6="13000.00000" pt_clust_7="13000.00000" pt_clust_8="13000.00000" pt_clust_9="26.17762" pt_clust_10="156.08085"></scales>
<clustering>
<clus scale="   26.178">  9 10 -1 -1</clus>
<clus scale="   78.933">  5  6 -1 -1</clus>
<clus scale="   91.116">  7  8 -1 -1</clus>
<clus scale="  111.879">  1  5  2 -1</clus>
<clus scale="  156.081">  2  9  1 -1</clus>
<clus scale="  156.081">  2  5  1 -1</clus>
</clustering>
</event>
<event>
10    4  0.5389768E-005  0.9770441E+02  0.7546771E-02  0.1298413E+00
         21   -1    0    0  501  502  0.00000000000E+00  0.00000000000E+00  0.28123399278E+02  0.28123399278E+02  0.00000000000E+00 0. -1.
          4   -1    0    0  503    0 -0.00000000000E+00 -0.00000000000E+00 -0.95603204020E+03  0.95603204020E+03  0.00000000000E+00 0. -1.
         24    2    1    2    0    0 -0.46504809680E+01 -0.91320666806E+01 -0.52918615468E+03  0.53454426351E+03  0.74796802961E+02 0.  0.
         23    2    1    2    0    0 -0.40058765202E+02 -0.20356321563E+02 -0.24755321858E+03  0.26947190257E+03  0.96506091771E+02 0.  0.
        -11    1    3    3    0    0  0.27432763627E+02  0.94497818002E+01 -0.11141113451E+03  0.11512730254E+03  0.00000000000E+00 0.  1.
         12    1    3    3    0    0 -0.32083244595E+02 -0.18581848481E+02 -0.41777502016E+03  0.41941696097E+03  0.00000000000E+00 0. -1.
        -11    1    4    4    0    0  0.10883012552E+02  0.26290778702E+02 -0.30584995888E+02  0.41774238239E+02  0.00000000000E+00 0.  1.
         11    1    4    4    0    0 -0.50941777755E+02 -0.46647100265E+02 -0.21696822270E+03  0.22769766434E+03  0.00000000000E+00 0. -1.
         21    1    1    2  503  502  0.21609096104E+02 -0.37271507567E+00 -0.13870958126E+03  0.14038318946E+03  0.00000000000E+00 0. -1.
          3    1    1    2  501    0  0.23100150067E+02  0.29861103319E+02 -0.12459686406E+02  0.39756083935E+02  0.00000000000E+00 0. -1.
<scales pt_clust_5="13000.00000" pt_clust_6="13000.00000" pt_clust_7="13000.00000" pt_clust_8="13000.00000" pt_clust_9="21.61231" pt_clust_10="38.17056"></scales>
<clustering>
<clus scale="   21.612">  2  9  1 -1</clus>
<clus scale="   38.171">  1 10  2 -1</clus>
<clus scale="   74.797">  5  6 -1 -1</clus>
<clus scale="   76.337">  2  5  1 -1</clus>
<clus scale="   96.506">  7  8 -1 -1</clus>
<clus scale="   38.171">  1  5  2 -1</clus>
</clustering>
</event>
<event>
10    4  0.5389768E-005  0.1644948E+03  0.7546771E-02  0.1192651E+00
         21   -1    0    0  503  502  0.00000000000E+00  0.00000000000E+00  0.36164413488E+03  0.36164413488E+03  0.00000000000E+00 0.  1.
         -1   -1    0    0    0  501 -0.00000000000E+00 -0.00000000000E+00 -0.26200487076E+03  0.26200487076E+03  0.00000000000E+00 0.  1.
         24    2    1    2    0    0  0.20483050050E+02  0.10350701840E+03  0.79490569325E+02  0.15358231547E+03  0.78329552641E+02 0.  0.
         23    2    1    2    0    0  0.11060772222E+03 -0.63446386050E+02 -0.63833764743E+02  0.16858241711E+03  0.89920908142E+02 0.  0.
        -13    1    3    3    0    0 -0.28569862184E+02  0.53029538718E+02  0.28316969226E+02  0.66559895943E+02  0.00000000000E+00 0.  1.
         14    1    3    3    0    0  0.49052912234E+02  0.50477479683E+02  0.51173600099E+02  0.87022419530E+02  0.00000000000E+00 0. -1.
        -13    1    4    4    0    0 -0.83998432113E+01 -0.19351831406E+02 -0.30987489023E+02  0.37487000689E+02  0.00000000000E+00 0. -1.
         13    1    4    4    0    0  0.11900756543E+03 -0.44094554645E+02 -0.32846275720E+02  0.13109541642E+03  0.00000000000E+00 0.  1.
         21    1    1    2  503  501  0.79882562512E+01  0.20381983561E+02 -0.77161564019E+02  0.80206885326E+02  0.00000000000E+00 0. -1.
         -2    1    1    2    0  502 -0.13907902852E+03 -0.60442615912E+02  0.16114402356E+03  0.22127738773E+03  0.00000000000E+00 0.  1.
<scales pt_clust_5="13000.00000" pt_clust_6="13000.00000" pt_clust_7="13000.00000" pt_clust_8="13000.00000" pt_clust_9="21.89149" pt_clust_10="137.74173"></scales>
<clustering>
<clus scale="   21.891">  2  9  1 -1</clus>
<clus scale="   78.330">  5  6 -1 -1</clus>
<clus scale="   89.921">  7  8 -1 -1</clus>
<clus scale="  134.934">  2  5  1 -1</clus>
<clus scale="  137.742">  1 10  2 -1</clus>
<clus scale="  137.742">  1  5  2 -1</clus>
</clustering>
</event>
<event>
10    4  0.5389768E-005  0.1286976E+03  0.7546771E-02  0.1240202E+00
         21   -1    0    0  503  502  0.00000000000E+00  0.00000000000E+00  0.18666894761E+03  0.18666894761E+03  0.00000000000E+00 0.  1.
         -3   -1    0    0    0  501 -0.00000000000E+00 -0.00000000000E+00 -0.64452505109E+03  0.64452505109E+03  0.00000000000E+00 0.  1.
         23    2    1    2    0    0 -0.45725081302E+02 -0.36155123596E+02 -0.15185834083E+03  0.18695712690E+03  0.92163092373E+02 0.  0.
         24    2    1    2    0    0  0.70296928272E+01 -0.65470967615E+02 -0.99107736141E+01  0.10532045110E+03  0.81598466928E+02 0.  0.
        -13    1    4    4    0    0 -0.30952605766E+02 -0.55053545633E+02  0.46521793119E+01  0.63329293876E+02  0.00000000000E+00 0.  1.
         14    1    4    4    0    0  0.37982298593E+02 -0.10417421981E+02 -0.14562952926E+02  0.41991157225E+02  0.00000000000E+00 0. -1.
        -13    1    3    3    0    0 -0.40855956854E+02 -0.65391982035E+02 -0.91068129289E+02  0.11932612747E+03  0.00000000000E+00 0.  1.
         13    1    3    3    0    0 -0.48691244478E+01  0.29236858439E+02 -0.60790211541E+02  0.67630999427E+02  0.00000000000E+00 0. -1.
         21    1    1    2  503  501  0.52898936350E+02 -0.13471846879E+02 -0.38745225968E+03  0.39127872630E+03  0.00000000000E+00 0. -1.
         -4    1    1    2    0  502 -0.14203547875E+02  0.11509793809E+03  0.91365270650E+02  0.14763769439E+03  0.00000000000E+00 0.  1.
<scales pt_clust_5="13000.00000" pt_clust_6="13000.00000" pt_clust_7="13000.00000" pt_clust_8="13000.00000" pt_clust_9="54.58744" pt_clust_10="99.52269"></scales>
<clustering>
<clus scale="   54.587">  2  9  1 -1</clus>
<clus scale="   81.598">  5  6 -1 -1</clus>
<clus scale="   92.163">  7  8 -1 -1</clus>
<clus scale="  103.153">  2  7  1 -1</clus>
<clus scale="   99.523">  1 10  2 -1</clus>
<clus scale="   99.523">  1  5  2 -1</clus>
</clustering>
</event>
<event>
10    4  0.5389768E-005  0.1151427E+03  0.7546771E-02  0.1263299E+00
          2   -1    0    0  503    0 -0.00000000000E+00  0.00000000000E+00  0.14319982360E+04  0.14319982360E+04  0.00000000000E+00 0. -1.
         21   -1    0    0  501  502  0.00000000000E+00 -0.00000000000E+00 -0.23725466449E+02  0.23725466449E+02  0.00000000000E+00 0. -1.
         23    2    1    2    0    0  0.17555990623E+02 -0.15129110614E+02  0.53064394897E+03  0.53871305767E+03  0.89953627658E+02 0.  0.
         24    2    1    2    0    0  0.10613790647E+02 -0.78743157623E+02  0.23296444710E+03  0.25876766531E+03  0.79844433574E+02 0.  0.
        -11    1    4    4    0    0 -0.29413554406E+02 -0.28535211618E+02  0.48769375606E+02  0.63701393092E+02  0.00000000000E+00 0.  1.
         12    1    4    4    0    0  0.40027345054E+02 -0.50207946005E+02  0.18419507149E+03  0.19506627221E+03  0.00000000000E+00 0. -1.
        -11    1    3    3    0    0 -0.36758369824E+02 -0.11192288109E+02  0.22337268886E+03  0.22665348705E+03  0.00000000000E+00 0.  1.
         11    1    3    3    0    0  0.54314360447E+02 -0.39368225052E+01  0.30727126011E+03  0.31205957062E+03  0.00000000000E+00 0. -1.
         21    1    1    2  503  502 -0.39996122694E+02  0.42951601419E+01  0.26107213752E+03  0.26415298450E+03  0.00000000000E+00 0. -1.
          1    1    1    2  501    0  0.11826341423E+02  0.89577108096E+02  0.38359223599E+03  0.39408999500E+03  0.00000000000E+00 0. -1.
<scales pt_clust_5="13000.00000" pt_clust_6="13000.00000" pt_clust_7="13000.00000" pt_clust_8="13000.00000" pt_clust_9="40.22609" pt_clust_10="82.96219"></scales>
<clustering>
<clus scale="   40.226">  1  9  2 -1</clus>
<clus scale="   79.844">  5  6 -1 -1</clus>
<clus scale="   89.954">  7  8 -1 -1</clus>
<clus scale="   90.915">  1  7  2 -1</clus>
<clus scale="   82.962">  2 10  1 -1</clus>
<clus scale="   82.962">  2  5  1 -1</clus>
</clustering>
</event>
<event>
10    4  0.5389768E-005  0.1197650E+03  0.7546771E-02  0.1243879E+00
         21   -1    0    0  501  502  0.00000000000E+00  0.00000000000E+00  0.11472608755E+03  0.11472608755E+03  0.00000000000E+00 0. -1.
          2   -1    0    0  503    0 -0.00000000000E+00 -0.00000000000E+00 -0.36709208482E+03  0.36709208482E+03  0.00000000000E+00 0. -1.
         23    2    1    2    0    0  0.26924907918E+02  0.38732396388E+02 -0.74685057399E+02  0.12795594195E+03  0.92572761038E+02 0.  0.
         24    2    1    2    0    0 -0.33688455884E+02 -0.12585741337E+03 -0.32905914741E+02  0.16248498694E+03  0.91343150781E+02 0.  0.
        -13    1    4    4    0    0 -0.24410719243E+02  0.50443569178E+01  0.59432025671E+01  0.25625190876E+02  0.00000000000E+00 0.  1.
         14    1    4    4    0    0 -0.92777366412E+01 -0.13090177029E+03 -0.38849117308E+02  0.13685979606E+03  0.00000000000E+00 0. -1.
        -13    1    3    3    0    0  0.11261966333E+01  0.27714029600E+02 -0.91253254605E+02  0.95375532667E+02  0.00000000000E+00 0. -1.
         13    1    3    3    0    0  0.25798711285E+02  0.11018366788E+02  0.16568197206E+02  0.32580409287E+02  0.00000000000E+00 0.  1.
         21    1    1    2  503  502  0.20395151548E+02  0.12584093344E+02 -0.10112798540E+03  0.10392877871E+03  0.00000000000E+00 0. -1.
          1    1    1    2  501    0 -0.13631603582E+02  0.74540923642E+02 -0.43647039734E+02  0.87448464773E+02  0.00000000000E+00 0. -1.
<scales pt_clust_5="13000.00000" pt_clust_6="13000.00000" pt_clust_7="13000.00000" pt_clust_8="13000.00000" pt_clust_9="23.96501" pt_clust_10="78.13115"></scales>
<clustering>
<clus scale="   23.965">  2  9  1 -1</clus>
<clus scale="   78.131">  1 10  2 -1</clus>
<clus scale="   91.343">  5  6 -1 -1</clus>
<clus scale="   92.573">  7  8 -1 -1</clus>
<clus scale="  118.817">  1  5  2 -1</clus>
<clus scale="   78.131">  1  5  2 -1</clus>
</clustering>
</event>
<event>
10    4  0.5389768E-005  0.1315448E+03  0.7546771E-02  0.1235545E+00
          2   -1    0    0  503    0 -0.00000000000E+00  0.00000000000E+00  0.81873863115E+03  0.81873863115E+03  0.00000000000E+00 0. -1.
         21   -1    0    0  501  502  0.00000000000E+00 -0.00000000000E+00 -0.83770657291E+02  0.83770657291E+02  0.00000000000E+00 0. -1.
         24    2    1    2    0    0 -0.59842501693E+02  0.20299058407E+02  0.80298252469E+02  0.13315223518E+03  0.85372897363E+02 0.  0.
         23    2    1    2    0    0 -0.12625362399E+02 -0.74797130678E+02  0.19110328653E+03  0.22429745045E+03  0.89637434270E+02 0.  0.
        -13    1    3    3    0    0 -0.18522776270E+02  0.97809262460E+01 -0.16964286318E+02  0.26954531516E+02  0.00000000000E+00 0.  1.
         14    1    3    3    0    0 -0.41319725423E+02  0.10518132161E+02  0.97262538787E+02  0.10619770367E+03  0.00000000000E+00 0. -1.
        -11    1    4    4    0    0 -0.48351982789E+02 -0.21586668133E+02  0.95520545019E+02  0.10921571774E+03  0.00000000000E+00 0.  1.
         11    1    4    4    0    0  0.35726620390E+02 -0.53210462545E+02  0.95582741509E+02  0.11508173271E+03  0.00000000000E+00 0. -1.
         21    1    1    2  503  502  0.11161465605E+03 -0.47405373113E+02  0.40165472740E+03  0.41956122424E+03  0.00000000000E+00 0. -1.
          1    1    1    2  501    0 -0.39146791958E+02  0.10190344538E+03  0.61911707464E+02  0.12549837857E+03  0.00000000000E+00 0. -1.
<scales pt_clust_5="13000.00000" pt_clust_6="13000.00000" pt_clust_7="13000.00000" pt_clust_8="13000.00000" pt_clust_9="84.96771" pt_clust_10="96.27652"></scales>
<clustering>
<clus scale="   85.373">  5  6 -1 -1</clus>
<clus scale="   89.637">  7  8 -1 -1</clus>
<clus scale="  106.215">  1  5  2 -1</clus>
<clus scale="   84.968">  1  9  2 -1</clus>
<clus scale="   96.277">  2 10  1 -1</clus>
<clus scale="   96.277">  2  5  1 -1</clus>
</clustering>
</event>
<event>
10    4  0.5389768E-005  0.1053626E+03  0.7546771E-02  0.1275985E+00
         -1   -1    0    0    0  501 -0.00000000000E+00  0.00000000000E+00  0.58674301285E+03  0.58674301285E+03  0.00000000000E+00 0.  1.
         21   -1    0    0  503  502  0.00000000000E+00 -0.00000000000E+00 -0.36061284510E+02  0.36061284510E+02  0.00000000000E+00 0. -1.
         24    2    1    2    0    0  0.48249657302E+02 -0.37203652492E+02  0.18990985101E+03  0.21460738587E+03  0.79236591121E+02 0.  0.
         23    2    1    2    0    0 -0.14884780990E+02  0.31868262593E+02  0.11081579761E+03  0.14926494285E+03  0.93609504308E+02 0.  0.
        -13    1    3    3    0    0  0.10645553397E+02 -0.47947362749E+02  0.15352735025E+03  0.16119219794E+03  0.00000000000E+00 0.  1.
         14    1    3    3    0    0  0.37604103904E+02  0.10743710257E+02  0.36382500760E+02  0.53415187935E+02  0.00000000000E+00 0. -1.
        -11    1    4    4    0    0  0.21632146851E+01  0.57606615979E+02  0.35088181266E+02  0.67486162781E+02  0.00000000000E+00 0. -1.
         11    1    4    4    0    0 -0.17047995675E+02 -0.25738353386E+02  0.75727616346E+02  0.81778780065E+02  0.00000000000E+00 0.  1.
         21    1    1    2  503  501  0.55594059114E+01  0.22170710123E+02  0.57879195702E+02  0.62229001893E+02  0.00000000000E+00 0.  1.
         -2    1    1    2    0  502 -0.38924282223E+02 -0.16835320223E+02  0.19207688402E+03  0.19670296675E+03  0.00000000000E+00 0.  1.
<scales pt_clust_5="13000.00000" pt_clust_6="13000.00000" pt_clust_7="13000.00000" pt_clust_8="13000.00000" pt_clust_9="22.85711" pt_clust_10="37.87405"></scales>
<clustering>
<clus scale="   22.857">  1  9  2 -1</clus>
<clus scale="   37.874">  2 10  1 -1</clus>
<clus scale="   79.237">  5  6 -1 -1</clus>
<clus scale="   92.828">  1  5  2 -1</clus>
<clus scale="   93.610">  7  8 -1 -1</clus>
<clus scale="   37.874">  2  5  1 -1</clus>
</clustering>
</event>
<event>
10    4  0.5389768E-005  0.1160509E+03  0.7546771E-02  0.1254086E+00
         -3   -1    0    0    0  501 -0.00000000000E+00  0.00000000000E+00  0.23312665575E+03  0.23312665575E+03  0.00000000000E+00 0.  1.
         21   -1    0    0  503  502  0.00000000000E+00 -0.00000000000E+00 -0.38212984228E+03  0.38212984228E+03  0.00000000000E+00 0. -1.
         23    2    1    2    0    0 -0.80045401569E+02 -0.14937258447E+02 -0.27632205653E+02  0.12660473480E+03  0.92923797174E+02 0.  0.
         24    2    1    2    0    0  0.43023200762E+02 -0.53908265395E+01 -0.27664725819E+03  0.29140297566E+03  0.80634558006E+02 0.  0.
        -13    1    4    4    0    0  0.23987523967E+02 -0.28054272872E+02 -0.46541796729E+02  0.59401871816E+02  0.00000000000E+00 0.  1.
         14    1    4    4    0    0  0.19035676795E+02  0.22663446332E+02 -0.23010546147E+03  0.23200110385E+03  0.00000000000E+00 0. -1.
        -11    1    3    3    0    0 -0.21720837047E+02  0.38025301801E+02 -0.23122252790E+01  0.43852761884E+02  0.00000000000E+00 0. -1.
         11    1    3    3    0    0 -0.58324564522E+02 -0.52962560248E+02 -0.25319980374E+02  0.82751972912E+02  0.00000000000E+00 0.  1.
         21    1    1    2  503  501  0.55628462484E+01  0.30696294882E+02  0.16068581784E+03  0.16368610152E+03  0.00000000000E+00 0.  1.
         -4    1    1    2    0  502  0.31459354559E+02 -0.10368209896E+02 -0.54095405227E+01  0.33562686042E+02  0.00000000000E+00 0.  1.
<scales pt_clust_5="13000.00000" pt_clust_6="13000.00000" pt_clust_7="13000.00000" pt_clust_8="13000.00000" pt_clust_9="31.19628" pt_clust_10="32.84290"></scales>
<clustering>
<clus scale="   31.196">  1  9  2 -1</clus>
<clus scale="   32.843">  2 10  1 -1</clus>
<clus scale="   80.635">  5  6 -1 -1</clus>
<clus scale="   92.924">  7  8 -1 -1</clus>
<clus scale="  106.466">  2  5  1 -1</clus>
<clus scale="   32.843">  2  5  1 -1</clus>
</clustering>
</event>
<event>
10    4  0.5389768E-005  0.1881803E+03  0.7546771E-02  0.1186056E+00
         21   -1    0    0  501  502  0.00000000000E+00  0.00000000000E+00  0.15493469238E+03  0.15493469238E+03  0.00000000000E+00 0. -1.
          2   -1    0    0  503    0 -0.00000000000E+00 -0.00000000000E+00 -0.10404453699E+04  0.10404453699E+04  0.00000000000E+00 0. -1.
         23    2    1    2    0    0  0.17071059627E+02 -0.47495118394E+02 -0.75382203683E+02  0.12867485767E+03  0.91255328705E+02 0.  0.
         24    2    1    2    0    0 -0.11959264133E+03 -0.19982737873E+02 -0.97876544287E+02  0.17324471987E+03  0.75711329185E+02 0.  0.
        -13    1    4    4    0    0 -0.13506574194E+02 -0.23313575969E+02  0.26286503523E+01  0.27071390315E+02  0.00000000000E+00 0.  1.
         14    1    4    4    0    0 -0.10608606713E+03  0.33308380954E+01 -0.10050519464E+03  0.14617332955E+03  0.00000000000E+00 0. -1.
        -13    1    3    3    0    0  0.38594119128E+02  0.85210619947E+01 -0.49445901458E+02  0.63300961287E+02  0.00000000000E+00 0.  1.
         13    1    3    3    0    0 -0.21523059502E+02 -0.56016180389E+02 -0.25936302225E+02  0.65373896386E+02  0.00000000000E+00 0. -1.
         21    1    1    2  503  502 -0.10915680530E+03 -0.68765852506E+02 -0.60708470994E+03  0.62064143888E+03  0.00000000000E+00 0. -1.
          1    1    1    2  501    0  0.21167838700E+03  0.13624370877E+03 -0.10516721960E+03  0.27281904586E+03  0.00000000000E+00 0. -1.
<scales pt_clust_5="13000.00000" pt_clust_6="13000.00000" pt_clust_7="13000.00000" pt_clust_8="13000.00000" pt_clust_9="139.88911" pt_clust_10="172.27783"></scales>
<clustering>
<clus scale="   75.711">  5  6 -1 -1</clus>
<clus scale="   91.255">  7  8 -1 -1</clus>
<clus scale="  104.282">  2  7  1 -1</clus>
<clus scale="  139.889">  2  9  1 -1</clus>
<clus scale="  172.278">  1 10  2 -1</clus>
<clus scale="  172.278">  1  5  2 -1</clus>
</clustering>
</event>
<event>
10    4  0.5389768E-005  0.9992760E+02  0.7546771E-02  0.1287703E+00
          2   -1    0    0  503    0 -0.00000000000E+00  0.00000000000E+00  0.20673948024E+03  0.20673948024E+03  0.00000000000E+00 0. -1.
         21   -1    0    0  501  502  0.00000000000E+00 -0.00000000000E+00 -0.13825744266E+03  0.13825744266E+03  0.00000000000E+00 0. -1.
         24    2    1    2    0    0  0.10483385319E+02  0.81033219579E+01  0.45023125976E+02  0.91732661317E+02  0.78817726973E+02 0.  0.
         23    2    1    2    0    0 -0.92016054605E+01  0.83722855389E+02 -0.36603986097E+02  0.13054530555E+03  0.92779517924E+02 0.  0.
        -13    1    3    3    0    0  0.31213912842E+02  0.34322799985E+02  0.23836400459E+02  0.52158766670E+02  0.00000000000E+00 0.  1.
         14    1    3    3    0    0 -0.20730527523E+02 -0.26219478027E+02  0.21186725517E+02  0.39573894647E+02  0.00000000000E+00 0. -1.
        -11    1    4    4    0    0  0.40201450272E+02  0.53460203709E+02 -0.13886739588E+02  0.68315382756E+02  0.00000000000E+00 0. -1.
         11    1    4    4    0    0 -0.49403055733E+02  0.30262651680E+02 -0.22717246509E+02  0.62229922797E+02  0.00000000000E+00 0.  1.
         21    1    1    2  503  502 -0.59732675493E+01 -0.59340080922E+02  0.66440557228E+02  0.89281984598E+02  0.00000000000E+00 0. -1.
          1    1    1    2  501    0  0.46914876904E+01 -0.32486096425E+02 -0.63776595205E+01  0.33436971434E+02  0.00000000000E+00 0. -1.
<scales pt_clust_5="13000.00000" pt_clust_6="13000.00000" pt_clust_7="13000.00000" pt_clust_8="13000.00000" pt_clust_9="62.71840" pt_clust_10="32.82311"></scales>
<clustering>
<clus scale="   32.823">  2 10  1 -1</clus>
<clus scale="   62.718">  1  9  2 -1</clus>
<clus scale="   78.818">  5  6 -1 -1</clus>
<clus scale="   87.119">  1  5  2 -1</clus>
<clus scale="   92.780">  7  8 -1 -1</clus>
<clus scale="   32.823">  2  5  1 -1</clus>
</clustering>
</event>
<event>
10    4  0.5389768E-005  0.2963964E+03  0.7546771E-02  0.1087531E+00
          2   -1    0    0  503    0 -0.00000000000E+00  0.00000000000E+00  0.12030029761E+04  0.12030029761E+04  0.00000000000E+00 0. -1.
         21   -1    0    0  501  502  0.00000000000E+00 -0.00000000000E+00 -0.11143238872E+03  0.11143238872E+03  0.00000000000E+00 0.  1.
         24    2    1    2    0    0  0.38748687065E+01 -0.29443068227E+03  0.65511174847E+03  0.72290639980E+03  0.81962299983E+02 0.  0.
         23    2    1    2    0    0 -0.13335142331E+02  0.26608842626E+03  0.40254057860E+03  0.49186060202E+03  0.94377210097E+02 0.  0.
        -11    1    3    3    0    0 -0.29895994395E+02 -0.10518232352E+03  0.18336086266E+03  0.21349074363E+03  0.00000000000E+00 0.  1.
         12    1    3    3    0    0  0.33770863102E+02 -0.18924835875E+03  0.47175088581E+03  0.50941565617E+03  0.00000000000E+00 0. -1.
        -13    1    4    4    0    0 -0.38712026591E+02  0.44281449280E+02  0.71678664984E+02  0.92721619739E+02  0.00000000000E+00 0. -1.
         13    1    4    4    0    0  0.25376884260E+02  0.22180697698E+03  0.33086191362E+03  0.39913898228E+03  0.00000000000E+00 0.  1.
         21    1    1    2  503  502  0.19075533453E+02  0.94866530236E+01  0.61394067093E+02  0.64985414028E+02  0.00000000000E+00 0.  1.
          1    1    1    2  501    0 -0.96152598288E+01  0.18855602985E+02 -0.27475806831E+02  0.34682948931E+02  0.00000000000E+00 0. -1.
<scales pt_clust_5="13000.00000" pt_clust_6="13000.00000" pt_clust_7="13000.00000" pt_clust_8="13000.00000" pt_clust_9="21.30477" pt_clust_10="21.16570"></scales>
<clustering>
<clus scale="   21.166">  2 10  1 -1</clus>
<clus scale="   21.305">  1  9  2 -1</clus>
<clus scale="   81.962">  5  6 -1 -1</clus>
<clus scale="   94.377">  7  8 -1 -1</clus>
<clus scale="  292.680">  1  5  2 -1</clus>
<clus scale="   21.166">  2  5  1 -1</clus>
</clustering>
</event>
<event>
10    4  0.5389768E-005  0.1204743E+03  0.7546771E-02  0.1246385E+00
         21   -1    0    0  501  502  0.00000000000E+00  0.00000000000E+00  0.18207536840E+02  0.18207536840E+02  0.00000000000E+00 0. -1.
          2   -1    0    0  503    0 -0.00000000000E+00 -0.00000000000E+00 -0.15328292677E+04  0.15328292677E+04  0.00000000000E+00 0. -1.
         23    2    1    2    0    0  0.70297081412E+02  0.72679885297E+01 -0.59948154805E+03  0.61078517474E+03  0.93198175535E+02 0.  0.
         24    2    1    2    0    0 -0.75601225872E+02 -0.32597948597E+02 -0.37324600712E+03  0.39061550606E+03  0.80558799284E+02 0.  0.
        -11    1    4    4    0    0 -0.28076349385E+02 -0.46587988960E+02 -0.27783193917E+03  0.28310653213E+03  0.00000000000E+00 0.  1.
         12    1    4    4    0    0 -0.47524876488E+02  0.13990040364E+02 -0.95414067946E+02  0.10750897393E+03  0.00000000000E+00 0. -1.
        -11    1    3    3    0    0  0.71585686622E+01 -0.37452307866E+02 -0.15509981606E+03  0.15971810609E+03  0.00000000000E+00 0. -1.
         11    1    3    3    0    0  0.63138512750E+02  0.44720296396E+02 -0.44438173199E+03  0.45106706866E+03  0.00000000000E+00 0.  1.
         21    1    1    2  503  502  0.18241037478E+02 -0.29280330414E+02 -0.16322250857E+03  0.16682823653E+03  0.00000000000E+00 0.  1.
          1    1    1    2  501    0 -0.12936893018E+02  0.54610290481E+02 -0.37867166708E+03  0.38280788716E+03  0.00000000000E+00 0. -1.
<scales pt_clust_5="13000.00000" pt_clust_6="13000.00000" pt_clust_7="13000.00000" pt_clust_8="13000.00000" pt_clust_9="34.49744" pt_clust_10="47.11996"></scales>
<clustering>
<clus scale="   34.497">  2  9  1 -1</clus>
<clus scale="   47.120">  1 10  2 -1</clus>
<clus scale="   80.559">  5  6 -1 -1</clus>
<clus scale="   93.198">  7  8 -1 -1</clus>
<clus scale="  110.986">  1  5  2 -1</clus>
<clus scale="   47.120">  1  5  2 -1</clus>
</clustering>
</event>
<event>
10    4  0.5389768E-005  0.1400116E+03  0.7546771E-02  0.1220744E+00
         21   -1    0    0  501  502  0.00000000000E+00  0.00000000000E+00  0.17712945571E+03  0.17712945571E+03  0.00000000000E+00 0.  1.
          2   -1    0    0  503    0 -0.00000000000E+00 -0.00000000000E+00 -0.44922851956E+03  0.44922851956E+03  0.00000000000E+00 0. -1.
         23    2    1    2    0    0  0.29245869204E+02  0.99802418184E+02 -0.24954911887E+03  0.29132362955E+03  0.10853041447E+03 0.  0.
         24    2    1    2    0    0 -0.52961239709E+02 -0.51506709388E+02  0.96380975571E+01  0.10978291742E+03  0.80632264076E+02 0.  0.
        -11    1    4    4    0    0 -0.36175861186E+01 -0.42383994163E+02  0.33569493619E+02  0.54188566990E+02  0.00000000000E+00 0.  1.
         12    1    4    4    0    0 -0.49343653590E+02 -0.91227152254E+01 -0.23931396062E+02  0.55594350434E+02  0.00000000000E+00 0. -1.
        -13    1    3    3    0    0  0.48669122319E+02  0.53892614160E+01 -0.51498713742E+02  0.71062262299E+02  0.00000000000E+00 0.  1.
         13    1    3    3    0    0 -0.19423253115E+02  0.94413156768E+02 -0.19805040513E+03  0.22026136725E+03  0.00000000000E+00 0. -1.
         21    1    1    2  503  502 -0.27089742464E+02 -0.22970127711E+01 -0.11476361891E+03  0.11793989418E+03  0.00000000000E+00 0.  1.
          1    1    1    2  501    0  0.50805112969E+02 -0.45998696024E+02  0.82575576373E+02  0.10731153411E+03  0.00000000000E+00 0. -1.
<scales pt_clust_5="13000.00000" pt_clust_6="13000.00000" pt_clust_7="13000.00000" pt_clust_8="13000.00000" pt_clust_9="27.18695" pt_clust_10="67.85012"></scales>
<clustering>
<clus scale="   27.187">  2  9  1 -1</clus>
<clus scale="   67.850">  1 10  2 -1</clus>
<clus scale="   80.632">  5  6 -1 -1</clus>
<clus scale="  108.530">  7  8 -1 -1</clus>
<clus scale="  119.691">  1  5  2 -1</clus>
<clus scale="   67.850">  1  5  2 -1</clus>
</clustering>
</event>
<event>
10    4  0.5389768E-005  0.2272129E+03  0.7546771E-02  0.1132184E+00
          2   -1    0    0  502    0 -0.00000000000E+00  0.00000000000E+00  0.74529471835E+03  0.74529471835E+03  0.00000000000E+00 0. -1.
         21   -1    0    0  503  502  0.00000000000E+00 -0.00000000000E+00 -0.21170751023E+03  0.21170751023E+03  0.00000000000E+00 0.  1.
         23    2    1    2    0    0 -0.10907335713E+03  0.15192273609E+03 -0.24499264147E+02  0.20960322100E+03  0.91409962988E+02 0.  0.
         24    2    1    2    0    0  0.23731807519E+03  0.28695101652E+02  0.34747534144E+03  0.42937120093E+03  0.80481287340E+02 0.  0.
        -11    1    4    4    0    0  0.15451642819E+03  0.42479384123E+02  0.27587784853E+03  0.31904296257E+03  0.00000000000E+00 0.  1.
         12    1    4    4    0    0  0.82801647006E+02 -0.13784282471E+02  0.71597492910E+02  0.11032823837E+03  0.00000000000E+00 0. -1.
        -11    1    3    3    0    0 -0.40158828911E+02  0.90584103359E+02  0.28630176030E+02  0.10314018761E+03  0.00000000000E+00 0. -1.
         11    1    3    3    0    0 -0.68914528222E+02  0.61338632729E+02 -0.53129440177E+02  0.10646303339E+03  0.00000000000E+00 0.  1.
         21    1    1    2  503  501 -0.32680865259E+02 -0.12108866287E+03  0.11873944358E+03  0.17271235825E+03  0.00000000000E+00 0. -1.
          1    1    1    2  501    0 -0.95563852800E+02 -0.59529174871E+02  0.91871687246E+02  0.14531544839E+03  0.00000000000E+00 0. -1.
<scales pt_clust_5="13000.00000" pt_clust_6="13000.00000" pt_clust_7="13000.00000" pt_clust_8="13000.00000" pt_clust_9="83.22099" pt_clust_10="83.22099"></scales>
<clustering>
<clus scale="   80.481">  5  6 -1 -1</clus>
<clus scale="   83.221">  9 10 -1 -1</clus>
<clus scale="   91.410">  7  8 -1 -1</clus>
<clus scale="  208.167">  1  7  2 -1</clus>
<clus scale="  224.472">  1  5  2 -1</clus>
<clus scale="  227.213">  2  5  1 -1</clus>
</clustering>
</event>
