<event>
 9    1  0.9171696E-005  0.9075706E+02  0.7546771E-02  0.1307581E+00
         -2   -1    0    0    0  501 -0.00000000000E+00  0.00000000000E+00  0.48590265021E+02  0.48590265021E+02  0.00000000000E+00 0.  1.
         21   -1    0    0  501  502  0.00000000000E+00 -0.00000000000E+00 -0.42733863927E+03  0.42733863927E+03  0.00000000000E+00 0. -1.
         23    2    1    2    0    0 -0.99990720475E+01  0.12845872907E+02 -0.42935791323E+02  0.10097765764E+03  0.89933349060E+02 0.  0.
        -24    2    1    2    0    0 -0.51185979835E+02 -0.81976848180E+01 -0.26362936919E+03  0.28021143152E+03  0.79566296167E+02 0.  0.
         13    1    4    4    0    0 -0.59431143281E+02 -0.25412734957E+02 -0.24557137500E+03  0.25393536207E+03  0.00000000000E+00 0. -1.
        -14    1    4    4    0    0  0.82451634459E+01  0.17215050140E+02 -0.18057994192E+02  0.26276069451E+02  0.00000000000E+00 0.  1.
        -11    1    3    3    0    0 -0.38895820824E+02 -0.20887409555E+02 -0.33867879647E+02  0.55643526373E+02  0.00000000000E+00 0.  1.
         11    1    3    3    0    0  0.28896748776E+02  0.33733282461E+02 -0.90679116761E+01  0.45334131266E+02  0.00000000000E+00 0. -1.
         -1    1    1    2    0  502  0.61185051882E+02 -0.46481880887E+01 -0.72183213731E+02  0.94739815130E+02  0.00000000000E+00 0.  1.
<scales pt_clust_5="13000.00000" pt_clust_6="13000.00000" pt_clust_7="13000.00000" pt_clust_8="13000.00000" pt_clust_9="61.36139"></scales>
<clustering>
<clus scale="   61.361">  2  9  1 -1</clus>
<clus scale="   79.566">  5  6 -1 -1</clus>
<clus scale="   80.496">  2  5  1 -1</clus>
<clus scale="   89.933">  7  8 -1 -1</clus>
<clus scale="   61.361">  2  5  1 -1</clus>
</clustering>
</event>
<event>
 9    1  0.9171696E-005  0.1562427E+03  0.7546771E-02  0.1194887E+00
         21   -1    0    0  501  502  0.00000000000E+00  0.00000000000E+00  0.65662786601E+03  0.65662786601E+03  0.00000000000E+00 0.  1.
          3   -1    0    0  502    0 -0.00000000000E+00 -0.00000000000E+00 -0.63390453969E+02  0.63390453969E+02  0.00000000000E+00 0. -1.
         23    2    1    2    0    0 -0.83294844861E+02 -0.10017310934E+03  0.76182010043E+02  0.17659332621E+03  0.91699624815E+02 0.  0.
        -24    2    1    2    0    0  0.63516094419E+02  0.96069218116E+02  0.38496460819E+03  0.40979857909E+03  0.80458293202E+02 0.  0.
         13    1    4    4    0    0 -0.77831585232E+01  0.30165954859E+02  0.36143105218E+02  0.47716731279E+02  0.00000000000E+00 0. -1.
        -14    1    4    4    0    0  0.71299252942E+02  0.65903263258E+02  0.34882150297E+03  0.36208184781E+03  0.00000000000E+00 0.  1.
        -11    1    3    3    0    0 -0.68806193941E+02 -0.11719777279E+03  0.72183300327E+02  0.15388319960E+03  0.00000000000E+00 0. -1.
         11    1    3    3    0    0 -0.14488650919E+02  0.17024663454E+02  0.39987097166E+01  0.22710126608E+02  0.00000000000E+00 0.  1.
          4    1    1    2  501    0  0.19778750442E+02  0.41038912239E+01  0.13209079381E+03  0.13362641468E+03  0.00000000000E+00 0. -1.
<scales pt_clust_5="13000.00000" pt_clust_6="13000.00000" pt_clust_7="13000.00000" pt_clust_8="13000.00000" pt_clust_9="20.20002"></scales>
<clustering>
<clus scale="   20.200">  1  9  2 -1</clus>
<clus scale="   80.458">  5  6 -1 -1</clus>
<clus scale="   91.700">  7  8 -1 -1</clus>
<clus scale="  149.922">  1  5  2 -1</clus>
<clus scale="   20.200">  1  5  2 -1</clus>
</clustering>
</event>
<event>
 9    1  0.9171696E-005  0.1835038E+03  0.7546771E-02  0.1165676E+00
          1   -1    0    0  502    0 -0.00000000000E+00  0.00000000000E+00  0.63678983764E+03  0.63678983764E+03  0.00000000000E+00 0. -1.
         21   -1    0    0  501  502  0.00000000000E+00 -0.00000000000E+00 -0.88579360705E+02  0.88579360705E+02  0.00000000000E+00 0. -1.
         23    2    1    2    0    0  0.99158910641E+02  0.13703396940E+03  0.33734037445E+03  0.38798789900E+03  0.90140352859E+02 0.  0.
        -24    2    1    2    0    0 -0.34407515175E+02 -0.14312394816E+03  0.68135039273E+02  0.18052745231E+03  0.79242891313E+02 0.  0.
         13    1    4    4    0    0 -0.31626402708E+02 -0.15327461001E+03  0.61940624999E+02  0.16831511057E+03  0.00000000000E+00 0. -1.
        -14    1    4    4    0    0 -0.27811124671E+01  0.10150661849E+02  0.61944142744E+01  0.12212341738E+02  0.00000000000E+00 0.  1.
        -13    1    3    3    0    0  0.76862396947E+02  0.14602262428E+03  0.26942703183E+03  0.31594518567E+03  0.00000000000E+00 0. -1.
         13    1    3    3    0    0  0.22296513694E+02 -0.89886548819E+01  0.67913342612E+02  0.72042713332E+02  0.00000000000E+00 0.  1.
          2    1    1    2  501    0 -0.64751395466E+02  0.60899787605E+01  0.14273506321E+03  0.15685384703E+03  0.00000000000E+00 0. -1.
<scales pt_clust_5="13000.00000" pt_clust_6="13000.00000" pt_clust_7="13000.00000" pt_clust_8="13000.00000" pt_clust_9="65.03718"></scales>
<clustering>
<clus scale="   65.037">  2  9  1 -1</clus>
<clus scale="   79.243">  5  6 -1 -1</clus>
<clus scale="   90.140">  7  8 -1 -1</clus>
<clus scale="  178.403">  2  5  1 -1</clus>
<clus scale="   65.037">  2  5  1 -1</clus>
</clustering>
</event>
<event>
 9    1  0.9171696E-005  0.1068971E+03  0.7546771E-02  0.1270171E+00
          1   -1    0    0  502    0 -0.00000000000E+00  0.00000000000E+00  0.66989838166E+03  0.66989838166E+03  0.00000000000E+00 0. -1.
         21   -1    0    0  501  502  0.00000000000E+00 -0.00000000000E+00 -0.54063859159E+02  0.54063859159E+02  0.00000000000E+00 0. -1.
        -24    2    1    2    0    0  0.59442918378E+02  0.49107816786E+02  0.49447749456E+03  0.50704023737E+03  0.81466382439E+02 0.  0.
         23    2    1    2    0    0  0.57559470033E+01  0.78806249256E+01  0.79154860662E+02  0.12059133617E+03  0.90451883441E+02 0.  0.
         11    1    3    3    0    0  0.27157915649E+02  0.68528564696E+02  0.35436285210E+03  0.36194854262E+03  0.00000000000E+00 0. -1.
        -12    1    3    3    0    0  0.32285002729E+02 -0.19420747910E+02  0.14011464247E+03  0.14509169475E+03  0.00000000000E+00 0.  1.
        -13    1    4    4    0    0 -0.36723960818E+02  0.13369862495E+02  0.64318814867E+02  0.75261626791E+02  0.00000000000E+00 0.  1.
         13    1    4    4    0    0  0.42479907822E+02 -0.54892375697E+01  0.14836045795E+02  0.45329709380E+02  0.00000000000E+00 0. -1.
          2    1    1    2  501    0 -0.65198865381E+02 -0.56988441711E+02  0.42202167278E+02  0.96330667280E+02  0.00000000000E+00 0. -1.
<scales pt_clust_5="13000.00000" pt_clust_6="13000.00000" pt_clust_7="13000.00000" pt_clust_8="13000.00000" pt_clust_9="86.59431"></scales>
<clustering>
<clus scale="   81.466">  5  6 -1 -1</clus>
<clus scale="   86.594">  2  9  1 -1</clus>
<clus scale="   90.452">  7  8 -1 -1</clus>
<clus scale="   99.409">  1  5  2 -1</clus>
<clus scale="   86.594">  2  5  1 -1</clus>
</clustering>
</event>
<event>
 9    1  0.9171696E-005  0.2636684E+03  0.7546771E-02  0.1105452E+00
         21   -1    0    0  501  502  0.00000000000E+00  0.00000000000E+00  0.10681944171E+03  0.10681944171E+03  0.00000000000E+00 0. -1.
          1   -1    0    0  502    0 -0.00000000000E+00 -0.00000000000E+00 -0.94181964533E+03  0.94181964533E+03  0.00000000000E+00 0. -1.
        -24    2    1    2    0    0  0.24126304885E+03 -0.83770571319E+02 -0.50319398023E+03  0.56988396980E+03  0.79612749886E+02 0.  0.
         23    2    1    2    0    0 -0.22540948658E+03  0.56073355195E+02 -0.14284760848E+03  0.28712049259E+03  0.89883703814E+02 0.  0.
         13    1    3    3    0    0  0.11694507835E+03 -0.80662161953E+02 -0.29384222103E+03  0.32638288340E+03  0.00000000000E+00 0. -1.
        -14    1    3    3    0    0  0.12431797050E+03 -0.31084093665E+01 -0.20935175920E+03  0.24350108640E+03  0.00000000000E+00 0.  1.
        -11    1    4    4    0    0 -0.69128160320E+02  0.29352933958E+02 -0.21307626871E+01  0.75132133144E+02  0.00000000000E+00 0. -1.
         11    1    4    4    0    0 -0.15628132626E+03  0.26720421237E+02 -0.14071684580E+03  0.21198835944E+03  0.00000000000E+00 0.  1.
          2    1    1    2  501    0 -0.15853562268E+02  0.27697216124E+02 -0.18895861491E+03  0.19163462465E+03  0.00000000000E+00 0. -1.
<scales pt_clust_5="13000.00000" pt_clust_6="13000.00000" pt_clust_7="13000.00000" pt_clust_8="13000.00000" pt_clust_9="31.91351"></scales>
<clustering>
<clus scale="   31.914">  1  9  2 -1</clus>
<clus scale="   79.613">  5  6 -1 -1</clus>
<clus scale="   89.884">  7  8 -1 -1</clus>
<clus scale="  260.346">  2  5  1 -1</clus>
<clus scale="   31.914">  1  5  2 -1</clus>
</clustering>
</event>
<event>
 9    1  0.9171696E-005  0.9587634E+02  0.7546771E-02  0.1294575E+00
         -4   -1    0    0    0  501 -0.00000000000E+00  0.00000000000E+00  0.20555760088E+03  0.20555760088E+03  0.00000000000E+00 0.  1.
         21   -1    0    0  501  502  0.00000000000E+00 -0.00000000000E+00 -0.81456819020E+02  0.81456819020E+02  0.00000000000E+00 0.  1.
        -24    2    1    2    0    0  0.25136321603E+02 -0.30446129717E+02  0.12851385338E+03  0.15634429007E+03  0.79805545223E+02 0.  0.
         23    2    1    2    0    0  0.10606671271E+00  0.13484632939E+02 -0.24884722073E+02  0.94010083227E+02  0.89648200094E+02 0.  0.
         13    1    3    3    0    0 -0.37865518602E+01 -0.27876408213E+02  0.39111062352E+01  0.28402972764E+02  0.00000000000E+00 0. -1.
        -14    1    3    3    0    0  0.28922873463E+02 -0.25697215038E+01  0.12460274714E+03  0.12794131730E+03  0.00000000000E+00 0.  1.
        -11    1    4    4    0    0 -0.69821430930E+01 -0.38017233918E+02 -0.11494725826E+02  0.40326035247E+02  0.00000000000E+00 0.  1.
         11    1    4    4    0    0  0.70882098057E+01  0.51501866857E+02 -0.13389996246E+02  0.53684047979E+02  0.00000000000E+00 0. -1.
         -3    1    1    2    0  502 -0.25242388316E+02  0.16961496778E+02  0.20471650558E+02  0.36660046609E+02  0.00000000000E+00 0.  1.
<scales pt_clust_5="13000.00000" pt_clust_6="13000.00000" pt_clust_7="13000.00000" pt_clust_8="13000.00000" pt_clust_9="30.41170"></scales>
<clustering>
<clus scale="   30.412">  2  9  1 -1</clus>
<clus scale="   79.806">  5  6 -1 -1</clus>
<clus scale="   86.743">  1  5  2 -1</clus>
<clus scale="   89.648">  7  8 -1 -1</clus>
<clus scale="   30.412">  2  5  1 -1</clus>
</clustering>
</event>
<event>
 9    1  0.9171696E-005  0.1069342E+03  0.7546771E-02  0.1271648E+00
         21   -1    0    0  501  502  0.00000000000E+00  0.00000000000E+00  0.15910420261E+03  0.15910420261E+03  0.00000000000E+00 0. -1.
          1   -1    0    0  502    0 -0.00000000000E+00 -0.00000000000E+00 -0.21337818741E+03  0.21337818741E+03  0.00000000000E+00 0. -1.
         23    2    1    2    0    0  0.51819904979E+02 -0.39229933353E+02 -0.55502979115E+02  0.12517866750E+03  0.91459432990E+02 0.  0.
        -24    2    1    2    0    0  0.34718224610E+02  0.68679607877E+02  0.71977766933E+02  0.13171168115E+03  0.79024833814E+02 0.  0.
         13    1    4    4    0    0  0.44306261468E+02  0.22805312698E+02  0.68513139766E+02  0.84718223619E+02  0.00000000000E+00 0. -1.
        -14    1    4    4    0    0 -0.95880368583E+01  0.45874295179E+02  0.34646271673E+01  0.46993457527E+02  0.00000000000E+00 0.  1.
        -13    1    3    3    0    0  0.41829902144E+02  0.21886997416E+02 -0.98108378760E+01  0.48218605424E+02  0.00000000000E+00 0.  1.
         13    1    3    3    0    0  0.99900028353E+01 -0.61116930769E+02 -0.45692141239E+02  0.76960062073E+02  0.00000000000E+00 0. -1.
          2    1    1    2  501    0 -0.86538129589E+02 -0.29449674524E+02 -0.70748772625E+02  0.11559204138E+03  0.00000000000E+00 0. -1.
<scales pt_clust_5="13000.00000" pt_clust_6="13000.00000" pt_clust_7="13000.00000" pt_clust_8="13000.00000" pt_clust_9="91.41192"></scales>
<clustering>
<clus scale="   79.025">  5  6 -1 -1</clus>
<clus scale="   91.412">  1  9  2 -1</clus>
<clus scale="   91.459">  7  8 -1 -1</clus>
<clus scale="   96.514">  1  5  2 -1</clus>
<clus scale="   91.412">  1  5  2 -1</clus>
</clustering>
</event>
<event>
 9    1  0.9171696E-005  0.1013776E+03  0.7546771E-02  0.1281423E+00
         21   -1    0    0  501  502  0.00000000000E+00  0.00000000000E+00  0.18761929441E+03  0.18761929441E+03  0.00000000000E+00 0.  1.
          1   -1    0    0  502    0 -0.00000000000E+00 -0.00000000000E+00 -0.13185949406E+03  0.13185949406E+03  0.00000000000E+00 0. -1.
         23    2    1    2    0    0  0.38180116865E+02  0.21492810953E+02 -0.69467194754E+02  0.12169427043E+03  0.89800568272E+02 0.  0.
        -24    2    1    2    0    0 -0.41674372136E+02 -0.55510932278E+02  0.12377463022E+03  0.16355657971E+03  0.81316534524E+02 0.  0.
         11    1    4    4    0    0 -0.27658788145E+01 -0.33345355560E+02  0.16717529557E+01  0.33501605648E+02  0.00000000000E+00 0. -1.
        -12    1    4    4    0    0 -0.38908493321E+02 -0.22165576718E+02  0.12210287726E+03  0.13005497406E+03  0.00000000000E+00 0.  1.
        -13    1    3    3    0    0  0.12427731603E+02  0.54971215824E+02 -0.49347858376E+02  0.74909907277E+02  0.00000000000E+00 0. -1.
         13    1    3    3    0    0  0.25752385262E+02 -0.33478404870E+02 -0.20119336378E+02  0.46784363153E+02  0.00000000000E+00 0.  1.
          2    1    1    2  501    0  0.34942552707E+01  0.34018121325E+02  0.14523648909E+01  0.34227938327E+02  0.00000000000E+00 0. -1.
<scales pt_clust_5="13000.00000" pt_clust_6="13000.00000" pt_clust_7="13000.00000" pt_clust_8="13000.00000" pt_clust_9="34.19713"></scales>
<clustering>
<clus scale="   34.197">  1  9  2 -1</clus>
<clus scale="   81.317">  5  6 -1 -1</clus>
<clus scale="   89.801">  7  8 -1 -1</clus>
<clus scale="   93.945">  1  5  2 -1</clus>
<clus scale="   34.197">  1  5  2 -1</clus>
</clustering>
</event>
<event>
 9    1  0.9171696E-005  0.1421346E+03  0.7546771E-02  0.1213621E+00
          1   -1    0    0  502    0 -0.00000000000E+00  0.00000000000E+00  0.11146041405E+04  0.11146041405E+04  0.00000000000E+00 0. -1.
         21   -1    0    0  501  502  0.00000000000E+00 -0.00000000000E+00 -0.44023280541E+02  0.44023280541E+02  0.00000000000E+00 0. -1.
         23    2    1    2    0    0 -0.25193820383E+02 -0.83836947472E+02  0.55755683212E+03  0.57268066711E+03  0.97109026817E+02 0.  0.
        -24    2    1    2    0    0 -0.24076721271E+02  0.16583079428E+03  0.32471760962E+03  0.37473623258E+03  0.83103412499E+02 0.  0.
         13    1    4    4    0    0  0.29834444315E+02  0.41404838147E+02  0.78083454004E+02  0.93281726392E+02  0.00000000000E+00 0. -1.
        -14    1    4    4    0    0 -0.53911165586E+02  0.12442595613E+03  0.24663415562E+03  0.28145450618E+03  0.00000000000E+00 0.  1.
        -13    1    3    3    0    0 -0.30292989019E+02 -0.10469518323E+03  0.45107310747E+03  0.46405354741E+03  0.00000000000E+00 0. -1.
         13    1    3    3    0    0  0.50991686353E+01  0.20858235762E+02  0.10648372465E+03  0.10862711970E+03  0.00000000000E+00 0.  1.
          2    1    1    2  501    0  0.49270541655E+02 -0.81993846810E+02  0.18830641823E+03  0.21121052137E+03  0.00000000000E+00 0. -1.
<scales pt_clust_5="13000.00000" pt_clust_6="13000.00000" pt_clust_7="13000.00000" pt_clust_8="13000.00000" pt_clust_9="95.65865"></scales>
<clustering>
<clus scale="   83.103">  5  6 -1 -1</clus>
<clus scale="   95.659">  2  9  1 -1</clus>
<clus scale="   97.109">  7  8 -1 -1</clus>
<clus scale="  132.960">  2  5  1 -1</clus>
<clus scale="   95.659">  2  5  1 -1</clus>
</clustering>
</event>
<event>
 9    1  0.9171696E-005  0.9673042E+02  0.7546771E-02  0.1293798E+00
         21   -1    0    0  501  502  0.00000000000E+00  0.00000000000E+00  0.22758526966E+03  0.22758526966E+03  0.00000000000E+00 0. -1.
          1   -1    0    0  502    0 -0.00000000000E+00 -0.00000000000E+00 -0.11120885670E+03  0.11120885670E+03  0.00000000000E+00 0. -1.
         23    2    1    2    0    0 -0.41922541038E+02  0.56181981843E+01 -0.34842341821E+02  0.10564866836E+03  0.90324906562E+02 0.  0.
        -24    2    1    2    0    0 -0.43366190798E+01 -0.55170090510E+01  0.16671443051E+03  0.18435984433E+03  0.78393923267E+02 0.  0.
         13    1    4    4    0    0  0.20308433024E+01 -0.36102653114E+02  0.13532597441E+03  0.14007371358E+03  0.00000000000E+00 0. -1.
        -14    1    4    4    0    0 -0.63674623821E+01  0.30585644063E+02  0.31388456103E+02  0.44286130746E+02  0.00000000000E+00 0.  1.
        -11    1    3    3    0    0  0.99645496966E+01 -0.30653865787E+02  0.21859578328E+01  0.32306812749E+02  0.00000000000E+00 0.  1.
         11    1    3    3    0    0 -0.51887090735E+02  0.36272063972E+02 -0.37028299654E+02  0.73341855614E+02  0.00000000000E+00 0. -1.
          2    1    1    2  501    0  0.46259160118E+02 -0.10118913327E+00 -0.15495675731E+02  0.48785613663E+02  0.00000000000E+00 0. -1.
<scales pt_clust_5="13000.00000" pt_clust_6="13000.00000" pt_clust_7="13000.00000" pt_clust_8="13000.00000" pt_clust_9="46.25929"></scales>
<clustering>
<clus scale="   46.259">  1  9  2 -1</clus>
<clus scale="   78.394">  5  6 -1 -1</clus>
<clus scale="   85.696">  1  5  2 -1</clus>
<clus scale="   90.325">  7  8 -1 -1</clus>
<clus scale="   46.259">  1  5  2 -1</clus>
</clustering>
</event>
<event>
 9    1  0.9171696E-005  0.1405837E+03  0.7546771E-02  0.1214905E+00
         -4   -1    0    0    0  501 -0.00000000000E+00  0.00000000000E+00  0.32042233415E+03  0.32042233415E+03  0.00000000000E+00 0.  1.
         21   -1    0    0  501  502  0.00000000000E+00 -0.00000000000E+00 -0.30649465520E+03  0.30649465520E+03  0.00000000000E+00 0.  1.
        -24    2    1    2    0    0  0.12008182709E+03  0.25481203905E+01  0.25812416668E+03  0.29563782879E+03  0.79671213565E+02 0.  0.
         23    2    1    2    0    0 -0.55924193319E+02  0.16580467935E+02 -0.37785974095E+02  0.11428283571E+03  0.90721328167E+02 0.  0.
         11    1    3    3    0    0  0.50610893820E+01  0.22169873572E+02  0.76108237130E+02  0.79432875303E+02  0.00000000000E+00 0. -1.
        -12    1    3    3    0    0  0.11502073771E+03 -0.19621753181E+02  0.18201592955E+03  0.21620495348E+03  0.00000000000E+00 0.  1.
        -13    1    4    4    0    0 -0.59118967567E+02  0.37704054147E+02 -0.53134757118E+02  0.87976988124E+02  0.00000000000E+00 0.  1.
         13    1    4    4    0    0  0.31947742475E+01 -0.21123586212E+02  0.15348783023E+02  0.26305847587E+02  0.00000000000E+00 0. -1.
         -3    1    1    2    0  502 -0.64157633774E+02 -0.19128588326E+02 -0.20641051363E+03  0.21699632485E+03  0.00000000000E+00 0.  1.
<scales pt_clust_5="13000.00000" pt_clust_6="13000.00000" pt_clust_7="13000.00000" pt_clust_8="13000.00000" pt_clust_9="66.94852"></scales>
<clustering>
<clus scale="   66.949">  2  9  1 -1</clus>
<clus scale="   79.671">  5  6 -1 -1</clus>
<clus scale="   90.721">  7  8 -1 -1</clus>
<clus scale="  133.720">  1  5  2 -1</clus>
<clus scale="   66.949">  2  5  1 -1</clus>
</clustering>
</event>
<event>
 9    1  0.9171696E-005  0.1578315E+03  0.7546771E-02  0.1197682E+00
         21   -1    0    0  501  502  0.00000000000E+00  0.00000000000E+00  0.36017135975E+02  0.36017135975E+02  0.00000000000E+00 0. -1.
          1   -1    0    0  502    0 -0.00000000000E+00 -0.00000000000E+00 -0.19879194548E+04  0.19879194548E+04  0.00000000000E+00 0. -1.
         23    2    1    2    0    0  0.41447663594E+02 -0.88931312707E+02 -0.43894904858E+03  0.45977856109E+03  0.95359167294E+02 0.  0.
        -24    2    1    2    0    0 -0.12232792877E+03 -0.56125543231E+02 -0.28693287848E+03  0.32693973457E+03  0.80280225034E+02 0.  0.
         13    1    4    4    0    0 -0.97105363054E+02 -0.20467787310E+02 -0.12714067646E+03  0.16128587496E+03  0.00000000000E+00 0. -1.
        -14    1    4    4    0    0 -0.25222565711E+02 -0.35657755921E+02 -0.15979220202E+03  0.16565385961E+03  0.00000000000E+00 0.  1.
        -13    1    3    3    0    0 -0.29499291656E+02 -0.11481932328E+02 -0.11045243690E+03  0.11489901564E+03  0.00000000000E+00 0.  1.
         13    1    3    3    0    0  0.70946955250E+02 -0.77449380378E+02 -0.32849661168E+03  0.34487954544E+03  0.00000000000E+00 0. -1.
          2    1    1    2  501    0  0.80880265171E+02  0.14505685594E+03 -0.12260203918E+04  0.12372182952E+04  0.00000000000E+00 0. -1.
<scales pt_clust_5="13000.00000" pt_clust_6="13000.00000" pt_clust_7="13000.00000" pt_clust_8="13000.00000" pt_clust_9="135.88919"></scales>
<clustering>
<clus scale="   80.280">  5  6 -1 -1</clus>
<clus scale="   95.359">  7  8 -1 -1</clus>
<clus scale="  136.821">  2  7  1 -1</clus>
<clus scale="  135.889">  1  9  2 -1</clus>
<clus scale="  135.889">  1  5  2 -1</clus>
</clustering>
</event>
<event>
 9    1  0.9171696E-005  0.1106446E+03  0.7546771E-02  0.1263941E+00
          1   -1    0    0  502    0 -0.00000000000E+00  0.00000000000E+00  0.73989472380E+03  0.73989472380E+03  0.00000000000E+00 0. -1.
         21   -1    0    0  501  502  0.00000000000E+00 -0.00000000000E+00 -0.27772399389E+02  0.27772399389E+02  0.00000000000E+00 0. -1.
         23    2    1    2    0    0  0.49517035333E+02  0.34367100468E+02  0.48968535395E+03  0.50199288083E+03  0.92585485617E+02 0.  0.
        -24    2    1    2    0    0 -0.25689142924E+02 -0.64469293779E+02  0.16936537694E+03  0.20017229936E+03  0.81043794446E+02 0.  0.
         11    1    4    4    0    0  0.22391317826E+02 -0.50597319323E+02  0.73121826191E+02  0.91696571922E+02  0.00000000000E+00 0. -1.
        -12    1    4    4    0    0 -0.48080460749E+02 -0.13871974456E+02  0.96243550753E+02  0.10847572744E+03  0.00000000000E+00 0.  1.
        -13    1    3    3    0    0  0.58678334655E+02  0.52747674376E+02  0.45412283770E+03  0.46092625856E+03  0.00000000000E+00 0. -1.
         13    1    3    3    0    0 -0.91612993218E+01 -0.18380573909E+02  0.35562516250E+02  0.41066622268E+02  0.00000000000E+00 0.  1.
          2    1    1    2  501    0 -0.23827892410E+02  0.30102193311E+02  0.53071593517E+02  0.65501943003E+02  0.00000000000E+00 0. -1.
<scales pt_clust_5="13000.00000" pt_clust_6="13000.00000" pt_clust_7="13000.00000" pt_clust_8="13000.00000" pt_clust_9="38.39154"></scales>
<clustering>
<clus scale="   38.392">  2  9  1 -1</clus>
<clus scale="   81.044">  5  6 -1 -1</clus>
<clus scale="   92.585">  7  8 -1 -1</clus>
<clus scale="  101.184">  2  5  1 -1</clus>
<clus scale="   38.392">  2  5  1 -1</clus>
</clustering>
</event>
<event>
 9    1  0.9171696E-005  0.1192788E+03  0.7546771E-02  0.1271188E+00
         21   -1    0    0  501  502  0.00000000000E+00  0.00000000000E+00  0.11581832990E+03  0.11581832990E+03  0.00000000000E+00 0.  1.
          1   -1    0    0  502    0 -0.00000000000E+00 -0.00000000000E+00 -0.20002539748E+03  0.20002539748E+03  0.00000000000E+00 0. -1.
        -24    2    1    2    0    0  0.22907718265E+02  0.12661443958E+02  0.35595392952E+02  0.78674473313E+02  0.65096582341E+02 0.  0.
         23    2    1    2    0    0 -0.81563145228E+02  0.34260652601E+02 -0.95430911444E+02  0.15820017997E+03  0.89966099774E+02 0.  0.
         11    1    3    3    0    0  0.17105352842E+02 -0.21400744880E+02 -0.21757605867E+01  0.27483065903E+02  0.00000000000E+00 0. -1.
        -12    1    3    3    0    0  0.58023654221E+01  0.34062188838E+02  0.37771153539E+02  0.51191407410E+02  0.00000000000E+00 0.  1.
        -11    1    4    4    0    0 -0.10032308941E+03  0.19405890832E+02 -0.79264083009E+02  0.12932171404E+03  0.00000000000E+00 0. -1.
         11    1    4    4    0    0  0.18759944181E+02  0.14854761769E+02 -0.16166828435E+02  0.28878465931E+02  0.00000000000E+00 0.  1.
          2    1    1    2  501    0  0.58655426963E+02 -0.46922096559E+02 -0.24371549085E+02  0.78969074089E+02  0.00000000000E+00 0. -1.
<scales pt_clust_5="13000.00000" pt_clust_6="13000.00000" pt_clust_7="13000.00000" pt_clust_8="13000.00000" pt_clust_9="78.31692"></scales>
<clustering>
<clus scale="   65.097">  5  6 -1 -1</clus>
<clus scale="   70.162">  2  5  1 -1</clus>
<clus scale="   78.317">  1  9  2 -1</clus>
<clus scale="   89.966">  7  8 -1 -1</clus>
<clus scale="   78.317">  1  5  2 -1</clus>
</clustering>
</event>
<event>
 9    1  0.9171696E-005  0.1367668E+03  0.7546771E-02  0.1235227E+00
         21   -1    0    0  501  502  0.00000000000E+00  0.00000000000E+00  0.89343680358E+02  0.89343680358E+02  0.00000000000E+00 0. -1.
          3   -1    0    0  502    0 -0.00000000000E+00 -0.00000000000E+00 -0.37296709902E+03  0.37296709902E+03  0.00000000000E+00 0. -1.
         23    2    1    2    0    0  0.27700670798E+02  0.19362738170E+01 -0.14011355526E+03  0.16935395711E+03  0.90982845091E+02 0.  0.
        -24    2    1    2    0    0 -0.10902020356E+03  0.65685178567E+02 -0.97459803940E+02  0.17760459989E+03  0.76452815837E+02 0.  0.
         11    1    4    4    0    0 -0.97385005902E+02  0.63960020418E+02 -0.11012550089E+03  0.16031952325E+03  0.00000000000E+00 0. -1.
        -12    1    4    4    0    0 -0.11635197660E+02  0.17251581491E+01  0.12665696954E+02  0.17285076643E+02  0.00000000000E+00 0.  1.
        -11    1    3    3    0    0 -0.19425973957E+02 -0.31727778864E+02 -0.55889310022E+02  0.67138926046E+02  0.00000000000E+00 0.  1.
         11    1    3    3    0    0  0.47126644755E+02  0.33664052681E+02 -0.84224245240E+02  0.10221503106E+03  0.00000000000E+00 0. -1.
          4    1    1    2  501    0  0.81319532765E+02 -0.67621452384E+02 -0.46050059456E+02  0.11535222238E+03  0.00000000000E+00 0. -1.
<scales pt_clust_5="13000.00000" pt_clust_6="13000.00000" pt_clust_7="13000.00000" pt_clust_8="13000.00000" pt_clust_9="113.40250"></scales>
<clustering>
<clus scale="   76.453">  5  6 -1 -1</clus>
<clus scale="   90.983">  7  8 -1 -1</clus>
<clus scale="   95.126">  2  7  1 -1</clus>
<clus scale="  113.403">  1  9  2 -1</clus>
<clus scale="  113.403">  1  5  2 -1</clus>
</clustering>
</event>
<event>
 9    1  0.9171696E-005  0.1279483E+03  0.7546771E-02  0.1230631E+00
         21   -1    0    0  501  502  0.00000000000E+00  0.00000000000E+00  0.59291963646E+02  0.59291963646E+02  0.00000000000E+00 0.  1.
         -4   -1    0    0    0  501 -0.00000000000E+00 -0.00000000000E+00 -0.42651963239E+03  0.42651963239E+03  0.00000000000E+00 0.  1.
        -24    2    1    2    0    0 -0.41238742455E+02  0.97902710866E+02 -0.29712030045E+03  0.32576581780E+03  0.80977283432E+02 0.  0.
         23    2    1    2    0    0  0.38534699044E+02 -0.72099570955E+02 -0.68253631640E+02  0.13403519925E+03  0.81385534605E+02 0.  0.
         11    1    3    3    0    0 -0.29682562596E+02 -0.46983781214E+01 -0.58575983930E+02  0.65835212254E+02  0.00000000000E+00 0. -1.
        -12    1    3    3    0    0 -0.11556179859E+02  0.10260108899E+03 -0.23854431652E+03  0.25993060554E+03  0.00000000000E+00 0.  1.
        -11    1    4    4    0    0  0.12004717298E+02  0.17469945395E+02 -0.18818829919E+02  0.28345380382E+02  0.00000000000E+00 0.  1.
         11    1    4    4    0    0  0.26529981746E+02 -0.89569516349E+02 -0.49434801721E+02  0.10568981886E+03  0.00000000000E+00 0. -1.
         -3    1    1    2    0  502  0.27040434113E+01 -0.25803139911E+02 -0.18537366576E+01  0.26010578995E+02  0.00000000000E+00 0.  1.
<scales pt_clust_5="13000.00000" pt_clust_6="13000.00000" pt_clust_7="13000.00000" pt_clust_8="13000.00000" pt_clust_9="25.94444"></scales>
<clustering>
<clus scale="   25.944">  1  9  2 -1</clus>
<clus scale="   80.977">  5  6 -1 -1</clus>
<clus scale="   81.386">  7  8 -1 -1</clus>
<clus scale="  127.689">  2  5  1 -1</clus>
<clus scale="   25.944">  1  5  2 -1</clus>
</clustering>
</event>
<event>
 9    1  0.9171696E-005  0.9930955E+02  0.7546771E-02  0.1287105E+00
         21   -1    0    0  501  502  0.00000000000E+00  0.00000000000E+00  0.12382154906E+03  0.12382154906E+03  0.00000000000E+00 0. -1.
          1   -1    0    0  502    0 -0.00000000000E+00 -0.00000000000E+00 -0.14933721442E+03  0.14933721442E+03  0.00000000000E+00 0. -1.
         23    2    1    2    0    0  0.35365474540E+02  0.28809244949E+02 -0.29803043636E+02  0.10607605268E+03  0.91012186862E+02 0.  0.
        -24    2    1    2    0    0  0.21982674463E+02 -0.51306064933E+02  0.26718211941E+02  0.10152312415E+03  0.80483113830E+02 0.  0.
         11    1    4    4    0    0  0.17046883191E+02 -0.71950808186E+02  0.10233910876E+02  0.74647491297E+02  0.00000000000E+00 0. -1.
        -12    1    4    4    0    0  0.49357912721E+01  0.20644743253E+02  0.16484301065E+02  0.26875632850E+02  0.00000000000E+00 0.  1.
        -11    1    3    3    0    0  0.52558658088E+02  0.28525172851E+01 -0.46949503891E+02  0.70532299768E+02  0.00000000000E+00 0.  1.
         11    1    3    3    0    0 -0.17193183548E+02  0.25956727664E+02  0.17146460255E+02  0.35543752909E+02  0.00000000000E+00 0. -1.
          2    1    1    2  501    0 -0.57348149003E+02  0.22496819984E+02 -0.22430833665E+02  0.65559586655E+02  0.00000000000E+00 0. -1.
<scales pt_clust_5="13000.00000" pt_clust_6="13000.00000" pt_clust_7="13000.00000" pt_clust_8="13000.00000" pt_clust_9="61.60293"></scales>
<clustering>
<clus scale="   61.603">  1  9  2 -1</clus>
<clus scale="   80.483">  5  6 -1 -1</clus>
<clus scale="   89.759">  1  5  2 -1</clus>
<clus scale="   91.012">  7  8 -1 -1</clus>
<clus scale="   61.603">  1  5  2 -1</clus>
</clustering>
</event>
<event>
 9    1  0.9171696E-005  0.1318861E+03  0.7546771E-02  0.1234899E+00
          1   -1    0    0  502    0 -0.00000000000E+00  0.00000000000E+00  0.47718190049E+03  0.47718190049E+03  0.00000000000E+00 0. -1.
         21   -1    0    0  501  502  0.00000000000E+00 -0.00000000000E+00 -0.73469816664E+02  0.73469816664E+02  0.00000000000E+00 0. -1.
        -24    2    1    2    0    0 -0.18197331272E+02 -0.78328724953E+02  0.33002769253E+03  0.34959605383E+03  0.82659488278E+02 0.  0.
         23    2    1    2    0    0 -0.15906542104E+02  0.16162881061E+02  0.37261206506E+02  0.12134170773E+03  0.11323054234E+03 0.  0.
         13    1    3    3    0    0  0.13150387985E+02 -0.75373561503E+02  0.28178075714E+03  0.29198373512E+03  0.00000000000E+00 0. -1.
        -14    1    3    3    0    0 -0.31347719257E+02 -0.29551634503E+01  0.48246935383E+02  0.57612318713E+02  0.00000000000E+00 0.  1.
        -11    1    4    4    0    0 -0.22731363444E+02 -0.35949417402E+02  0.51593477494E+02  0.66865255668E+02  0.00000000000E+00 0.  1.
         11    1    4    4    0    0  0.68248213401E+01  0.52112298463E+02 -0.14332270988E+02  0.54476452060E+02  0.00000000000E+00 0. -1.
          2    1    1    2  501    0  0.34103873376E+02  0.62165843893E+02  0.36423184796E+02  0.79713955597E+02  0.00000000000E+00 0. -1.
<scales pt_clust_5="13000.00000" pt_clust_6="13000.00000" pt_clust_7="13000.00000" pt_clust_8="13000.00000" pt_clust_9="70.90604"></scales>
<clustering>
<clus scale="   70.906">  2  9  1 -1</clus>
<clus scale="   82.659">  5  6 -1 -1</clus>
<clus scale="  106.796">  1  5  2 -1</clus>
<clus scale="  113.231">  7  8 -1 -1</clus>
<clus scale="   70.906">  2  5  1 -1</clus>
</clustering>
</event>
<event>
 9    1  0.9171696E-005  0.1447368E+03  0.7546771E-02  0.1226813E+00
          1   -1    0    0  502    0 -0.00000000000E+00  0.00000000000E+00  0.29105530651E+03  0.29105530651E+03  0.00000000000E+00 0. -1.
         21   -1    0    0  501  502  0.00000000000E+00 -0.00000000000E+00 -0.27944118738E+03  0.27944118738E+03  0.00000000000E+00 0. -1.
         23    2    1    2    0    0  0.28234008277E+02  0.59540431549E+01  0.49913950761E+02  0.10772347406E+03  0.90996343491E+02 0.  0.
        -24    2    1    2    0    0 -0.66619313433E+02  0.10147925011E+03 -0.21064235875E+03  0.25609140283E+03  0.80476283333E+02 0.  0.
         13    1    4    4    0    0 -0.43176235151E+01  0.63542368972E+02 -0.54787239470E+02  0.84011404798E+02  0.00000000000E+00 0. -1.
        -14    1    4    4    0    0 -0.62301689918E+02  0.37936881136E+02 -0.15585511928E+03  0.17207999804E+03  0.00000000000E+00 0.  1.
        -13    1    3    3    0    0  0.12144302744E+02 -0.38802777350E+02  0.27649336267E+01  0.40752723555E+02  0.00000000000E+00 0. -1.
         13    1    3    3    0    0  0.16089705534E+02  0.44756820505E+02  0.47149017134E+02  0.66970750500E+02  0.00000000000E+00 0.  1.
          2    1    1    2  501    0  0.38385305156E+02 -0.10743329326E+03  0.17234252712E+03  0.20668161700E+03  0.00000000000E+00 0. -1.
<scales pt_clust_5="13000.00000" pt_clust_6="13000.00000" pt_clust_7="13000.00000" pt_clust_8="13000.00000" pt_clust_9="120.30100"></scales>
<clustering>
<clus scale="   80.476">  5  6 -1 -1</clus>
<clus scale="   90.996">  7  8 -1 -1</clus>
<clus scale="   95.462">  1  7  2 -1</clus>
<clus scale="  120.301">  2  9  1 -1</clus>
<clus scale="  120.301">  2  5  1 -1</clus>
</clustering>
</event>
<event>
 9    1  0.9171696E-005  0.1165582E+03  0.7546771E-02  0.1253594E+00
          1   -1    0    0  502    0 -0.00000000000E+00  0.00000000000E+00  0.74396458136E+03  0.74396458136E+03  0.00000000000E+00 0. -1.
         21   -1    0    0  501  502  0.00000000000E+00 -0.00000000000E+00 -0.49263400547E+02  0.49263400547E+02  0.00000000000E+00 0.  1.
         23    2    1    2    0    0  0.29377603330E+02 -0.65035597575E+02  0.64395678942E+03  0.65465523879E+03  0.93810780318E+02 0.  0.
        -24    2    1    2    0    0 -0.17152480925E+01  0.58331729520E+02  0.31723971304E+02  0.10433936577E+03  0.80465894326E+02 0.  0.
         11    1    4    4    0    0 -0.40516182977E+02  0.23849110116E+02  0.20179000967E+02  0.51161833590E+02  0.00000000000E+00 0. -1.
        -12    1    4    4    0    0  0.38800934884E+02  0.34482619404E+02  0.11544970337E+02  0.53177532182E+02  0.00000000000E+00 0.  1.
        -13    1    3    3    0    0 -0.33697271782E+02 -0.13146291648E+02  0.19180347544E+03  0.19518428293E+03  0.00000000000E+00 0. -1.
         13    1    3    3    0    0  0.63074875113E+02 -0.51889305927E+02  0.45215331398E+03  0.45947095586E+03  0.00000000000E+00 0.  1.
          2    1    1    2  501    0 -0.27662355238E+02  0.67038680551E+01  0.19020420089E+02  0.34233377347E+02  0.00000000000E+00 0. -1.
<scales pt_clust_5="13000.00000" pt_clust_6="13000.00000" pt_clust_7="13000.00000" pt_clust_8="13000.00000" pt_clust_9="28.46309"></scales>
<clustering>
<clus scale="   28.463">  2  9  1 -1</clus>
<clus scale="   80.466">  5  6 -1 -1</clus>
<clus scale="   93.811">  7  8 -1 -1</clus>
<clus scale="  106.114">  2  5  1 -1</clus>
<clus scale="   28.463">  2  5  1 -1</clus>
</clustering>
</event>
<event>
 9    1  0.9171696E-005  0.2945518E+03  0.7546771E-02  0.1088127E+00
         21   -1    0    0  501  502  0.00000000000E+00  0.00000000000E+00  0.29482241841E+03  0.29482241841E+03  0.00000000000E+00 0. -1.
          3   -1    0    0  502    0 -0.00000000000E+00 -0.00000000000E+00 -0.41747331620E+03  0.41747331620E+03  0.00000000000E+00 0. -1.
         23    2    1    2    0    0 -0.18642506055E+03  0.19190177356E+03 -0.96380305174E+02  0.29653206220E+03  0.84032772091E+02 0.  0.
        -24    2    1    2    0    0  0.19952659755E+03 -0.23402475236E+03  0.53897622191E+02  0.32425991139E+03  0.87527644851E+02 0.  0.
         11    1    4    4    0    0  0.20639856116E+03 -0.21814652891E+03  0.41939255503E+02  0.30322792628E+03  0.00000000000E+00 0. -1.
        -12    1    4    4    0    0 -0.68719636155E+01 -0.15878223449E+02  0.11958366688E+02  0.21031985110E+02  0.00000000000E+00 0.  1.
        -11    1    3    3    0    0 -0.18689340301E+03  0.15705529311E+03 -0.73905262117E+02  0.25506371155E+03  0.00000000000E+00 0. -1.
         11    1    3    3    0    0  0.46834245557E+00  0.34846480454E+02 -0.22475043057E+02  0.41468350644E+02  0.00000000000E+00 0.  1.
          4    1    1    2  501    0 -0.13101536993E+02  0.42122978794E+02 -0.80168214810E+02  0.91503761015E+02  0.00000000000E+00 0. -1.
<scales pt_clust_5="13000.00000" pt_clust_6="13000.00000" pt_clust_7="13000.00000" pt_clust_8="13000.00000" pt_clust_9="44.11346"></scales>
<clustering>
<clus scale="   44.113">  1  9  2 -1</clus>
<clus scale="   84.033">  7  8 -1 -1</clus>
<clus scale="   87.528">  5  6 -1 -1</clus>
<clus scale="  293.532">  2  7  1 -1</clus>
<clus scale="   44.113">  1  5  2 -1</clus>
</clustering>
</event>
<event>
 9    1  0.9171696E-005  0.1635058E+03  0.7546771E-02  0.1188636E+00
          1   -1    0    0  502    0 -0.00000000000E+00  0.00000000000E+00  0.53861542299E+03  0.53861542299E+03  0.00000000000E+00 0. -1.
         21   -1    0    0  501  502  0.00000000000E+00 -0.00000000000E+00 -0.50748131450E+03  0.50748131450E+03  0.00000000000E+00 0. -1.
         23    2    1    2    0    0 -0.18032668815E+02  0.12986972199E+03  0.48042836892E+03  0.50855762002E+03  0.10309274164E+03 0.  0.
        -24    2    1    2    0    0 -0.11043128506E+03 -0.64410947621E+02 -0.22948606936E+03  0.27466371078E+03  0.80202612785E+02 0.  0.
         11    1    4    4    0    0 -0.24166058553E+02 -0.58811406932E+02 -0.82753233728E+02  0.10435936788E+03  0.00000000000E+00 0. -1.
        -12    1    4    4    0    0 -0.86265226502E+02 -0.55995406887E+01 -0.14673283563E+03  0.17030434291E+03  0.00000000000E+00 0.  1.
        -13    1    3    3    0    0 -0.55413627721E+02  0.11204589859E+03  0.37514703526E+03  0.39542414139E+03  0.00000000000E+00 0. -1.
         13    1    3    3    0    0  0.37380958906E+02  0.17823823398E+02  0.10528133366E+03  0.11313347863E+03  0.00000000000E+00 0.  1.
          2    1    1    2  501    0  0.12846395387E+03 -0.65458774370E+02 -0.21980819107E+03  0.26287540670E+03  0.00000000000E+00 0. -1.
<scales pt_clust_5="13000.00000" pt_clust_6="13000.00000" pt_clust_7="13000.00000" pt_clust_8="13000.00000" pt_clust_9="144.17988"></scales>
<clustering>
<clus scale="   80.203">  5  6 -1 -1</clus>
<clus scale="  103.093">  7  8 -1 -1</clus>
<clus scale="  144.180">  2  9  1 -1</clus>
<clus scale="  150.128">  2  5  1 -1</clus>
<clus scale="  144.180">  2  5  1 -1</clus>
</clustering>
</event>
<event>
 9    1  0.9171696E-005  0.1635927E+03  0.7546771E-02  0.1186201E+00
          1   -1    0    0  502    0 -0.00000000000E+00  0.00000000000E+00  0.17829897545E+03  0.17829897545E+03  0.00000000000E+00 0. -1.
         21   -1    0    0  501  502  0.00000000000E+00 -0.00000000000E+00 -0.32840244514E+03  0.32840244514E+03  0.00000000000E+00 0. -1.
        -24    2    1    2    0    0  0.14256368712E+03 -0.33974778874E+02  0.49769748669E+02  0.17489485743E+03  0.81440117792E+02 0.  0.
         23    2    1    2    0    0 -0.10397548886E+03 -0.35700296074E+02 -0.20727440786E+03  0.25181629676E+03  0.91451373623E+02 0.  0.
         11    1    3    3    0    0  0.86253614085E+02 -0.57808812273E+02  0.46187945967E+02  0.11364361430E+03  0.00000000000E+00 0. -1.
        -12    1    3    3    0    0  0.56310073037E+02  0.23834033399E+02  0.35818027023E+01  0.61251243123E+02  0.00000000000E+00 0.  1.
        -11    1    4    4    0    0 -0.15185770544E+02  0.26741185941E+02 -0.72589550273E+02  0.78834900022E+02  0.00000000000E+00 0. -1.
         11    1    4    4    0    0 -0.88789718316E+02 -0.62441482015E+02 -0.13468485759E+03  0.17298139674E+03  0.00000000000E+00 0.  1.
          2    1    1    2  501    0 -0.38588198263E+02  0.69675074948E+02  0.74011895006E+01  0.79990266409E+02  0.00000000000E+00 0. -1.
<scales pt_clust_5="13000.00000" pt_clust_6="13000.00000" pt_clust_7="13000.00000" pt_clust_8="13000.00000" pt_clust_9="79.64717"></scales>
<clustering>
<clus scale="   79.647">  2  9  1 -1</clus>
<clus scale="   81.440">  5  6 -1 -1</clus>
<clus scale="   91.451">  7  8 -1 -1</clus>
<clus scale="  158.214">  1  5  2 -1</clus>
<clus scale="   79.647">  2  5  1 -1</clus>
</clustering>
</event>
<event>
 9    1  0.9171696E-005  0.2144208E+03  0.7546771E-02  0.1176481E+00
          1   -1    0    0  502    0 -0.00000000000E+00  0.00000000000E+00  0.37774005504E+03  0.37774005504E+03  0.00000000000E+00 0. -1.
         21   -1    0    0  501  502  0.00000000000E+00 -0.00000000000E+00 -0.21397405508E+03  0.21397405508E+03  0.00000000000E+00 0. -1.
        -24    2    1    2    0    0  0.19357620636E+02  0.49836324157E+02 -0.71528775129E+02  0.11292218025E+03  0.69113504026E+02 0.  0.
         23    2    1    2    0    0 -0.19106262568E+03  0.37290483900E+02  0.16892992286E+03  0.27513048764E+03  0.96249463727E+02 0.  0.
         13    1    3    3    0    0 -0.12857014528E+02  0.41946478672E+02 -0.66069048089E+02  0.79309072690E+02  0.00000000000E+00 0. -1.
        -14    1    3    3    0    0  0.32214635164E+02  0.78898454856E+01 -0.54597270401E+01  0.33613107560E+02  0.00000000000E+00 0.  1.
        -11    1    4    4    0    0 -0.59110937254E+02 -0.55630765549E+01  0.38539173410E+01  0.59497087346E+02  0.00000000000E+00 0.  1.
         11    1    4    4    0    0 -0.13195168843E+03  0.42853560455E+02  0.16507600552E+03  0.21563340029E+03  0.00000000000E+00 0. -1.
          2    1    1    2  501    0  0.17170500505E+03 -0.87126808058E+02  0.66364852218E+02  0.20366144223E+03  0.00000000000E+00 0. -1.
<scales pt_clust_5="13000.00000" pt_clust_6="13000.00000" pt_clust_7="13000.00000" pt_clust_8="13000.00000" pt_clust_9="191.60455"></scales>
<clustering>
<clus scale="   69.114">  5  6 -1 -1</clus>
<clus scale="   87.379">  1  5  2 -1</clus>
<clus scale="   96.249">  7  8 -1 -1</clus>
<clus scale="  191.605">  2  9  1 -1</clus>
<clus scale="  191.605">  2  5  1 -1</clus>
</clustering>
</event>
<event>
 9    1  0.9171696E-005  0.9512896E+02  0.7546771E-02  0.1294685E+00
          3   -1    0    0  502    0 -0.00000000000E+00  0.00000000000E+00  0.17339476196E+03  0.17339476196E+03  0.00000000000E+00 0. -1.
         21   -1    0    0  501  502  0.00000000000E+00 -0.00000000000E+00 -0.17133430030E+03  0.17133430030E+03  0.00000000000E+00 0. -1.
         23    2    1    2    0    0 -0.25201551406E+02 -0.13930314071E+02  0.11545536758E+03  0.14855501104E+03  0.88935243632E+02 0.  0.
        -24    2    1    2    0    0  0.44082004074E+02  0.26205585857E+02 -0.18214536824E+02  0.98365787507E+02  0.81939630135E+02 0.  0.
         11    1    4    4    0    0 -0.20052347739E+02  0.90832082840E+01  0.12399740303E+02  0.25265685863E+02  0.00000000000E+00 0. -1.
        -12    1    4    4    0    0  0.64134351813E+02  0.17122377573E+02 -0.30614277127E+02  0.73100101643E+02  0.00000000000E+00 0.  1.
        -13    1    3    3    0    0 -0.50668559641E+02  0.10287099515E+02  0.94277634582E+02  0.10752394959E+03  0.00000000000E+00 0. -1.
         13    1    3    3    0    0  0.25467008235E+02 -0.24217413587E+02  0.21177732996E+02  0.41031061455E+02  0.00000000000E+00 0.  1.
          4    1    1    2  501    0 -0.18880452669E+02 -0.12275271786E+02 -0.95180369088E+02  0.97808263711E+02  0.00000000000E+00 0. -1.
<scales pt_clust_5="13000.00000" pt_clust_6="13000.00000" pt_clust_7="13000.00000" pt_clust_8="13000.00000" pt_clust_9="22.52008"></scales>
<clustering>
<clus scale="   22.520">  2  9  1 -1</clus>
<clus scale="   81.940">  5  6 -1 -1</clus>
<clus scale="   88.624">  2  5  1 -1</clus>
<clus scale="   88.935">  7  8 -1 -1</clus>
<clus scale="   22.520">  2  5  1 -1</clus>
</clustering>
</event>
<event>
 9    1  0.9171696E-005  0.1628162E+03  0.7546771E-02  0.1188394E+00
         21   -1    0    0  501  502  0.00000000000E+00  0.00000000000E+00  0.23307144072E+03  0.23307144072E+03  0.00000000000E+00 0. -1.
         -2   -1    0    0    0  501 -0.00000000000E+00 -0.00000000000E+00 -0.17613911673E+03  0.17613911673E+03  0.00000000000E+00 0.  1.
        -24    2    1    2    0    0  0.14205365814E+03 -0.63332774669E+02 -0.79364129726E+01  0.17391617213E+03  0.77418125394E+02 0.  0.
         23    2    1    2    0    0 -0.88368931345E+02  0.33089660410E+02  0.97119538011E+02  0.16574720696E+03  0.95582102394E+02 0.  0.
         11    1    3    3    0    0  0.11264186188E+03 -0.11617686151E+02 -0.14056522596E+02  0.11410848131E+03  0.00000000000E+00 0. -1.
        -12    1    3    3    0    0  0.29411796259E+02 -0.51715088517E+02  0.61201096236E+01  0.59807690821E+02  0.00000000000E+00 0.  1.
        -13    1    4    4    0    0 -0.36742510587E+02  0.50738860796E+02  0.10709987160E+02  0.63554290997E+02  0.00000000000E+00 0.  1.
         13    1    4    4    0    0 -0.51626420758E+02 -0.17649200386E+02  0.86409550852E+02  0.10219291596E+03  0.00000000000E+00 0. -1.
         -1    1    1    2    0  502 -0.53684726791E+02  0.30243114259E+02 -0.32250801042E+02  0.69547178365E+02  0.00000000000E+00 0.  1.
<scales pt_clust_5="13000.00000" pt_clust_6="13000.00000" pt_clust_7="13000.00000" pt_clust_8="13000.00000" pt_clust_9="61.61736"></scales>
<clustering>
<clus scale="   61.617">  1  9  2 -1</clus>
<clus scale="   77.418">  5  6 -1 -1</clus>
<clus scale="   95.582">  7  8 -1 -1</clus>
<clus scale="  152.862">  2  5  1 -1</clus>
<clus scale="   61.617">  1  5  2 -1</clus>
</clustering>
</event>
<event>
 9    1  0.9171696E-005  0.1345282E+03  0.7546771E-02  0.1228010E+00
         21   -1    0    0  501  502  0.00000000000E+00  0.00000000000E+00  0.12737707884E+03  0.12737707884E+03  0.00000000000E+00 0.  1.
          1   -1    0    0  502    0 -0.00000000000E+00 -0.00000000000E+00 -0.37019303838E+03  0.37019303838E+03  0.00000000000E+00 0. -1.
        -24    2    1    2    0    0  0.96041507462E+02 -0.13983425908E+02 -0.25509669881E+03  0.28226038146E+03  0.71951996762E+02 0.  0.
         23    2    1    2    0    0 -0.39491950554E+02  0.62824264234E+02  0.47603107443E+02  0.13266017697E+03  0.99127011360E+02 0.  0.
         13    1    3    3    0    0  0.82518399886E+02 -0.11598168071E+02 -0.25527078190E+03  0.26852742116E+03  0.00000000000E+00 0. -1.
        -14    1    3    3    0    0  0.13523107576E+02 -0.23852578373E+01  0.17408309107E+00  0.13732960292E+02  0.00000000000E+00 0.  1.
        -13    1    4    4    0    0  0.29298000895E+02  0.32998431848E+02  0.35664151901E+02  0.56738003945E+02  0.00000000000E+00 0.  1.
         13    1    4    4    0    0 -0.68789951449E+02  0.29825832386E+02  0.11938955542E+02  0.75922173028E+02  0.00000000000E+00 0. -1.
          2    1    1    2  501    0 -0.56549556908E+02 -0.48840838326E+02 -0.35322368170E+02  0.82649558789E+02  0.00000000000E+00 0. -1.
<scales pt_clust_5="13000.00000" pt_clust_6="13000.00000" pt_clust_7="13000.00000" pt_clust_8="13000.00000" pt_clust_9="74.72135"></scales>
<clustering>
<clus scale="   71.952">  5  6 -1 -1</clus>
<clus scale="   74.721">  1  9  2 -1</clus>
<clus scale="   99.127">  7  8 -1 -1</clus>
<clus scale="  115.969">  2  5  1 -1</clus>
<clus scale="   74.721">  1  5  2 -1</clus>
</clustering>
</event>
<event>
 9    1  0.9171696E-005  0.2010392E+03  0.7546771E-02  0.1150254E+00
          1   -1    0    0  502    0 -0.00000000000E+00  0.00000000000E+00  0.45062478731E+03  0.45062478731E+03  0.00000000000E+00 0. -1.
         21   -1    0    0  501  502  0.00000000000E+00 -0.00000000000E+00 -0.15294245355E+03  0.15294245355E+03  0.00000000000E+00 0. -1.
        -24    2    1    2    0    0  0.12501333807E+03  0.17492938123E+03  0.24969535113E+03  0.33806542807E+03  0.75576730309E+02 0.  0.
         23    2    1    2    0    0 -0.63071724246E+02 -0.95050519252E+02 -0.14498830810E+02  0.14666632569E+03  0.91039284855E+02 0.  0.
         13    1    3    3    0    0  0.93961973959E+02  0.81188229521E+02  0.10356551096E+03  0.16169785473E+03  0.00000000000E+00 0. -1.
        -14    1    3    3    0    0  0.31051364110E+02  0.93741151708E+02  0.14612984017E+03  0.17636757334E+03  0.00000000000E+00 0.  1.
        -11    1    4    4    0    0  0.22412447029E+02 -0.34673633600E+02 -0.35434156610E+01  0.41438320953E+02  0.00000000000E+00 0.  1.
         11    1    4    4    0    0 -0.85484171275E+02 -0.60376885652E+02 -0.10955415149E+02  0.10522800474E+03  0.00000000000E+00 0. -1.
          2    1    1    2  501    0 -0.61941613823E+02 -0.79878861977E+02  0.62485813442E+02  0.11883548710E+03  0.00000000000E+00 0. -1.
<scales pt_clust_5="13000.00000" pt_clust_6="13000.00000" pt_clust_7="13000.00000" pt_clust_8="13000.00000" pt_clust_9="101.08119"></scales>
<clustering>
<clus scale="   75.577">  5  6 -1 -1</clus>
<clus scale="   91.039">  7  8 -1 -1</clus>
<clus scale="  101.081">  2  9  1 -1</clus>
<clus scale="  194.526">  1  5  2 -1</clus>
<clus scale="  101.081">  2  5  1 -1</clus>
</clustering>
</event>
<event>
 9    1  0.9171696E-005  0.1125701E+03  0.7546771E-02  0.1257844E+00
         21   -1    0    0  501  502  0.00000000000E+00  0.00000000000E+00  0.14533446018E+03  0.14533446018E+03  0.00000000000E+00 0.  1.
          3   -1    0    0  502    0 -0.00000000000E+00 -0.00000000000E+00 -0.38561238075E+03  0.38561238075E+03  0.00000000000E+00 0. -1.
         23    2    1    2    0    0 -0.70141839930E+02 -0.43686408410E+01 -0.28752680452E+03  0.30955944214E+03  0.90644482266E+02 0.  0.
        -24    2    1    2    0    0  0.27793561324E+02 -0.23283978871E+02  0.10802238614E+03  0.14232120724E+03  0.85275227340E+02 0.  0.
         11    1    4    4    0    0  0.16876452320E+02  0.21938263062E+02  0.34817833509E+01  0.27896681602E+02  0.00000000000E+00 0. -1.
        -12    1    4    4    0    0  0.10917109004E+02 -0.45222241933E+02  0.10454060279E+03  0.11442452563E+03  0.00000000000E+00 0.  1.
        -11    1    3    3    0    0 -0.47280972846E+02  0.41756662124E+02 -0.16581066795E+03  0.17740430331E+03  0.00000000000E+00 0.  1.
         11    1    3    3    0    0 -0.22860867084E+02 -0.46125302965E+02 -0.12171613657E+03  0.13215513883E+03  0.00000000000E+00 0. -1.
          4    1    1    2  501    0  0.42348278606E+02  0.27652619712E+02 -0.60773502190E+02  0.79066191551E+02  0.00000000000E+00 0. -1.
<scales pt_clust_5="13000.00000" pt_clust_6="13000.00000" pt_clust_7="13000.00000" pt_clust_8="13000.00000" pt_clust_9="50.57714"></scales>
<clustering>
<clus scale="   50.577">  1  9  2 -1</clus>
<clus scale="   85.275">  5  6 -1 -1</clus>
<clus scale="   90.644">  7  8 -1 -1</clus>
<clus scale="  108.293">  1  5  2 -1</clus>
<clus scale="   50.577">  1  5  2 -1</clus>
</clustering>
</event>
<event>
 9    1  0.9171696E-005  0.1954656E+03  0.7546771E-02  0.1154820E+00
          1   -1    0    0  502    0 -0.00000000000E+00  0.00000000000E+00  0.95149000264E+03  0.95149000264E+03  0.00000000000E+00 0. -1.
         21   -1    0    0  501  502  0.00000000000E+00 -0.00000000000E+00 -0.63360620622E+02  0.63360620622E+02  0.00000000000E+00 0. -1.
         23    2    1    2    0    0 -0.87652210304E+02  0.16800026019E+03  0.62248951142E+03  0.65704076870E+03  0.91117410604E+02 0.  0.
        -24    2    1    2    0    0  0.21806055671E+02 -0.14819307419E+03  0.20744079706E+03  0.26772560034E+03  0.78794806240E+02 0.  0.
         11    1    4    4    0    0 -0.16867096834E+02 -0.72391283017E+02  0.52658206258E+02  0.91092719241E+02  0.00000000000E+00 0. -1.
        -12    1    4    4    0    0  0.38673152505E+02 -0.75801791176E+02  0.15478259080E+03  0.17663288110E+03  0.00000000000E+00 0.  1.
        -13    1    3    3    0    0 -0.57559158163E+02  0.70264167631E+02  0.42552103360E+03  0.43510718217E+03  0.00000000000E+00 0. -1.
         13    1    3    3    0    0 -0.30093052141E+02  0.97736092562E+02  0.19696847782E+03  0.22193358653E+03  0.00000000000E+00 0.  1.
          2    1    1    2  501    0  0.65846154633E+02 -0.19807186000E+02  0.58199073538E+02  0.90084254217E+02  0.00000000000E+00 0. -1.
<scales pt_clust_5="13000.00000" pt_clust_6="13000.00000" pt_clust_7="13000.00000" pt_clust_8="13000.00000" pt_clust_9="68.76075"></scales>
<clustering>
<clus scale="   68.761">  2  9  1 -1</clus>
<clus scale="   78.795">  5  6 -1 -1</clus>
<clus scale="   91.117">  7  8 -1 -1</clus>
<clus scale="  190.034">  2  5  1 -1</clus>
<clus scale="   68.761">  2  5  1 -1</clus>
</clustering>
</event>
<event>
 9    1  0.9171696E-005  0.1002910E+03  0.7546771E-02  0.1282467E+00
         -2   -1    0    0    0  501 -0.00000000000E+00  0.00000000000E+00  0.65141507461E+02  0.65141507461E+02  0.00000000000E+00 0.  1.
         21   -1    0    0  501  502  0.00000000000E+00 -0.00000000000E+00 -0.19257824917E+03  0.19257824917E+03  0.00000000000E+00 0. -1.
         23    2    1    2    0    0  0.33808157074E+02  0.28388194359E+02 -0.43249353499E+02  0.10645369801E+03  0.86677575986E+02 0.  0.
        -24    2    1    2    0    0 -0.33832785214E+02 -0.50143513693E+02 -0.80908973286E+02  0.12926509204E+03  0.80648451573E+02 0.  0.
         13    1    4    4    0    0  0.18625104800E+02 -0.40235772803E+02 -0.21119946159E+02  0.49110732713E+02  0.00000000000E+00 0. -1.
        -14    1    4    4    0    0 -0.52457890014E+02 -0.99077408897E+01 -0.59789027127E+02  0.80154359326E+02  0.00000000000E+00 0.  1.
        -11    1    3    3    0    0  0.24087262918E+02 -0.28251605824E+02 -0.50973127395E+01  0.37474418790E+02  0.00000000000E+00 0.  1.
         11    1    3    3    0    0  0.97208941565E+01  0.56639800183E+02 -0.38152040759E+02  0.68979279223E+02  0.00000000000E+00 0. -1.
         -1    1    1    2    0  502  0.24628139697E-01  0.21755319334E+02 -0.32784149222E+01  0.22000966575E+02  0.00000000000E+00 0.  1.
<scales pt_clust_5="13000.00000" pt_clust_6="13000.00000" pt_clust_7="13000.00000" pt_clust_8="13000.00000" pt_clust_9="21.75534"></scales>
<clustering>
<clus scale="   21.755">  2  9  1 -1</clus>
<clus scale="   80.648">  5  6 -1 -1</clus>
<clus scale="   86.678">  7  8 -1 -1</clus>
<clus scale="   95.129">  2  5  1 -1</clus>
<clus scale="   21.755">  2  5  1 -1</clus>
</clustering>
</event>
<event>
 9    1  0.9171696E-005  0.8541386E+02  0.7546771E-02  0.1316795E+00
         21   -1    0    0  501  502  0.00000000000E+00  0.00000000000E+00  0.19539025268E+03  0.19539025268E+03  0.00000000000E+00 0.  1.
         -4   -1    0    0    0  501 -0.00000000000E+00 -0.00000000000E+00 -0.14672512066E+03  0.14672512066E+03  0.00000000000E+00 0.  1.
         23    2    1    2    0    0 -0.86777169595E+01 -0.38945539103E+01 -0.37086522555E+01  0.83076000847E+02  0.82446330988E+02 0.  0.
        -24    2    1    2    0    0  0.62289415851E+02 -0.50848437587E+02  0.11442338793E+03  0.16044341573E+03  0.78637414838E+02 0.  0.
         11    1    4    4    0    0  0.46398502463E+02 -0.50752594697E+02  0.30842344410E+02  0.75365092104E+02  0.00000000000E+00 0. -1.
        -12    1    4    4    0    0  0.15890913388E+02 -0.95842890311E-01  0.83581043524E+02  0.85078323625E+02  0.00000000000E+00 0.  1.
        -11    1    3    3    0    0 -0.33866771799E+02  0.24208044274E+02  0.10191191994E+02  0.42858465137E+02  0.00000000000E+00 0. -1.
         11    1    3    3    0    0  0.25189054839E+02 -0.28102598184E+02 -0.13899844250E+02  0.40217535710E+02  0.00000000000E+00 0.  1.
         -3    1    1    2    0  502 -0.53611698892E+02  0.54742991497E+02 -0.62049603655E+02  0.98595956763E+02  0.00000000000E+00 0.  1.
<scales pt_clust_5="13000.00000" pt_clust_6="13000.00000" pt_clust_7="13000.00000" pt_clust_8="13000.00000" pt_clust_9="76.62255"></scales>
<clustering>
<clus scale="   76.623">  1  9  2 -1</clus>
<clus scale="   78.637">  5  6 -1 -1</clus>
<clus scale="   81.743">  1  5  2 -1</clus>
<clus scale="   82.446">  7  8 -1 -1</clus>
<clus scale="   76.623">  1  5  2 -1</clus>
</clustering>
</event>
<event>
 9    1  0.9171696E-005  0.1035678E+03  0.7546771E-02  0.1278970E+00
         21   -1    0    0  501  502  0.00000000000E+00  0.00000000000E+00  0.18687094349E+03  0.18687094349E+03  0.00000000000E+00 0. -1.
         -4   -1    0    0    0  501 -0.00000000000E+00 -0.00000000000E+00 -0.95997314443E+02  0.95997314443E+02  0.00000000000E+00 0.  1.
         23    2    1    2    0    0 -0.55035328157E+02 -0.66280187589E+01 -0.33910652563E+02  0.11294145206E+03  0.92374353897E+02 0.  0.
        -24    2    1    2    0    0  0.26164128191E+02  0.12267746679E+01  0.76649324625E+02  0.11353803297E+03  0.79559407905E+02 0.  0.
         11    1    4    4    0    0  0.89198120076E+01 -0.38971450407E+02  0.38358797917E+02  0.55405183609E+02  0.00000000000E+00 0. -1.
        -12    1    4    4    0    0  0.17244316184E+02  0.40198225075E+02  0.38290526708E+02  0.58132849366E+02  0.00000000000E+00 0.  1.
        -13    1    3    3    0    0  0.25179655403E+01  0.25855673936E+02 -0.38777431491E+02  0.46674888518E+02  0.00000000000E+00 0.  1.
         13    1    3    3    0    0 -0.57553293697E+02 -0.32483692694E+02  0.48667789274E+01  0.66266563541E+02  0.00000000000E+00 0. -1.
         -3    1    1    2    0  502  0.28871199965E+02  0.54012440910E+01  0.48134956987E+02  0.56388772901E+02  0.00000000000E+00 0.  1.
<scales pt_clust_5="13000.00000" pt_clust_6="13000.00000" pt_clust_7="13000.00000" pt_clust_8="13000.00000" pt_clust_9="29.37209"></scales>
<clustering>
<clus scale="   29.372">  1  9  2 -1</clus>
<clus scale="   79.559">  5  6 -1 -1</clus>
<clus scale="   92.320">  1  5  2 -1</clus>
<clus scale="   92.374">  7  8 -1 -1</clus>
<clus scale="   29.372">  1  5  2 -1</clus>
</clustering>
</event>
<event>
 9    1  0.9171696E-005  0.5677671E+03  0.7546771E-02  0.9976073E-01
          1   -1    0    0  502    0 -0.00000000000E+00  0.00000000000E+00  0.17447764774E+04  0.17447764774E+04  0.00000000000E+00 0. -1.
         21   -1    0    0  501  502  0.00000000000E+00 -0.00000000000E+00 -0.38146748857E+03  0.38146748857E+03  0.00000000000E+00 0.  1.
        -24    2    1    2    0    0 -0.25775016429E+03  0.59036437447E+03  0.10697306593E+04  0.12507443899E+04  0.71222211805E+02 0.  0.
         23    2    1    2    0    0 -0.51079307712E+02 -0.46758446533E+03  0.25053003982E+03  0.54038212784E+03  0.89460691592E+02 0.  0.
         11    1    3    3    0    0 -0.91863521176E+01  0.54348311138E+02  0.65628220077E+02  0.85704091263E+02  0.00000000000E+00 0. -1.
        -12    1    3    3    0    0 -0.24856381217E+03  0.53601606333E+03  0.10041024393E+04  0.11650402986E+04  0.00000000000E+00 0.  1.
        -13    1    4    4    0    0 -0.35027300107E+02 -0.50812174873E+02  0.31865392504E+02  0.69456404367E+02  0.00000000000E+00 0. -1.
         13    1    4    4    0    0 -0.16052007605E+02 -0.41677229046E+03  0.21866464732E+03  0.47092572347E+03  0.00000000000E+00 0.  1.
          2    1    1    2  501    0  0.30882947200E+03 -0.12277990914E+03  0.43048289631E+02  0.33511744822E+03  0.00000000000E+00 0. -1.
<scales pt_clust_5="13000.00000" pt_clust_6="13000.00000" pt_clust_7="13000.00000" pt_clust_8="13000.00000" pt_clust_9="332.34101"></scales>
<clustering>
<clus scale="   71.222">  5  6 -1 -1</clus>
<clus scale="   89.461">  7  8 -1 -1</clus>
<clus scale="  332.341">  2  9  1 -1</clus>
<clus scale="  565.180">  1  5  2 -1</clus>
<clus scale="  332.341">  2  5  1 -1</clus>
</clustering>
</event>
<event>
 9    1  0.9171696E-005  0.1027190E+03  0.7546771E-02  0.1282402E+00
         -2   -1    0    0    0  501 -0.00000000000E+00  0.00000000000E+00  0.32676388615E+03  0.32676388615E+03  0.00000000000E+00 0.  1.
         21   -1    0    0  501  502  0.00000000000E+00 -0.00000000000E+00 -0.15966336511E+03  0.15966336511E+03  0.00000000000E+00 0. -1.
         23    2    1    2    0    0  0.80166543450E+01 -0.30796382141E+02  0.17675449509E+03  0.20366481910E+03  0.96044380911E+02 0.  0.
        -24    2    1    2    0    0 -0.82729489408E+02  0.56754364978E+02 -0.99706389376E+02  0.16290726080E+03  0.80821934997E+02 0.  0.
         13    1    4    4    0    0 -0.81038052193E+02  0.61784222165E+02 -0.51075241992E+02  0.11398743947E+03  0.00000000000E+00 0. -1.
        -14    1    4    4    0    0 -0.16914372148E+01 -0.50298571869E+01 -0.48631147384E+02  0.48919821331E+02  0.00000000000E+00 0.  1.
        -11    1    3    3    0    0 -0.26657777691E+02 -0.53471354715E+02  0.10398423856E+03  0.11992724776E+03  0.00000000000E+00 0.  1.
         11    1    3    3    0    0  0.34674432036E+02  0.22674972575E+02  0.72770256530E+02  0.83737571339E+02  0.00000000000E+00 0. -1.
         -1    1    1    2    0  502  0.74712835063E+02 -0.25957982837E+02  0.90052415330E+02  0.11985517137E+03  0.00000000000E+00 0.  1.
<scales pt_clust_5="13000.00000" pt_clust_6="13000.00000" pt_clust_7="13000.00000" pt_clust_8="13000.00000" pt_clust_9="79.09381"></scales>
<clustering>
<clus scale="   79.094">  2  9  1 -1</clus>
<clus scale="   80.822">  5  6 -1 -1</clus>
<clus scale="   88.650">  2  5  1 -1</clus>
<clus scale="   96.044">  7  8 -1 -1</clus>
<clus scale="   79.094">  2  5  1 -1</clus>
</clustering>
</event>
<event>
 9    1  0.9171696E-005  0.1153931E+03  0.7546771E-02  0.1255102E+00
          1   -1    0    0  502    0 -0.00000000000E+00  0.00000000000E+00  0.58164983773E+03  0.58164983773E+03  0.00000000000E+00 0. -1.
         21   -1    0    0  501  502  0.00000000000E+00 -0.00000000000E+00 -0.14109057837E+03  0.14109057837E+03  0.00000000000E+00 0. -1.
         23    2    1    2    0    0 -0.58136975844E+02 -0.23379429474E+02  0.44323400726E+03  0.45692708721E+03  0.91648634207E+02 0.  0.
        -24    2    1    2    0    0  0.95626766411E+02  0.73128536157E+02  0.77839979615E+02  0.16401411789E+03  0.79682540041E+02 0.  0.
         11    1    4    4    0    0  0.13254734492E+02  0.33695131581E+02  0.61313073239E+02  0.71206339807E+02  0.00000000000E+00 0. -1.
        -12    1    4    4    0    0  0.82372031920E+02  0.39433404575E+02  0.16526906376E+02  0.92807778087E+02  0.00000000000E+00 0.  1.
        -11    1    3    3    0    0 -0.27677363503E+02 -0.54724056574E+02  0.32798324339E+03  0.33366714966E+03  0.00000000000E+00 0.  1.
         11    1    3    3    0    0 -0.30459612341E+02  0.31344627100E+02  0.11525076387E+03  0.12325993755E+03  0.00000000000E+00 0. -1.
          2    1    1    2  501    0 -0.37489790567E+02 -0.49749106683E+02 -0.80514727517E+02  0.10179921100E+03  0.00000000000E+00 0. -1.
<scales pt_clust_5="13000.00000" pt_clust_6="13000.00000" pt_clust_7="13000.00000" pt_clust_8="13000.00000" pt_clust_9="62.29332"></scales>
<clustering>
<clus scale="   62.293">  2  9  1 -1</clus>
<clus scale="   79.683">  5  6 -1 -1</clus>
<clus scale="   91.649">  7  8 -1 -1</clus>
<clus scale="  106.139">  2  5  1 -1</clus>
<clus scale="   62.293">  2  5  1 -1</clus>
</clustering>
</event>
<event>
 9    1  0.9171696E-005  0.1040976E+03  0.7546771E-02  0.1276003E+00
         21   -1    0    0  501  502  0.00000000000E+00  0.00000000000E+00  0.12064375716E+03  0.12064375716E+03  0.00000000000E+00 0.  1.
          1   -1    0    0  502    0 -0.00000000000E+00 -0.00000000000E+00 -0.33251647949E+03  0.33251647949E+03  0.00000000000E+00 0. -1.
         23    2    1    2    0    0  0.55209037612E+00  0.50908363271E+02 -0.25697965380E+03  0.27697828228E+03  0.89924747067E+02 0.  0.
        -24    2    1    2    0    0  0.94586134590E+01 -0.68950704027E+02  0.81637376761E+02  0.13422705376E+03  0.80675744331E+02 0.  0.
         13    1    4    4    0    0  0.30679923509E+02 -0.76689336525E+00  0.81382261372E+01  0.31750221363E+02  0.00000000000E+00 0. -1.
        -14    1    4    4    0    0 -0.21221310050E+02 -0.68183810661E+02  0.73499150624E+02  0.10247683240E+03  0.00000000000E+00 0.  1.
        -11    1    3    3    0    0  0.33406810317E+02 -0.77689884658E+01 -0.63909473365E+02  0.72531323876E+02  0.00000000000E+00 0.  1.
         11    1    3    3    0    0 -0.32854719941E+02  0.58677351737E+02 -0.19307018043E+03  0.20444695841E+03  0.00000000000E+00 0. -1.
          2    1    1    2  501    0 -0.10010703835E+02  0.18042340756E+02 -0.36530445291E+02  0.41954900601E+02  0.00000000000E+00 0. -1.
<scales pt_clust_5="13000.00000" pt_clust_6="13000.00000" pt_clust_7="13000.00000" pt_clust_8="13000.00000" pt_clust_9="20.63348"></scales>
<clustering>
<clus scale="   20.633">  1  9  2 -1</clus>
<clus scale="   80.676">  5  6 -1 -1</clus>
<clus scale="   89.925">  7  8 -1 -1</clus>
<clus scale="   96.221">  1  5  2 -1</clus>
<clus scale="   20.633">  1  5  2 -1</clus>
</clustering>
</event>
<event>
 9    1  0.9171696E-005  0.9412188E+02  0.7546771E-02  0.1297741E+00
         21   -1    0    0  501  502  0.00000000000E+00  0.00000000000E+00  0.19469475199E+03  0.19469475199E+03  0.00000000000E+00 0.  1.
          1   -1    0    0  502    0 -0.00000000000E+00 -0.00000000000E+00 -0.18433628526E+03  0.18433628526E+03  0.00000000000E+00 0. -1.
         23    2    1    2    0    0  0.52369114618E+01 -0.20146718587E+02 -0.14082033282E+03  0.16880526389E+03  0.90727809792E+02 0.  0.
        -24    2    1    2    0    0 -0.12482559051E+02  0.50308003789E+02  0.61651125423E+02  0.11547659412E+03  0.82748250725E+02 0.  0.
         13    1    4    4    0    0 -0.36075270597E+02  0.59034315269E+02  0.30964871553E+02  0.75797749295E+02  0.00000000000E+00 0. -1.
        -14    1    4    4    0    0  0.23592711545E+02 -0.87263114799E+01  0.30686253869E+02  0.39678844825E+02  0.00000000000E+00 0.  1.
        -13    1    3    3    0    0 -0.24013975511E+02 -0.46673846433E+02 -0.67271020361E+02  0.85325899591E+02  0.00000000000E+00 0. -1.
         13    1    3    3    0    0  0.29250886972E+02  0.26527127846E+02 -0.73549312457E+02  0.83479364296E+02  0.00000000000E+00 0.  1.
          2    1    1    2  501    0  0.72456475895E+01 -0.30161285202E+02  0.89527674121E+02  0.94749179245E+02  0.00000000000E+00 0. -1.
<scales pt_clust_5="13000.00000" pt_clust_6="13000.00000" pt_clust_7="13000.00000" pt_clust_8="13000.00000" pt_clust_9="31.01939"></scales>
<clustering>
<clus scale="   31.019">  1  9  2 -1</clus>
<clus scale="   82.748">  5  6 -1 -1</clus>
<clus scale="   86.456">  1  5  2 -1</clus>
<clus scale="   90.728">  7  8 -1 -1</clus>
<clus scale="   31.019">  1  5  2 -1</clus>
</clustering>
</event>
<event>
 9    1  0.9171696E-005  0.1437269E+03  0.7546771E-02  0.1210529E+00
         -4   -1    0    0    0  501 -0.00000000000E+00  0.00000000000E+00  0.92592219816E+02  0.92592219816E+02  0.00000000000E+00 0.  1.
         21   -1    0    0  501  502  0.00000000000E+00 -0.00000000000E+00 -0.27238477808E+03  0.27238477808E+03  0.00000000000E+00 0.  1.
         23    2    1    2    0    0 -0.10748099238E+03 -0.78309538299E+01 -0.78088667102E+02  0.16103634030E+03  0.90671800503E+02 0.  0.
        -24    2    1    2    0    0  0.11632957375E+03 -0.14310608529E+02 -0.10900022435E+03  0.17900508755E+03  0.80152412408E+02 0.  0.
         13    1    4    4    0    0  0.25537132252E+02 -0.32827909243E+02 -0.87710910203E+01  0.42505867673E+02  0.00000000000E+00 0. -1.
        -14    1    4    4    0    0  0.90792441498E+02  0.18517300715E+02 -0.10022913333E+03  0.13649921988E+03  0.00000000000E+00 0.  1.
        -11    1    3    3    0    0 -0.87557302005E+02 -0.44438739503E+02 -0.45966683430E+02  0.10841595219E+03  0.00000000000E+00 0.  1.
         11    1    3    3    0    0 -0.19923690373E+02  0.36607785674E+02 -0.32121983672E+02  0.52620388112E+02  0.00000000000E+00 0. -1.
         -3    1    1    2    0  502 -0.88485813715E+01  0.22141562358E+02  0.72963331828E+01  0.24935570053E+02  0.00000000000E+00 0.  1.
<scales pt_clust_5="13000.00000" pt_clust_6="13000.00000" pt_clust_7="13000.00000" pt_clust_8="13000.00000" pt_clust_9="23.84422"></scales>
<clustering>
<clus scale="   23.844">  2  9  1 -1</clus>
<clus scale="   80.152">  5  6 -1 -1</clus>
<clus scale="   90.672">  7  8 -1 -1</clus>
<clus scale="  137.333">  2  5  1 -1</clus>
<clus scale="   23.844">  2  5  1 -1</clus>
</clustering>
</event>
<event>
 9    1  0.9171696E-005  0.1147376E+03  0.7546771E-02  0.1257259E+00
         -4   -1    0    0    0  501 -0.00000000000E+00  0.00000000000E+00  0.11281085481E+03  0.11281085481E+03  0.00000000000E+00 0.  1.
         21   -1    0    0  501  502  0.00000000000E+00 -0.00000000000E+00 -0.38967944709E+03  0.38967944709E+03  0.00000000000E+00 0.  1.
         23    2    1    2    0    0  0.27639942368E+01 -0.65214301470E+02  0.59999581753E+02  0.12973809168E+03  0.94717885541E+02 0.  0.
        -24    2    1    2    0    0 -0.45267440007E+02  0.57001743094E+02 -0.28604938905E+03  0.30599490406E+03  0.80686358807E+02 0.  0.
         11    1    4    4    0    0 -0.39443466447E+02  0.48373420225E+01 -0.48428336311E+02  0.62645755491E+02  0.00000000000E+00 0. -1.
        -12    1    4    4    0    0 -0.58239735605E+01  0.52164401071E+02 -0.23762105274E+03  0.24334914857E+03  0.00000000000E+00 0.  1.
        -11    1    3    3    0    0 -0.16528092819E+02 -0.59851275387E+02 -0.44488914469E+01  0.62250667890E+02  0.00000000000E+00 0.  1.
         11    1    3    3    0    0  0.19292087056E+02 -0.53630260828E+01  0.64448473200E+02  0.67487423788E+02  0.00000000000E+00 0. -1.
         -3    1    1    2    0  502  0.42503445770E+02  0.82125583763E+01 -0.50818784992E+02  0.66757306158E+02  0.00000000000E+00 0.  1.
<scales pt_clust_5="13000.00000" pt_clust_6="13000.00000" pt_clust_7="13000.00000" pt_clust_8="13000.00000" pt_clust_9="43.28959"></scales>
<clustering>
<clus scale="   43.290">  2  9  1 -1</clus>
<clus scale="   80.686">  5  6 -1 -1</clus>
<clus scale="   94.718">  7  8 -1 -1</clus>
<clus scale="  103.458">  2  5  1 -1</clus>
<clus scale="   43.290">  2  5  1 -1</clus>
</clustering>
</event>
<event>
 9    1  0.9171696E-005  0.1733250E+03  0.7546771E-02  0.1176017E+00
          1   -1    0    0  502    0 -0.00000000000E+00  0.00000000000E+00  0.56087719612E+03  0.56087719612E+03  0.00000000000E+00 0. -1.
         21   -1    0    0  501  502  0.00000000000E+00 -0.00000000000E+00 -0.30661373642E+03  0.30661373642E+03  0.00000000000E+00 0.  1.
         23    2    1    2    0    0 -0.11717965887E+03 -0.86370821507E+02  0.49743722478E+03  0.52638063378E+03  0.91879202000E+02 0.  0.
        -24    2    1    2    0    0  0.11119910810E+03  0.12919512118E+03 -0.15845298068E+03  0.24599300832E+03  0.79678052665E+02 0.  0.
         11    1    4    4    0    0  0.13412707939E+02  0.26173137139E+02  0.45785133023E+01  0.29764015623E+02  0.00000000000E+00 0. -1.
        -12    1    4    4    0    0  0.97786400161E+02  0.10302198404E+03 -0.16303149398E+03  0.21622899270E+03  0.00000000000E+00 0.  1.
        -11    1    3    3    0    0 -0.88296811303E+02 -0.85365464942E+02  0.47252576219E+03  0.48822554770E+03  0.00000000000E+00 0. -1.
         11    1    3    3    0    0 -0.28882847571E+02 -0.10053565655E+01  0.24911462591E+02  0.38155086084E+02  0.00000000000E+00 0.  1.
          2    1    1    2  501    0  0.59805507752E+01 -0.42824299675E+02 -0.84720784402E+02  0.95117290436E+02  0.00000000000E+00 0. -1.
<scales pt_clust_5="13000.00000" pt_clust_6="13000.00000" pt_clust_7="13000.00000" pt_clust_8="13000.00000" pt_clust_9="43.23988"></scales>
<clustering>
<clus scale="   43.240">  2  9  1 -1</clus>
<clus scale="   79.678">  5  6 -1 -1</clus>
<clus scale="   91.879">  7  8 -1 -1</clus>
<clus scale="  167.178">  2  5  1 -1</clus>
<clus scale="   43.240">  2  5  1 -1</clus>
</clustering>
</event>
<event>
 9    1  0.9171696E-005  0.1664357E+03  0.7546771E-02  0.1184240E+00
          1   -1    0    0  502    0 -0.00000000000E+00  0.00000000000E+00  0.26878450828E+03  0.26878450828E+03  0.00000000000E+00 0. -1.
         21   -1    0    0  501  502  0.00000000000E+00 -0.00000000000E+00 -0.22415889024E+03  0.22415889024E+03  0.00000000000E+00 0. -1.
        -24    2    1    2    0    0 -0.27847685364E+02 -0.16510235608E+03  0.10558772469E+03  0.21272480962E+03  0.77902474025E+02 0.  0.
         23    2    1    2    0    0  0.55505089502E+02  0.50982350631E+02 -0.98881336684E+02  0.15682419821E+03  0.95583970217E+02 0.  0.
         11    1    3    3    0    0 -0.36715791918E+02 -0.16655676297E+03  0.10975548068E+03  0.20281881128E+03  0.00000000000E+00 0. -1.
        -12    1    3    3    0    0  0.88681065541E+01  0.14544068875E+01 -0.41677559911E+01  0.99059983470E+01  0.00000000000E+00 0.  1.
        -13    1    4    4    0    0  0.37285187646E+02  0.27185489689E+02  0.70998933801E+01  0.46686663550E+02  0.00000000000E+00 0.  1.
         13    1    4    4    0    0  0.18219901855E+02  0.23796860942E+02 -0.10598123006E+03  0.11013753466E+03  0.00000000000E+00 0. -1.
          2    1    1    2  501    0 -0.27657404137E+02  0.11412000545E+03  0.37919230038E+02  0.12339439069E+03  0.00000000000E+00 0. -1.
<scales pt_clust_5="13000.00000" pt_clust_6="13000.00000" pt_clust_7="13000.00000" pt_clust_8="13000.00000" pt_clust_9="117.42368"></scales>
<clustering>
<clus scale="   77.902">  5  6 -1 -1</clus>
<clus scale="   95.584">  7  8 -1 -1</clus>
<clus scale="  117.424">  2  9  1 -1</clus>
<clus scale="  156.950">  1  5  2 -1</clus>
<clus scale="  117.424">  2  5  1 -1</clus>
</clustering>
</event>
<event>
 9    1  0.9171696E-005  0.9688869E+02  0.7546771E-02  0.1293349E+00
         -2   -1    0    0    0  501 -0.00000000000E+00  0.00000000000E+00  0.37882273445E+03  0.37882273445E+03  0.00000000000E+00 0.  1.
         21   -1    0    0  501  502  0.00000000000E+00 -0.00000000000E+00 -0.22654242597E+03  0.22654242597E+03  0.00000000000E+00 0.  1.
        -24    2    1    2    0    0  0.32989022532E+02 -0.25132713881E+02  0.27633998182E+03  0.29082862567E+03  0.80607537153E+02 0.  0.
         23    2    1    2    0    0  0.17759747182E+02  0.74624106359E+01  0.67336945425E+02  0.11573929402E+03  0.92142410259E+02 0.  0.
         11    1    3    3    0    0 -0.10642739278E+02  0.23203638203E+02  0.76305621790E+02  0.80462566712E+02  0.00000000000E+00 0. -1.
        -12    1    3    3    0    0  0.43631761810E+02 -0.48336352084E+02  0.20003436003E+03  0.21036605896E+03  0.00000000000E+00 0.  1.
        -11    1    4    4    0    0 -0.34999359092E+02  0.17082191367E+02  0.18140222951E+02  0.42963054913E+02  0.00000000000E+00 0. -1.
         11    1    4    4    0    0  0.52759106275E+02 -0.96197807306E+01  0.49196722474E+02  0.72776239106E+02  0.00000000000E+00 0.  1.
         -1    1    1    2    0  502 -0.50748769715E+02  0.17670303246E+02 -0.19139661876E+03  0.19879724072E+03  0.00000000000E+00 0.  1.
<scales pt_clust_5="13000.00000" pt_clust_6="13000.00000" pt_clust_7="13000.00000" pt_clust_8="13000.00000" pt_clust_9="53.73711"></scales>
<clustering>
<clus scale="   53.737">  2  9  1 -1</clus>
<clus scale="   80.608">  5  6 -1 -1</clus>
<clus scale="   85.993">  1  5  2 -1</clus>
<clus scale="   92.142">  7  8 -1 -1</clus>
<clus scale="   53.737">  2  5  1 -1</clus>
</clustering>
</event>
<event>
 9    1  0.9171696E-005  0.1557951E+03  0.7546771E-02  0.1194898E+00
         21   -1    0    0  501  502  0.00000000000E+00  0.00000000000E+00  0.15596894860E+03  0.15596894860E+03  0.00000000000E+00 0.  1.
         -2   -1    0    0    0  501 -0.00000000000E+00 -0.00000000000E+00 -0.37304772689E+03  0.37304772689E+03  0.00000000000E+00 0.  1.
         23    2    1    2    0    0  0.10099369461E+03 -0.60853753143E+02 -0.90932533088E+02  0.17505972506E+03  0.92055831662E+02 0.  0.
        -24    2    1    2    0    0 -0.16659814820E+03 -0.51655214469E+02 -0.39671689461E+02  0.19762377763E+03  0.84012560810E+02 0.  0.
         11    1    4    4    0    0 -0.31234503444E+02 -0.71735780738E+01  0.25487257389E+02  0.40946974454E+02  0.00000000000E+00 0. -1.
        -12    1    4    4    0    0 -0.13536364476E+03 -0.44481636395E+02 -0.65158946850E+02  0.15667680318E+03  0.00000000000E+00 0.  1.
        -13    1    3    3    0    0  0.51930070308E+02 -0.55611943357E+02 -0.53555981489E+01  0.76276489679E+02  0.00000000000E+00 0.  1.
         13    1    3    3    0    0  0.49063624301E+02 -0.52418097855E+01 -0.85576934939E+02  0.98783235384E+02  0.00000000000E+00 0. -1.
         -1    1    1    2    0  502  0.65604453594E+02  0.11250896761E+03 -0.86474555748E+02  0.15633317280E+03  0.00000000000E+00 0.  1.
<scales pt_clust_5="13000.00000" pt_clust_6="13000.00000" pt_clust_7="13000.00000" pt_clust_8="13000.00000" pt_clust_9="130.23912"></scales>
<clustering>
<clus scale="   84.013">  5  6 -1 -1</clus>
<clus scale="   92.056">  7  8 -1 -1</clus>
<clus scale="  130.239">  1  9  2 -1</clus>
<clus scale="  151.182">  1  5  2 -1</clus>
<clus scale="  130.239">  1  5  2 -1</clus>
</clustering>
</event>
<event>
 9    1  0.9171696E-005  0.1402616E+03  0.7546771E-02  0.1257966E+00
          1   -1    0    0  502    0 -0.00000000000E+00  0.00000000000E+00  0.37018103923E+03  0.37018103923E+03  0.00000000000E+00 0. -1.
         21   -1    0    0  501  502  0.00000000000E+00 -0.00000000000E+00 -0.17258984411E+03  0.17258984411E+03  0.00000000000E+00 0. -1.
        -24    2    1    2    0    0 -0.12247941152E+02  0.46388157241E+01  0.10261243679E+02  0.56782344691E+02  0.54290062378E+02 0.  0.
         23    2    1    2    0    0  0.17986314339E+02  0.10170962641E+03  0.30043973547E+03  0.33062849450E+03  0.91557692858E+02 0.  0.
         13    1    3    3    0    0  0.15648564408E+02  0.16306095564E+02 -0.46407126501E+01  0.23071682524E+02  0.00000000000E+00 0. -1.
        -14    1    3    3    0    0 -0.27896505560E+02 -0.11667279840E+02  0.14901956329E+02  0.33710662167E+02  0.00000000000E+00 0.  1.
        -11    1    4    4    0    0  0.14820817613E+02  0.16788168369E+02  0.46480547373E+01  0.22871459174E+02  0.00000000000E+00 0.  1.
         11    1    4    4    0    0  0.31654967262E+01  0.84921458046E+02  0.29579168073E+03  0.30775703533E+03  0.00000000000E+00 0. -1.
          2    1    1    2  501    0 -0.57383731871E+01 -0.10634844214E+03 -0.11310978403E+03  0.15536004414E+03  0.00000000000E+00 0. -1.
<scales pt_clust_5="13000.00000" pt_clust_6="13000.00000" pt_clust_7="13000.00000" pt_clust_8="13000.00000" pt_clust_9="106.25678"></scales>
<clustering>
<clus scale="   54.290">  5  6 -1 -1</clus>
<clus scale="   55.848">  1  5  2 -1</clus>
<clus scale="   91.558">  7  8 -1 -1</clus>
<clus scale="  106.257">  2  9  1 -1</clus>
<clus scale="  106.257">  2  5  1 -1</clus>
</clustering>
</event>
<event>
 9    1  0.9171696E-005  0.1607348E+03  0.7546771E-02  0.1218852E+00
         21   -1    0    0  501  502  0.00000000000E+00  0.00000000000E+00  0.52501796328E+03  0.52501796328E+03  0.00000000000E+00 0. -1.
          3   -1    0    0  502    0 -0.00000000000E+00 -0.00000000000E+00 -0.71708411211E+02  0.71708411211E+02  0.00000000000E+00 0. -1.
        -24    2    1    2    0    0  0.67507936435E+00  0.16184290987E+02  0.44820330976E+02  0.93727082157E+02  0.80706361918E+02 0.  0.
         23    2    1    2    0    0 -0.34746184055E+02 -0.13630415271E+03  0.25330918301E+03  0.30382483219E+03  0.91421371160E+02 0.  0.
         11    1    3    3    0    0 -0.39610945773E+02  0.12923309325E+02  0.19231229023E+02  0.45889858560E+02  0.00000000000E+00 0. -1.
        -12    1    3    3    0    0  0.40286025137E+02  0.32609816622E+01  0.25589101953E+02  0.47837223597E+02  0.00000000000E+00 0.  1.
        -11    1    4    4    0    0  0.26470444986E+02 -0.76457245034E+02  0.10469160530E+03  0.13231298876E+03  0.00000000000E+00 0.  1.
         11    1    4    4    0    0 -0.61216629041E+02 -0.59846907676E+02  0.14861757772E+03  0.17151184343E+03  0.00000000000E+00 0. -1.
          4    1    1    2  501    0  0.34071104691E+02  0.12011986172E+03  0.15518003808E+03  0.19917446014E+03  0.00000000000E+00 0. -1.
<scales pt_clust_5="13000.00000" pt_clust_6="13000.00000" pt_clust_7="13000.00000" pt_clust_8="13000.00000" pt_clust_9="132.20372"></scales>
<clustering>
<clus scale="   80.706">  5  6 -1 -1</clus>
<clus scale="   82.316">  2  5  1 -1</clus>
<clus scale="   91.421">  7  8 -1 -1</clus>
<clus scale="  132.204">  1  9  2 -1</clus>
<clus scale="  132.204">  1  5  2 -1</clus>
</clustering>
</event>
<event>
 9    1  0.9171696E-005  0.9325579E+02  0.7546771E-02  0.1297522E+00
          1   -1    0    0  502    0 -0.00000000000E+00  0.00000000000E+00  0.26500087068E+03  0.26500087068E+03  0.00000000000E+00 0. -1.
         21   -1    0    0  501  502  0.00000000000E+00 -0.00000000000E+00 -0.17074125727E+03  0.17074125727E+03  0.00000000000E+00 0.  1.
         23    2    1    2    0    0  0.71840481606E+02 -0.64982343614E+01  0.17580473494E+03  0.20439549671E+03  0.75279030277E+02 0.  0.
        -24    2    1    2    0    0  0.50752900557E+01 -0.32300906868E+02  0.29043234810E+02  0.91163915307E+02  0.79989016823E+02 0.  0.
         11    1    4    4    0    0  0.17951538062E+02 -0.17188455410E+02  0.53898332831E+02  0.59352598933E+02  0.00000000000E+00 0. -1.
        -12    1    4    4    0    0 -0.12876248007E+02 -0.15112451458E+02 -0.24855098021E+02  0.31811316374E+02  0.00000000000E+00 0.  1.
        -13    1    3    3    0    0  0.55383194400E+02  0.16730980246E+02  0.53428704644E+02  0.78751827927E+02  0.00000000000E+00 0. -1.
         13    1    3    3    0    0  0.16457287207E+02 -0.23229214607E+02  0.12237603030E+03  0.12564366878E+03  0.00000000000E+00 0.  1.
          2    1    1    2  501    0 -0.76915771662E+02  0.38799141229E+02 -0.11058835633E+03  0.14018271594E+03  0.00000000000E+00 0. -1.
<scales pt_clust_5="13000.00000" pt_clust_6="13000.00000" pt_clust_7="13000.00000" pt_clust_8="13000.00000" pt_clust_9="86.14760"></scales>
<clustering>
<clus scale="   75.279">  7  8 -1 -1</clus>
<clus scale="   79.989">  5  6 -1 -1</clus>
<clus scale="   86.148">  2  9  1 -1</clus>
<clus scale="   89.249">  1  7  2 -1</clus>
<clus scale="   86.148">  2  5  1 -1</clus>
</clustering>
</event>
<event>
 9    1  0.9171696E-005  0.1054933E+03  0.7546771E-02  0.1273507E+00
         21   -1    0    0  501  502  0.00000000000E+00  0.00000000000E+00  0.32837546856E+03  0.32837546856E+03  0.00000000000E+00 0. -1.
          1   -1    0    0  502    0 -0.00000000000E+00 -0.00000000000E+00 -0.12006142636E+03  0.12006142636E+03  0.00000000000E+00 0. -1.
        -24    2    1    2    0    0  0.48966714742E+02 -0.45677003344E+01 -0.21338639592E+02  0.97046284684E+02  0.80895245796E+02 0.  0.
         23    2    1    2    0    0 -0.86282075710E+02 -0.22811189138E+01  0.26897191395E+03  0.29675230402E+03  0.90918861378E+02 0.  0.
         11    1    3    3    0    0  0.20001387002E+02 -0.42481011767E+02 -0.10067514415E+02  0.48021314947E+02  0.00000000000E+00 0. -1.
        -12    1    3    3    0    0  0.28965327740E+02  0.37913311433E+02 -0.11271125177E+02  0.49024969736E+02  0.00000000000E+00 0.  1.
        -13    1    4    4    0    0 -0.43886747133E+02 -0.41709273199E+02  0.88558237600E+02  0.10727661204E+03  0.00000000000E+00 0. -1.
         13    1    4    4    0    0 -0.42395328577E+02  0.39428154285E+02  0.18041367635E+03  0.18947569197E+03  0.00000000000E+00 0.  1.
          2    1    1    2  501    0  0.37315360968E+02  0.68488192482E+01 -0.39319232151E+02  0.54638306217E+02  0.00000000000E+00 0. -1.
<scales pt_clust_5="13000.00000" pt_clust_6="13000.00000" pt_clust_7="13000.00000" pt_clust_8="13000.00000" pt_clust_9="37.93869"></scales>
<clustering>
<clus scale="   37.939">  1  9  2 -1</clus>
<clus scale="   80.895">  5  6 -1 -1</clus>
<clus scale="   90.919">  7  8 -1 -1</clus>
<clus scale="   96.988">  2  5  1 -1</clus>
<clus scale="   37.939">  1  5  2 -1</clus>
</clustering>
</event>
<event>
 9    1  0.9171696E-005  0.9152437E+02  0.7546771E-02  0.1305685E+00
         21   -1    0    0  501  502  0.00000000000E+00  0.00000000000E+00  0.52470619993E+02  0.52470619993E+02  0.00000000000E+00 0.  1.
         -4   -1    0    0    0  501 -0.00000000000E+00 -0.00000000000E+00 -0.41867311395E+03  0.41867311395E+03  0.00000000000E+00 0.  1.
         23    2    1    2    0    0  0.21828566918E+02 -0.12834614633E+01 -0.21557274655E+03  0.23506487760E+03  0.91135909607E+02 0.  0.
        -24    2    1    2    0    0  0.56792573362E+02  0.21784383307E+02 -0.96827785168E+02  0.13863029229E+03  0.78375903271E+02 0.  0.
         11    1    4    4    0    0 -0.18406640083E+01 -0.24415250213E+02 -0.21576413211E+02  0.32634860104E+02  0.00000000000E+00 0. -1.
        -12    1    4    4    0    0  0.58633237370E+02  0.46199633521E+02 -0.75251371957E+02  0.10599543218E+03  0.00000000000E+00 0.  1.
        -13    1    3    3    0    0  0.13459532673E+01  0.43944830739E+02 -0.95656430070E+02  0.10527636179E+03  0.00000000000E+00 0.  1.
         13    1    3    3    0    0  0.20482613650E+02 -0.45228292202E+02 -0.11991631648E+03  0.12978851581E+03  0.00000000000E+00 0. -1.
         -3    1    1    2    0  502 -0.78621140279E+02 -0.20500921844E+02 -0.53801962236E+02  0.97448564051E+02  0.00000000000E+00 0.  1.
<scales pt_clust_5="13000.00000" pt_clust_6="13000.00000" pt_clust_7="13000.00000" pt_clust_8="13000.00000" pt_clust_9="81.25006"></scales>
<clustering>
<clus scale="   78.376">  5  6 -1 -1</clus>
<clus scale="   81.250">  1  9  2 -1</clus>
<clus scale="   81.250">  1  5  2 -1</clus>
<clus scale="   91.136">  7  8 -1 -1</clus>
<clus scale="   81.250">  1  5  2 -1</clus>
</clustering>
</event>
<event>
 9    1  0.9171696E-005  0.1203344E+03  0.7546771E-02  0.1246686E+00
          1   -1    0    0  502    0 -0.00000000000E+00  0.00000000000E+00  0.54889091652E+03  0.54889091652E+03  0.00000000000E+00 0. -1.
         21   -1    0    0  501  502  0.00000000000E+00 -0.00000000000E+00 -0.12953832336E+03  0.12953832336E+03  0.00000000000E+00 0.  1.
         23    2    1    2    0    0 -0.80807762574E+02  0.49349191390E+01  0.50264720873E+03  0.51695041858E+03  0.89606199035E+02 0.  0.
        -24    2    1    2    0    0  0.74130366743E+02  0.14810158504E+02 -0.42054272549E+02  0.11527036322E+03  0.76184268252E+02 0.  0.
         11    1    4    4    0    0  0.75249201566E+02  0.16944651196E+02 -0.41028020178E+01  0.77242452867E+02  0.00000000000E+00 0. -1.
        -12    1    4    4    0    0 -0.11188348230E+01 -0.21344926920E+01 -0.37951470532E+02  0.38027910354E+02  0.00000000000E+00 0.  1.
        -11    1    3    3    0    0 -0.62351309472E+02  0.41600216372E+02  0.38806084640E+03  0.39523345544E+03  0.00000000000E+00 0. -1.
         11    1    3    3    0    0 -0.18456453102E+02 -0.36665297233E+02  0.11458636233E+03  0.12171696314E+03  0.00000000000E+00 0.  1.
          2    1    1    2  501    0  0.66773958313E+01 -0.19745077643E+02 -0.41240343016E+02  0.46208458082E+02  0.00000000000E+00 0. -1.
<scales pt_clust_5="13000.00000" pt_clust_6="13000.00000" pt_clust_7="13000.00000" pt_clust_8="13000.00000" pt_clust_9="20.84360"></scales>
<clustering>
<clus scale="   20.844">  2  9  1 -1</clus>
<clus scale="   76.184">  5  6 -1 -1</clus>
<clus scale="   89.606">  7  8 -1 -1</clus>
<clus scale="  110.703">  2  5  1 -1</clus>
<clus scale="   20.844">  2  5  1 -1</clus>
</clustering>
</event>
<event>
 9    1  0.9171696E-005  0.1008480E+03  0.7546771E-02  0.1284045E+00
          1   -1    0    0  502    0 -0.00000000000E+00  0.00000000000E+00  0.49045120688E+03  0.49045120688E+03  0.00000000000E+00 0. -1.
         21   -1    0    0  501  502  0.00000000000E+00 -0.00000000000E+00 -0.89272520462E+02  0.89272520462E+02  0.00000000000E+00 0. -1.
         23    2    1    2    0    0  0.29510689941E+02  0.16433763933E+02  0.29691096935E+03  0.31211751419E+03  0.90112538132E+02 0.  0.
        -24    2    1    2    0    0 -0.34967659669E+02 -0.72359701642E+02  0.15525814635E+03  0.19172793625E+03  0.78713695687E+02 0.  0.
         11    1    4    4    0    0 -0.52702236630E+02 -0.77749560347E+02  0.12804270476E+03  0.15880004447E+03  0.00000000000E+00 0. -1.
        -12    1    4    4    0    0  0.17734576961E+02  0.53898587059E+01  0.27215441582E+02  0.32927891785E+02  0.00000000000E+00 0.  1.
        -13    1    3    3    0    0  0.46578215949E+02 -0.19499708821E+02  0.21768711322E+03  0.22346688369E+03  0.00000000000E+00 0. -1.
         13    1    3    3    0    0 -0.17067526009E+02  0.35933472755E+02  0.79223856131E+02  0.88650630503E+02  0.00000000000E+00 0.  1.
          2    1    1    2  501    0  0.54569697278E+01  0.55925937708E+02 -0.50990429276E+02  0.75878276897E+02  0.00000000000E+00 0. -1.
<scales pt_clust_5="13000.00000" pt_clust_6="13000.00000" pt_clust_7="13000.00000" pt_clust_8="13000.00000" pt_clust_9="56.19154"></scales>
<clustering>
<clus scale="   56.192">  2  9  1 -1</clus>
<clus scale="   78.714">  5  6 -1 -1</clus>
<clus scale="   90.113">  7  8 -1 -1</clus>
<clus scale="   90.807">  2  5  1 -1</clus>
<clus scale="   56.192">  2  5  1 -1</clus>
</clustering>
</event>
<event>
 9    1  0.9171696E-005  0.1937974E+03  0.7546771E-02  0.1185438E+00
          1   -1    0    0  502    0 -0.00000000000E+00  0.00000000000E+00  0.40719389443E+03  0.40719389443E+03  0.00000000000E+00 0. -1.
         21   -1    0    0  501  502  0.00000000000E+00 -0.00000000000E+00 -0.35954375404E+03  0.35954375404E+03  0.00000000000E+00 0. -1.
        -24    2    1    2    0    0 -0.44548436816E+02 -0.29643793427E+02 -0.22180382794E+03  0.24200533439E+03  0.80661800583E+02 0.  0.
         23    2    1    2    0    0 -0.12398146954E+03 -0.33211979222E+02  0.30284277351E+03  0.34178972799E+03  0.92908731224E+02 0.  0.
         11    1    3    3    0    0 -0.54613839689E+02 -0.49574260269E+02 -0.15699413861E+03  0.17345730981E+03  0.00000000000E+00 0. -1.
        -12    1    3    3    0    0  0.10065402874E+02  0.19930466842E+02 -0.64809689328E+02  0.68548024584E+02  0.00000000000E+00 0.  1.
        -13    1    4    4    0    0 -0.12563806027E+03 -0.93187694453E+01  0.28597489554E+03  0.31249544402E+03  0.00000000000E+00 0. -1.
         13    1    4    4    0    0  0.16565907273E+01 -0.23893209776E+02  0.16867877973E+02  0.29294283975E+02  0.00000000000E+00 0.  1.
          2    1    1    2  501    0  0.16852990636E+03  0.62855772648E+02 -0.33388805178E+02  0.18294258609E+03  0.00000000000E+00 0. -1.
<scales pt_clust_5="13000.00000" pt_clust_6="13000.00000" pt_clust_7="13000.00000" pt_clust_8="13000.00000" pt_clust_9="170.07464"></scales>
<clustering>
<clus scale="   80.662">  5  6 -1 -1</clus>
<clus scale="   92.909">  7  8 -1 -1</clus>
<clus scale="   96.797">  1  5  2 -1</clus>
<clus scale="  170.075">  2  9  1 -1</clus>
<clus scale="  170.075">  2  5  1 -1</clus>
</clustering>
</event>
<event>
 9    1  0.9171696E-005  0.1145789E+03  0.7546771E-02  0.1256057E+00
         21   -1    0    0  501  502  0.00000000000E+00  0.00000000000E+00  0.21804681199E+03  0.21804681199E+03  0.00000000000E+00 0.  1.
         -4   -1    0    0    0  501 -0.00000000000E+00 -0.00000000000E+00 -0.12256770687E+03  0.12256770687E+03  0.00000000000E+00 0.  1.
        -24    2    1    2    0    0  0.21351339485E+02  0.66623742237E+02 -0.64237651504E+02  0.12499263096E+03  0.81253179606E+02 0.  0.
         23    2    1    2    0    0 -0.45958752052E+02 -0.49386753164E+02  0.13583740209E+03  0.17724400210E+03  0.91719017629E+02 0.  0.
         13    1    3    3    0    0 -0.23346926370E+02  0.55901637306E+02 -0.29532026702E+02  0.67395939237E+02  0.00000000000E+00 0. -1.
        -14    1    3    3    0    0  0.44698265855E+02  0.10722104930E+02 -0.34705624801E+02  0.57596691723E+02  0.00000000000E+00 0.  1.
        -11    1    4    4    0    0 -0.40259733654E+02  0.11943739105E+01  0.99979656932E+01  0.41499783144E+02  0.00000000000E+00 0.  1.
         11    1    4    4    0    0 -0.56990183974E+01 -0.50581127074E+02  0.12583943640E+03  0.13574421895E+03  0.00000000000E+00 0. -1.
         -3    1    1    2    0  502  0.24607412567E+02 -0.17236989073E+02  0.23879354541E+02  0.38377885805E+02  0.00000000000E+00 0.  1.
<scales pt_clust_5="13000.00000" pt_clust_6="13000.00000" pt_clust_7="13000.00000" pt_clust_8="13000.00000" pt_clust_9="30.04394"></scales>
<clustering>
<clus scale="   30.044">  1  9  2 -1</clus>
<clus scale="   81.253">  5  6 -1 -1</clus>
<clus scale="   91.719">  7  8 -1 -1</clus>
<clus scale="  106.386">  2  5  1 -1</clus>
<clus scale="   30.044">  1  5  2 -1</clus>
</clustering>
</event>
<event>
 9    1  0.9171696E-005  0.1066242E+03  0.7546771E-02  0.1267357E+00
         21   -1    0    0  501  502  0.00000000000E+00  0.00000000000E+00  0.77597709434E+02  0.77597709434E+02  0.00000000000E+00 0. -1.
          1   -1    0    0  502    0 -0.00000000000E+00 -0.00000000000E+00 -0.32579319926E+03  0.32579319926E+03  0.00000000000E+00 0. -1.
        -24    2    1    2    0    0 -0.41974960601E+02 -0.57383059262E+02 -0.12564659772E+03  0.16480917819E+03  0.79500219416E+02 0.  0.
         23    2    1    2    0    0  0.11756670557E+02  0.76381609815E+02  0.90354460490E+00  0.11007260980E+03  0.78375974730E+02 0.  0.
         11    1    3    3    0    0 -0.45861150006E+02  0.31260117713E+01 -0.51631975870E+02  0.69129429057E+02  0.00000000000E+00 0. -1.
        -12    1    3    3    0    0  0.38861894049E+01 -0.60509071033E+02 -0.74014621854E+02  0.95679749130E+02  0.00000000000E+00 0.  1.
        -13    1    4    4    0    0  0.33240060949E+02  0.35196330746E+02  0.28366288624E+02  0.56109978436E+02  0.00000000000E+00 0. -1.
         13    1    4    4    0    0 -0.21483390391E+02  0.41185279069E+02 -0.27462744019E+02  0.53962631364E+02  0.00000000000E+00 0.  1.
          2    1    1    2  501    0  0.30218290044E+02 -0.18998550553E+02 -0.12345243670E+03  0.12850912070E+03  0.00000000000E+00 0. -1.
<scales pt_clust_5="13000.00000" pt_clust_6="13000.00000" pt_clust_7="13000.00000" pt_clust_8="13000.00000" pt_clust_9="35.69441"></scales>
<clustering>
<clus scale="   35.694">  1  9  2 -1</clus>
<clus scale="   78.376">  7  8 -1 -1</clus>
<clus scale="   79.500">  5  6 -1 -1</clus>
<clus scale="  105.789">  1  7  2 -1</clus>
<clus scale="   35.694">  1  5  2 -1</clus>
</clustering>
</event>
<event>
 9    1  0.9171696E-005  0.1271412E+03  0.7546771E-02  0.1240011E+00
         21   -1    0    0  501  502  0.00000000000E+00  0.00000000000E+00  0.59371410555E+02  0.59371410555E+02  0.00000000000E+00 0. -1.
          3   -1    0    0  502    0 -0.00000000000E+00 -0.00000000000E+00 -0.63961081525E+03  0.63961081525E+03  0.00000000000E+00 0. -1.
        -24    2    1    2    0    0  0.10883272162E+03  0.19144619102E+02 -0.21208235832E+03  0.24692639507E+03  0.61503171729E+02 0.  0.
         23    2    1    2    0    0 -0.35728820911E+02 -0.20050511949E+02 -0.28214258181E+02  0.10434028581E+03  0.91718477994E+02 0.  0.
         13    1    3    3    0    0  0.10878144079E+03  0.13696490182E+02 -0.21455305631E+03  0.24094399697E+03  0.00000000000E+00 0. -1.
        -14    1    3    3    0    0  0.51280828604E-01  0.54481289199E+01  0.24706979859E+01  0.59823980968E+01  0.00000000000E+00 0.  1.
        -13    1    4    4    0    0  0.19821020032E+02 -0.32412812529E+02  0.51996595977E+01  0.38347095210E+02  0.00000000000E+00 0. -1.
         13    1    4    4    0    0 -0.55549840943E+02  0.12362300580E+02 -0.33413917778E+02  0.65993190601E+02  0.00000000000E+00 0.  1.
          4    1    1    2  501    0 -0.73103900711E+02  0.90589284711E+00 -0.33994278819E+03  0.34771554493E+03  0.00000000000E+00 0. -1.
<scales pt_clust_5="13000.00000" pt_clust_6="13000.00000" pt_clust_7="13000.00000" pt_clust_8="13000.00000" pt_clust_9="73.10955"></scales>
<clustering>
<clus scale="   61.503">  5  6 -1 -1</clus>
<clus scale="   73.110">  1  9  2 -1</clus>
<clus scale="   91.718">  7  8 -1 -1</clus>
<clus scale="  107.402">  2  5  1 -1</clus>
<clus scale="   73.110">  1  5  2 -1</clus>
</clustering>
</event>
<event>
 9    1  0.9171696E-005  0.1013286E+03  0.7546771E-02  0.1287274E+00
         21   -1    0    0  501  502  0.00000000000E+00  0.00000000000E+00  0.86213579620E+02  0.86213579620E+02  0.00000000000E+00 0.  1.
          1   -1    0    0  502    0 -0.00000000000E+00 -0.00000000000E+00 -0.25803956446E+03  0.25803956446E+03  0.00000000000E+00 0. -1.
         23    2    1    2    0    0  0.11724923034E+02  0.29711355886E+02 -0.18185715480E+03  0.20753172711E+03  0.94747847031E+02 0.  0.
        -24    2    1    2    0    0 -0.49511491774E+02 -0.30014430425E+02 -0.55384986539E+01  0.95851731227E+02  0.76188093298E+02 0.  0.
         11    1    4    4    0    0 -0.32632340889E+01  0.22262585175E+02 -0.12444737696E+02  0.25712699036E+02  0.00000000000E+00 0. -1.
        -12    1    4    4    0    0 -0.46248257685E+02 -0.52277015601E+02  0.69062390417E+01  0.70139032191E+02  0.00000000000E+00 0.  1.
        -11    1    3    3    0    0  0.25691400347E+02  0.60471418950E+02 -0.12965280956E+03  0.14535023766E+03  0.00000000000E+00 0. -1.
         11    1    3    3    0    0 -0.13966477313E+02 -0.30760063063E+02 -0.52204345248E+02  0.62181489456E+02  0.00000000000E+00 0.  1.
          2    1    1    2  501    0  0.37786568740E+02  0.30307453911E+00  0.15569668619E+02  0.40869685737E+02  0.00000000000E+00 0. -1.
<scales pt_clust_5="13000.00000" pt_clust_6="13000.00000" pt_clust_7="13000.00000" pt_clust_8="13000.00000" pt_clust_9="37.78778"></scales>
<clustering>
<clus scale="   37.788">  1  9  2 -1</clus>
<clus scale="   76.188">  5  6 -1 -1</clus>
<clus scale="   84.232">  1  5  2 -1</clus>
<clus scale="   94.748">  7  8 -1 -1</clus>
<clus scale="   37.788">  1  5  2 -1</clus>
</clustering>
</event>
<event>
 9    1  0.9171696E-005  0.9121373E+02  0.7546771E-02  0.1306388E+00
          1   -1    0    0  502    0 -0.00000000000E+00  0.00000000000E+00  0.72482418038E+02  0.72482418038E+02  0.00000000000E+00 0. -1.
         21   -1    0    0  501  502  0.00000000000E+00 -0.00000000000E+00 -0.33870133687E+03  0.33870133687E+03  0.00000000000E+00 0.  1.
        -24    2    1    2    0    0  0.25438801482E+02 -0.24941224777E+01  0.22793399113E+01  0.82976789785E+02  0.78908801695E+02 0.  0.
         23    2    1    2    0    0  0.27995922294E+02 -0.37370506595E+01 -0.25651958243E+03  0.27309266653E+03  0.89328445243E+02 0.  0.
         11    1    3    3    0    0 -0.16868711576E+01  0.34781910605E+02  0.10008022043E+02  0.36232407384E+02  0.00000000000E+00 0. -1.
        -12    1    3    3    0    0  0.27125672640E+02 -0.37276033083E+02 -0.77286821316E+01  0.46744382401E+02  0.00000000000E+00 0.  1.
        -13    1    4    4    0    0  0.25719738655E+02 -0.45007339241E+02 -0.12833526095E+03  0.13840919314E+03  0.00000000000E+00 0.  1.
         13    1    4    4    0    0  0.22761836380E+01  0.41270288581E+02 -0.12818432148E+03  0.13468347339E+03  0.00000000000E+00 0. -1.
          2    1    1    2  501    0 -0.53434723775E+02  0.62311731372E+01 -0.11978676319E+02  0.55114298598E+02  0.00000000000E+00 0. -1.
<scales pt_clust_5="13000.00000" pt_clust_6="13000.00000" pt_clust_7="13000.00000" pt_clust_8="13000.00000" pt_clust_9="53.79684"></scales>
<clustering>
<clus scale="   53.797">  2  9  1 -1</clus>
<clus scale="   78.909">  5  6 -1 -1</clus>
<clus scale="   81.037">  1  5  2 -1</clus>
<clus scale="   89.328">  7  8 -1 -1</clus>
<clus scale="   53.797">  2  5  1 -1</clus>
</clustering>
</event>
<event>
 9    1  0.9171696E-005  0.1948387E+03  0.7546771E-02  0.1178776E+00
         21   -1    0    0  501  502  0.00000000000E+00  0.00000000000E+00  0.41141685736E+03  0.41141685736E+03  0.00000000000E+00 0. -1.
          3   -1    0    0  502    0 -0.00000000000E+00 -0.00000000000E+00 -0.27471466002E+03  0.27471466002E+03  0.00000000000E+00 0. -1.
         23    2    1    2    0    0  0.59171298990E+02 -0.13968697046E+02 -0.15312986358E+03  0.18888310013E+03  0.92367219693E+02 0.  0.
        -24    2    1    2    0    0  0.13113732558E+03  0.51662212662E+02  0.17768122068E+02  0.16309731291E+03  0.80118942460E+02 0.  0.
         11    1    4    4    0    0  0.82293472797E+02  0.70608556691E+02  0.22464113427E+01  0.10845658259E+03  0.00000000000E+00 0. -1.
        -12    1    4    4    0    0  0.48843852779E+02 -0.18946344029E+02  0.15521710725E+02  0.54640730322E+02  0.00000000000E+00 0.  1.
        -13    1    3    3    0    0  0.23582643555E+02 -0.52541235850E+02 -0.71059636540E+02  0.91466903779E+02  0.00000000000E+00 0.  1.
         13    1    3    3    0    0  0.35588655434E+02  0.38572538804E+02 -0.82070227038E+02  0.97416196351E+02  0.00000000000E+00 0. -1.
          4    1    1    2  501    0 -0.19030862457E+03 -0.37693515615E+02  0.27206393885E+03  0.33415110433E+03  0.00000000000E+00 0. -1.
<scales pt_clust_5="13000.00000" pt_clust_6="13000.00000" pt_clust_7="13000.00000" pt_clust_8="13000.00000" pt_clust_9="177.60367"></scales>
<clustering>
<clus scale="   80.119">  5  6 -1 -1</clus>
<clus scale="   92.367">  7  8 -1 -1</clus>
<clus scale="  110.581">  2  7  1 -1</clus>
<clus scale="  177.604">  1  9  2 -1</clus>
<clus scale="  177.604">  1  5  2 -1</clus>
</clustering>
</event>
<event>
 9    1  0.9171696E-005  0.1270485E+03  0.7546771E-02  0.1235315E+00
          1   -1    0    0  502    0 -0.00000000000E+00  0.00000000000E+00  0.15325365866E+03  0.15325365866E+03  0.00000000000E+00 0. -1.
         21   -1    0    0  501  502  0.00000000000E+00 -0.00000000000E+00 -0.78107212267E+03  0.78107212267E+03  0.00000000000E+00 0. -1.
         23    2    1    2    0    0 -0.79988613395E+02 -0.41105929883E+02  0.93273990151E+02  0.15886980355E+03  0.91933136019E+02 0.  0.
        -24    2    1    2    0    0  0.10338718319E+03 -0.60078859378E+02 -0.21342537162E+03  0.25727481126E+03  0.79633914017E+02 0.  0.
         13    1    4    4    0    0  0.67526019157E+02 -0.77524071238E+02 -0.13967111314E+03  0.17342942291E+03  0.00000000000E+00 0. -1.
        -14    1    4    4    0    0  0.35861164033E+02  0.17445211860E+02 -0.73754258483E+02  0.83845388347E+02  0.00000000000E+00 0.  1.
        -11    1    3    3    0    0 -0.41835000203E+02  0.24782560408E+02  0.55787146412E+02  0.74003704280E+02  0.00000000000E+00 0.  1.
         11    1    3    3    0    0 -0.38153613192E+02 -0.65888490292E+02  0.37486843739E+02  0.84866099274E+02  0.00000000000E+00 0. -1.
          2    1    1    2  501    0 -0.23398569795E+02  0.10118478926E+03 -0.50766708254E+03  0.51818116652E+03  0.00000000000E+00 0. -1.
<scales pt_clust_5="13000.00000" pt_clust_6="13000.00000" pt_clust_7="13000.00000" pt_clust_8="13000.00000" pt_clust_9="103.85497"></scales>
<clustering>
<clus scale="   79.634">  5  6 -1 -1</clus>
<clus scale="   91.933">  7  8 -1 -1</clus>
<clus scale="  103.855">  2  9  1 -1</clus>
<clus scale="  118.453">  2  5  1 -1</clus>
<clus scale="  103.855">  2  5  1 -1</clus>
</clustering>
</event>
<event>
 9    1  0.9171696E-005  0.1363651E+03  0.7546771E-02  0.1236593E+00
          1   -1    0    0  502    0 -0.00000000000E+00  0.00000000000E+00  0.10484802303E+03  0.10484802303E+03  0.00000000000E+00 0. -1.
         21   -1    0    0  501  502  0.00000000000E+00 -0.00000000000E+00 -0.36000524436E+03  0.36000524436E+03  0.00000000000E+00 0. -1.
         23    2    1    2    0    0 -0.34033975466E+01  0.18557160313E+02 -0.17059341326E+03  0.19445251513E+03  0.91398668911E+02 0.  0.
        -24    2    1    2    0    0 -0.10392406245E+03 -0.37379920126E+02 -0.89161704199E+01  0.13775066730E+03  0.81843014734E+02 0.  0.
         11    1    4    4    0    0 -0.77043910703E+02 -0.14384302653E+02  0.31118319742E+02  0.84326876871E+02  0.00000000000E+00 0. -1.
        -12    1    4    4    0    0 -0.26880151749E+02 -0.22995617474E+02 -0.40034490162E+02  0.53423790427E+02  0.00000000000E+00 0.  1.
        -11    1    3    3    0    0 -0.22540641124E+02  0.47773361122E+02 -0.68189575673E+02  0.86256552016E+02  0.00000000000E+00 0.  1.
         11    1    3    3    0    0  0.19137243578E+02 -0.29216200809E+02 -0.10240383759E+03  0.10819596311E+03  0.00000000000E+00 0. -1.
          2    1    1    2  501    0  0.10732746000E+03  0.18822759813E+02 -0.75647637652E+02  0.13265008496E+03  0.00000000000E+00 0. -1.
<scales pt_clust_5="13000.00000" pt_clust_6="13000.00000" pt_clust_7="13000.00000" pt_clust_8="13000.00000" pt_clust_9="109.07413"></scales>
<clustering>
<clus scale="   81.843">  5  6 -1 -1</clus>
<clus scale="   91.399">  7  8 -1 -1</clus>
<clus scale="   93.326">  1  7  2 -1</clus>
<clus scale="  109.074">  2  9  1 -1</clus>
<clus scale="  109.074">  2  5  1 -1</clus>
</clustering>
</event>
<event>
 9    1  0.9171696E-005  0.1216303E+03  0.7546771E-02  0.1244587E+00
         21   -1    0    0  501  502  0.00000000000E+00  0.00000000000E+00  0.22123381635E+03  0.22123381635E+03  0.00000000000E+00 0.  1.
         -2   -1    0    0    0  501 -0.00000000000E+00 -0.00000000000E+00 -0.16332945144E+03  0.16332945144E+03  0.00000000000E+00 0.  1.
         23    2    1    2    0    0  0.20002641051E+02 -0.86988568880E+02 -0.36053210402E+02  0.13381169939E+03  0.92944177600E+02 0.  0.
        -24    2    1    2    0    0 -0.92585873845E+02  0.17847238528E+02  0.85464702502E+02  0.15014849621E+03  0.79684926935E+02 0.  0.
         11    1    4    4    0    0 -0.21964837887E+01  0.26102145173E+02  0.42032949496E+02  0.49526915581E+02  0.00000000000E+00 0. -1.
        -12    1    4    4    0    0 -0.90389390056E+02 -0.82549066445E+01  0.43431753006E+02  0.10062158063E+03  0.00000000000E+00 0.  1.
        -11    1    3    3    0    0  0.18472416212E+02 -0.10710619795E+03 -0.30440903014E+02  0.11286990908E+03  0.00000000000E+00 0.  1.
         11    1    3    3    0    0  0.15302248387E+01  0.20117629067E+02 -0.56123073881E+01  0.20941790314E+02  0.00000000000E+00 0. -1.
         -1    1    1    2    0  502  0.72583232794E+02  0.69141330351E+02  0.84928728092E+01  0.10060307219E+03  0.00000000000E+00 0.  1.
<scales pt_clust_5="13000.00000" pt_clust_6="13000.00000" pt_clust_7="13000.00000" pt_clust_8="13000.00000" pt_clust_9="100.24400"></scales>
<clustering>
<clus scale="   79.685">  5  6 -1 -1</clus>
<clus scale="   92.944">  7  8 -1 -1</clus>
<clus scale="  100.244">  1  9  2 -1</clus>
<clus scale="  111.826">  1  5  2 -1</clus>
<clus scale="  100.244">  1  5  2 -1</clus>
</clustering>
</event>
<event>
 9    1  0.9171696E-005  0.1123968E+03  0.7546771E-02  0.1259961E+00
         21   -1    0    0  501  502  0.00000000000E+00  0.00000000000E+00  0.44050598367E+02  0.44050598367E+02  0.00000000000E+00 0. -1.
          1   -1    0    0  502    0 -0.00000000000E+00 -0.00000000000E+00 -0.58200639693E+03  0.58200639693E+03  0.00000000000E+00 0. -1.
        -24    2    1    2    0    0 -0.65965209388E+01 -0.61391639250E+02 -0.26014668053E+03  0.27945745835E+03  0.81287933769E+02 0.  0.
         23    2    1    2    0    0  0.33461239200E+02  0.73899174009E+02 -0.78811318534E+02  0.14540740063E+03  0.91385697896E+02 0.  0.
         11    1    3    3    0    0  0.24994184709E+02 -0.64884999548E+02 -0.16196695396E+03  0.17626135881E+03  0.00000000000E+00 0. -1.
        -12    1    3    3    0    0 -0.31590705648E+02  0.34933602984E+01 -0.98179726573E+02  0.10319609954E+03  0.00000000000E+00 0.  1.
        -13    1    4    4    0    0 -0.14634187483E+02  0.72400809801E+02 -0.43497515638E+02  0.85720887593E+02  0.00000000000E+00 0. -1.
         13    1    4    4    0    0  0.48095426683E+02  0.14983642085E+01 -0.35313802896E+02  0.59686513034E+02  0.00000000000E+00 0.  1.
          2    1    1    2  501    0 -0.26864718261E+02 -0.12507534759E+02 -0.19899779950E+03  0.20119213632E+03  0.00000000000E+00 0. -1.
<scales pt_clust_5="13000.00000" pt_clust_6="13000.00000" pt_clust_7="13000.00000" pt_clust_8="13000.00000" pt_clust_9="29.63364"></scales>
<clustering>
<clus scale="   29.634">  1  9  2 -1</clus>
<clus scale="   81.288">  5  6 -1 -1</clus>
<clus scale="   91.386">  7  8 -1 -1</clus>
<clus scale="  104.352">  2  5  1 -1</clus>
<clus scale="   29.634">  1  5  2 -1</clus>
</clustering>
</event>
<event>
 9    1  0.9171696E-005  0.1262215E+03  0.7546771E-02  0.1236634E+00
         -4   -1    0    0    0  501 -0.00000000000E+00  0.00000000000E+00  0.89295007416E+02  0.89295007416E+02  0.00000000000E+00 0.  1.
         21   -1    0    0  501  502  0.00000000000E+00 -0.00000000000E+00 -0.48233349181E+03  0.48233349181E+03  0.00000000000E+00 0. -1.
         23    2    1    2    0    0 -0.21188437438E+02  0.82752531206E+02  0.20315535346E+02  0.12728202801E+03  0.92146960757E+02 0.  0.
        -24    2    1    2    0    0  0.47704353311E+02 -0.80361585569E+02 -0.24739922186E+03  0.27626968710E+03  0.79905414568E+02 0.  0.
         13    1    4    4    0    0  0.66283551359E+02 -0.68365947234E+02 -0.16069445651E+03  0.18678897258E+03  0.00000000000E+00 0. -1.
        -14    1    4    4    0    0 -0.18579198048E+02 -0.11995638335E+02 -0.86704765342E+02  0.89480714527E+02  0.00000000000E+00 0.  1.
        -13    1    3    3    0    0  0.27490890365E+02  0.54442159844E+02 -0.12283463318E+02  0.62213995954E+02  0.00000000000E+00 0. -1.
         13    1    3    3    0    0 -0.48679327804E+02  0.28310371362E+02  0.32598998664E+02  0.65068032059E+02  0.00000000000E+00 0.  1.
         -3    1    1    2    0  502 -0.26515915873E+02 -0.23909456376E+01 -0.16595479789E+03  0.16807678411E+03  0.00000000000E+00 0.  1.
<scales pt_clust_5="13000.00000" pt_clust_6="13000.00000" pt_clust_7="13000.00000" pt_clust_8="13000.00000" pt_clust_9="26.62349"></scales>
<clustering>
<clus scale="   26.623">  2  9  1 -1</clus>
<clus scale="   79.905">  5  6 -1 -1</clus>
<clus scale="   92.147">  7  8 -1 -1</clus>
<clus scale="  117.583">  2  5  1 -1</clus>
<clus scale="   26.623">  2  5  1 -1</clus>
</clustering>
</event>
<event>
 9    1  0.9171696E-005  0.1309890E+03  0.7546771E-02  0.1247103E+00
          3   -1    0    0  502    0 -0.00000000000E+00  0.00000000000E+00  0.44790914640E+03  0.44790914640E+03  0.00000000000E+00 0. -1.
         21   -1    0    0  501  502  0.00000000000E+00 -0.00000000000E+00 -0.56609067258E+02  0.56609067258E+02  0.00000000000E+00 0.  1.
        -24    2    1    2    0    0 -0.17847594355E+02 -0.22375246595E+02  0.76560157342E+02  0.11447845750E+03  0.80154047023E+02 0.  0.
         23    2    1    2    0    0 -0.72230896768E+02 -0.37233601524E+02  0.15390284996E+03  0.19629788403E+03  0.90791676492E+02 0.  0.
         13    1    3    3    0    0 -0.97370898485E+01 -0.44438570940E+02  0.78670512062E+02  0.90877098182E+02  0.00000000000E+00 0. -1.
        -14    1    3    3    0    0 -0.81105045065E+01  0.22063324344E+02 -0.21103547199E+01  0.23601359315E+02  0.00000000000E+00 0.  1.
        -11    1    4    4    0    0  0.13897278029E+02 -0.32682316345E+02  0.41607401852E+02  0.54703235984E+02  0.00000000000E+00 0. -1.
         11    1    4    4    0    0 -0.86128174797E+02 -0.45512851789E+01  0.11229544811E+03  0.14159464805E+03  0.00000000000E+00 0.  1.
          4    1    1    2  501    0  0.90078491123E+02  0.59608848119E+02  0.16083707184E+03  0.19374187213E+03  0.00000000000E+00 0. -1.
<scales pt_clust_5="13000.00000" pt_clust_6="13000.00000" pt_clust_7="13000.00000" pt_clust_8="13000.00000" pt_clust_9="94.41921"></scales>
<clustering>
<clus scale="   80.154">  5  6 -1 -1</clus>
<clus scale="   85.111">  1  5  2 -1</clus>
<clus scale="   90.792">  7  8 -1 -1</clus>
<clus scale="   94.419">  2  9  1 -1</clus>
<clus scale="   94.419">  2  5  1 -1</clus>
</clustering>
</event>
<event>
 9    1  0.9171696E-005  0.1254124E+03  0.7546771E-02  0.1237563E+00
          1   -1    0    0  502    0 -0.00000000000E+00  0.00000000000E+00  0.38156068115E+03  0.38156068115E+03  0.00000000000E+00 0. -1.
         21   -1    0    0  501  502  0.00000000000E+00 -0.00000000000E+00 -0.94875582447E+02  0.94875582447E+02  0.00000000000E+00 0.  1.
        -24    2    1    2    0    0 -0.67414315287E+02 -0.30749193544E+02  0.76723009742E+02  0.13250584276E+03  0.78620451107E+02 0.  0.
         23    2    1    2    0    0  0.10369648339E+03  0.57509575353E+02  0.21708775317E+02  0.15035401769E+03  0.89859600405E+02 0.  0.
         13    1    3    3    0    0 -0.79683278225E+02 -0.98990314220E+01  0.72016789520E+02  0.10786025044E+03  0.00000000000E+00 0. -1.
        -14    1    3    3    0    0  0.12268962938E+02 -0.20850162122E+02  0.47062202215E+01  0.24645592321E+02  0.00000000000E+00 0.  1.
        -11    1    4    4    0    0  0.97106422709E+02  0.37400829779E+02 -0.17765445651E+02  0.10556557421E+03  0.00000000000E+00 0.  1.
         11    1    4    4    0    0  0.65900606843E+01  0.20108745574E+02  0.39474220968E+02  0.44788443480E+02  0.00000000000E+00 0. -1.
          2    1    1    2  501    0 -0.36282168105E+02 -0.26760381809E+02  0.18825331364E+03  0.19357640314E+03  0.00000000000E+00 0. -1.
<scales pt_clust_5="13000.00000" pt_clust_6="13000.00000" pt_clust_7="13000.00000" pt_clust_8="13000.00000" pt_clust_9="45.08343"></scales>
<clustering>
<clus scale="   45.083">  2  9  1 -1</clus>
<clus scale="   78.620">  5  6 -1 -1</clus>
<clus scale="   89.860">  7  8 -1 -1</clus>
<clus scale="  117.621">  1  5  2 -1</clus>
<clus scale="   45.083">  2  5  1 -1</clus>
</clustering>
</event>
<event>
 9    1  0.9171696E-005  0.1292012E+03  0.7546771E-02  0.1231557E+00
         21   -1    0    0  501  502  0.00000000000E+00  0.00000000000E+00  0.50285461786E+03  0.50285461786E+03  0.00000000000E+00 0.  1.
         -2   -1    0    0    0  501 -0.00000000000E+00 -0.00000000000E+00 -0.16603017473E+03  0.16603017473E+03  0.00000000000E+00 0.  1.
        -24    2    1    2    0    0  0.14950606021E+02 -0.99050885170E+02 -0.11530696871E+03  0.17236427463E+03  0.79869566560E+02 0.  0.
         23    2    1    2    0    0  0.30779148593E+01  0.52764673127E+02  0.11539059776E+03  0.15613571093E+03  0.90938363110E+02 0.  0.
         11    1    3    3    0    0 -0.15163560484E+02 -0.21663159738E+02 -0.76042317897E+02  0.80508758328E+02  0.00000000000E+00 0. -1.
        -12    1    3    3    0    0  0.30114166505E+02 -0.77387725431E+02 -0.39264650814E+02  0.91855516303E+02  0.00000000000E+00 0.  1.
        -13    1    4    4    0    0  0.36881497498E+02  0.11603976533E+02  0.88269171698E+02  0.96365677507E+02  0.00000000000E+00 0.  1.
         13    1    4    4    0    0 -0.33803582638E+02  0.41160696595E+02  0.27121426060E+02  0.59770033419E+02  0.00000000000E+00 0. -1.
         -1    1    1    2    0  502 -0.18028520880E+02  0.46286212042E+02  0.33674081409E+03  0.34038480704E+03  0.00000000000E+00 0.  1.
<scales pt_clust_5="13000.00000" pt_clust_6="13000.00000" pt_clust_7="13000.00000" pt_clust_8="13000.00000" pt_clust_9="49.67334"></scales>
<clustering>
<clus scale="   49.673">  1  9  2 -1</clus>
<clus scale="   79.870">  5  6 -1 -1</clus>
<clus scale="   90.938">  7  8 -1 -1</clus>
<clus scale="  121.665">  2  5  1 -1</clus>
<clus scale="   49.673">  1  5  2 -1</clus>
</clustering>
</event>
<event>
 9    1  0.9171696E-005  0.1887062E+03  0.7546771E-02  0.1161609E+00
          1   -1    0    0  502    0 -0.00000000000E+00  0.00000000000E+00  0.23224723769E+03  0.23224723769E+03  0.00000000000E+00 0. -1.
         21   -1    0    0  501  502  0.00000000000E+00 -0.00000000000E+00 -0.38614207878E+03  0.38614207878E+03  0.00000000000E+00 0. -1.
         23    2    1    2    0    0  0.16719256688E+03 -0.48016331553E+02  0.11906751774E+03  0.22931899694E+03  0.90284029945E+02 0.  0.
        -24    2    1    2    0    0 -0.12629093736E+03  0.83919964534E+02 -0.74380163900E+02  0.18316523872E+03  0.70888183692E+02 0.  0.
         13    1    4    4    0    0 -0.12472954227E+03  0.94625905552E+02 -0.69808789319E+02  0.17141991653E+03  0.00000000000E+00 0. -1.
        -14    1    4    4    0    0 -0.15613950826E+01 -0.10705941019E+02 -0.45713745809E+01  0.11745322186E+02  0.00000000000E+00 0.  1.
        -13    1    3    3    0    0  0.32078003034E+02 -0.27277324738E+02 -0.77968400361E+01  0.42823374902E+02  0.00000000000E+00 0.  1.
         13    1    3    3    0    0  0.13511456385E+03 -0.20739006815E+02  0.12686435777E+03  0.18649562204E+03  0.00000000000E+00 0. -1.
          2    1    1    2  501    0 -0.40901629524E+02 -0.35903632981E+02 -0.19858219493E+03  0.20590508080E+03  0.00000000000E+00 0. -1.
<scales pt_clust_5="13000.00000" pt_clust_6="13000.00000" pt_clust_7="13000.00000" pt_clust_8="13000.00000" pt_clust_9="54.42439"></scales>
<clustering>
<clus scale="   54.424">  2  9  1 -1</clus>
<clus scale="   70.888">  5  6 -1 -1</clus>
<clus scale="   90.284">  7  8 -1 -1</clus>
<clus scale="  180.233">  2  5  1 -1</clus>
<clus scale="   54.424">  2  5  1 -1</clus>
</clustering>
</event>
<event>
 9    1  0.9171696E-005  0.8969878E+02  0.7546771E-02  0.1308050E+00
         21   -1    0    0  501  502  0.00000000000E+00  0.00000000000E+00  0.50508929146E+02  0.50508929146E+02  0.00000000000E+00 0. -1.
         -2   -1    0    0    0  501 -0.00000000000E+00 -0.00000000000E+00 -0.39163109536E+03  0.39163109536E+03  0.00000000000E+00 0.  1.
         23    2    1    2    0    0  0.32573468175E+01 -0.26481317834E+02 -0.28912300982E+03  0.30293881462E+03  0.86417244202E+02 0.  0.
        -24    2    1    2    0    0 -0.26570825383E+02  0.96863457958E+01 -0.66386678804E+02  0.10706726879E+03  0.79097249433E+02 0.  0.
         13    1    4    4    0    0 -0.24568867549E+02 -0.16814895539E+02  0.56331668987E+01  0.30300206830E+02  0.00000000000E+00 0. -1.
        -14    1    4    4    0    0 -0.20019578333E+01  0.26501241335E+02 -0.72019845703E+02  0.76767061964E+02  0.00000000000E+00 0.  1.
        -11    1    3    3    0    0 -0.28189145680E+02  0.13928903113E+02 -0.55665109674E+02  0.63931578356E+02  0.00000000000E+00 0. -1.
         11    1    3    3    0    0  0.31446492498E+02 -0.40410220948E+02 -0.23345790014E+03  0.23900723626E+03  0.00000000000E+00 0.  1.
         -1    1    1    2    0  502  0.23313478565E+02  0.16794972039E+02  0.14387522412E+02  0.32133941086E+02  0.00000000000E+00 0.  1.
<scales pt_clust_5="13000.00000" pt_clust_6="13000.00000" pt_clust_7="13000.00000" pt_clust_8="13000.00000" pt_clust_9="28.73307"></scales>
<clustering>
<clus scale="   28.733">  1  9  2 -1</clus>
<clus scale="   79.097">  5  6 -1 -1</clus>
<clus scale="   82.670">  1  5  2 -1</clus>
<clus scale="   86.417">  7  8 -1 -1</clus>
<clus scale="   28.733">  1  5  2 -1</clus>
</clustering>
</event>
<event>
 9    1  0.9171696E-005  0.9592359E+02  0.7546771E-02  0.1293886E+00
         -4   -1    0    0    0  501 -0.00000000000E+00  0.00000000000E+00  0.41623049121E+02  0.41623049121E+02  0.00000000000E+00 0.  1.
         21   -1    0    0  501  502  0.00000000000E+00 -0.00000000000E+00 -0.49661284767E+03  0.49661284767E+03  0.00000000000E+00 0. -1.
        -24    2    1    2    0    0 -0.15449515026E+02  0.25963789277E+02 -0.31417778766E+02  0.91899718917E+02  0.80905349923E+02 0.  0.
         23    2    1    2    0    0  0.39479164044E+02 -0.42357965992E+02 -0.37311208851E+03  0.38809188436E+03  0.89721114810E+02 0.  0.
         11    1    3    3    0    0  0.32393892686E+02  0.61985874789E+01 -0.37218355353E+01  0.33190944998E+02  0.00000000000E+00 0. -1.
        -12    1    3    3    0    0 -0.47843407712E+02  0.19765201798E+02 -0.27695943231E+02  0.58708773919E+02  0.00000000000E+00 0.  1.
        -13    1    4    4    0    0 -0.21181218632E+02 -0.36249872242E+02 -0.20527681904E+03  0.20952629834E+03  0.00000000000E+00 0. -1.
         13    1    4    4    0    0  0.60660382676E+02 -0.61080937492E+01 -0.16783526947E+03  0.17856558602E+03  0.00000000000E+00 0.  1.
         -3    1    1    2    0  502 -0.24029649018E+02  0.16394176715E+02 -0.50459931276E+02  0.58244293510E+02  0.00000000000E+00 0.  1.
<scales pt_clust_5="13000.00000" pt_clust_6="13000.00000" pt_clust_7="13000.00000" pt_clust_8="13000.00000" pt_clust_9="29.08940"></scales>
<clustering>
<clus scale="   29.089">  2  9  1 -1</clus>
<clus scale="   80.905">  5  6 -1 -1</clus>
<clus scale="   87.733">  1  5  2 -1</clus>
<clus scale="   89.721">  7  8 -1 -1</clus>
<clus scale="   29.089">  2  5  1 -1</clus>
</clustering>
</event>
<event>
 9    1  0.9171696E-005  0.1043211E+03  0.7546771E-02  0.1273711E+00
         -2   -1    0    0    0  501 -0.00000000000E+00  0.00000000000E+00  0.17345202686E+03  0.17345202686E+03  0.00000000000E+00 0.  1.
         21   -1    0    0  501  502  0.00000000000E+00 -0.00000000000E+00 -0.18984225563E+03  0.18984225563E+03  0.00000000000E+00 0. -1.
         23    2    1    2    0    0  0.46414798146E+02 -0.64143493335E+01  0.12011909104E+03  0.15795081802E+03  0.91238081512E+02 0.  0.
        -24    2    1    2    0    0 -0.66750554121E+02  0.25847336371E+02 -0.67382603622E+02  0.13071312983E+03  0.86149786808E+02 0.  0.
         11    1    4    4    0    0 -0.15029376285E+02  0.48925834618E+02 -0.49795595368E+02  0.71408828324E+02  0.00000000000E+00 0. -1.
        -12    1    4    4    0    0 -0.51721177837E+02 -0.23078498247E+02 -0.17587008254E+02  0.59304301509E+02  0.00000000000E+00 0.  1.
        -11    1    3    3    0    0  0.49976670314E+02  0.33798537163E+02  0.56836542682E+02  0.82887883759E+02  0.00000000000E+00 0.  1.
         11    1    3    3    0    0 -0.35618721682E+01 -0.40212886497E+02  0.63282548359E+02  0.75062934265E+02  0.00000000000E+00 0. -1.
         -1    1    1    2    0  502  0.20335755975E+02 -0.19432987037E+02 -0.69126716193E+02  0.74630334636E+02  0.00000000000E+00 0.  1.
<scales pt_clust_5="13000.00000" pt_clust_6="13000.00000" pt_clust_7="13000.00000" pt_clust_8="13000.00000" pt_clust_9="28.12799"></scales>
<clustering>
<clus scale="   28.128">  2  9  1 -1</clus>
<clus scale="   86.150">  5  6 -1 -1</clus>
<clus scale="   91.238">  7  8 -1 -1</clus>
<clus scale="   99.901">  2  5  1 -1</clus>
<clus scale="   28.128">  2  5  1 -1</clus>
</clustering>
</event>
<event>
 9    1  0.9171696E-005  0.1398273E+03  0.7546771E-02  0.1216745E+00
         21   -1    0    0  501  502  0.00000000000E+00  0.00000000000E+00  0.88580127758E+02  0.88580127758E+02  0.00000000000E+00 0.  1.
          1   -1    0    0  502    0 -0.00000000000E+00 -0.00000000000E+00 -0.51055736338E+03  0.51055736338E+03  0.00000000000E+00 0. -1.
         23    2    1    2    0    0  0.71732655777E+02  0.44248450229E+02 -0.73672570722E+02  0.14480525261E+03  0.91855398612E+02 0.  0.
        -24    2    1    2    0    0 -0.50919146123E+02 -0.13551537139E+03 -0.10803602576E+03  0.19647205929E+03  0.77280734303E+02 0.  0.
         13    1    4    4    0    0  0.13544881660E+02 -0.70407687559E+02 -0.56993988709E+02  0.91591599154E+02  0.00000000000E+00 0. -1.
        -14    1    4    4    0    0 -0.64464027783E+02 -0.65107683831E+02 -0.51042037051E+02  0.10488046014E+03  0.00000000000E+00 0.  1.
        -13    1    3    3    0    0  0.54001958590E+02 -0.15874554172E+02 -0.56634752439E+02  0.79848031820E+02  0.00000000000E+00 0. -1.
         13    1    3    3    0    0  0.17730697187E+02  0.60123004401E+02 -0.17037818283E+02  0.64957220790E+02  0.00000000000E+00 0.  1.
          2    1    1    2  501    0 -0.20813509654E+02  0.91266921161E+02 -0.24026863914E+03  0.25786017924E+03  0.00000000000E+00 0. -1.
<scales pt_clust_5="13000.00000" pt_clust_6="13000.00000" pt_clust_7="13000.00000" pt_clust_8="13000.00000" pt_clust_9="93.61016"></scales>
<clustering>
<clus scale="   77.281">  5  6 -1 -1</clus>
<clus scale="   91.855">  7  8 -1 -1</clus>
<clus scale="   93.610">  1  9  2 -1</clus>
<clus scale="  130.716">  1  5  2 -1</clus>
<clus scale="   93.610">  1  5  2 -1</clus>
</clustering>
</event>
<event>
 9    1  0.9171696E-005  0.1525561E+03  0.7546771E-02  0.1198462E+00
          3   -1    0    0  502    0 -0.00000000000E+00  0.00000000000E+00  0.29422306609E+03  0.29422306609E+03  0.00000000000E+00 0. -1.
         21   -1    0    0  501  502  0.00000000000E+00 -0.00000000000E+00 -0.19814775083E+03  0.19814775083E+03  0.00000000000E+00 0. -1.
         23    2    1    2    0    0 -0.92378995933E+02 -0.94405809063E+02  0.20195382654E+03  0.25771875383E+03  0.90483547396E+02 0.  0.
        -24    2    1    2    0    0  0.36795855651E+02  0.96423453970E+02 -0.23567821795E+02  0.13531120555E+03  0.84274923039E+02 0.  0.
         13    1    4    4    0    0 -0.28282585985E+01  0.20096077131E+02 -0.42639127202E+02  0.47222309677E+02  0.00000000000E+00 0. -1.
        -14    1    4    4    0    0  0.39624114250E+02  0.76327376840E+02  0.19071305407E+02  0.88088895868E+02  0.00000000000E+00 0.  1.
        -11    1    3    3    0    0 -0.37054440196E+02 -0.16697589112E+02  0.77823856049E+01  0.41381234226E+02  0.00000000000E+00 0.  1.
         11    1    3    3    0    0 -0.55324555737E+02 -0.77708219951E+02  0.19417144093E+03  0.21633751961E+03  0.00000000000E+00 0. -1.
          4    1    1    2  501    0  0.55583140281E+02 -0.20176449069E+01 -0.82310689480E+02  0.99340857542E+02  0.00000000000E+00 0. -1.
<scales pt_clust_5="13000.00000" pt_clust_6="13000.00000" pt_clust_7="13000.00000" pt_clust_8="13000.00000" pt_clust_9="55.61975"></scales>
<clustering>
<clus scale="   55.620">  2  9  1 -1</clus>
<clus scale="   84.275">  5  6 -1 -1</clus>
<clus scale="   90.484">  7  8 -1 -1</clus>
<clus scale="  148.958">  2  5  1 -1</clus>
<clus scale="   55.620">  2  5  1 -1</clus>
</clustering>
</event>
<event>
 9    1  0.9171696E-005  0.1022088E+03  0.7546771E-02  0.1281087E+00
         21   -1    0    0  501  502  0.00000000000E+00  0.00000000000E+00  0.26591783000E+03  0.26591783000E+03  0.00000000000E+00 0. -1.
          1   -1    0    0  502    0 -0.00000000000E+00 -0.00000000000E+00 -0.42764813835E+03  0.42764813835E+03  0.00000000000E+00 0. -1.
         23    2    1    2    0    0 -0.11502223764E+02  0.74855262390E+02 -0.26251521456E+03  0.28715059932E+03  0.88349404958E+02 0.  0.
        -24    2    1    2    0    0  0.24238022398E+02 -0.22840760041E+02 -0.13820791020E+03  0.16149645322E+03  0.76619161508E+02 0.  0.
         11    1    4    4    0    0  0.35012429848E+02  0.18274337362E+02 -0.51206537704E+02  0.64667852551E+02  0.00000000000E+00 0. -1.
        -12    1    4    4    0    0 -0.10774407451E+02 -0.41115097403E+02 -0.87001372501E+02  0.96828600669E+02  0.00000000000E+00 0.  1.
        -13    1    3    3    0    0 -0.50116491046E+02  0.39691035565E+02 -0.15302397472E+03  0.16584142371E+03  0.00000000000E+00 0. -1.
         13    1    3    3    0    0  0.38614267282E+02  0.35164226825E+02 -0.10949123984E+03  0.12130917561E+03  0.00000000000E+00 0.  1.
          2    1    1    2  501    0 -0.12735798634E+02 -0.52014502348E+02  0.23899281642E+03  0.24491891581E+03  0.00000000000E+00 0. -1.
<scales pt_clust_5="13000.00000" pt_clust_6="13000.00000" pt_clust_7="13000.00000" pt_clust_8="13000.00000" pt_clust_9="53.55099"></scales>
<clustering>
<clus scale="   53.551">  1  9  2 -1</clus>
<clus scale="   76.619">  5  6 -1 -1</clus>
<clus scale="   88.349">  7  8 -1 -1</clus>
<clus scale="   92.258">  1  5  2 -1</clus>
<clus scale="   53.551">  1  5  2 -1</clus>
</clustering>
</event>
<event>
 9    1  0.9171696E-005  0.2940978E+03  0.7546771E-02  0.1100966E+00
         21   -1    0    0  501  502  0.00000000000E+00  0.00000000000E+00  0.23612876432E+03  0.23612876432E+03  0.00000000000E+00 0. -1.
          1   -1    0    0  502    0 -0.00000000000E+00 -0.00000000000E+00 -0.10329332814E+04  0.10329332814E+04  0.00000000000E+00 0. -1.
        -24    2    1    2    0    0 -0.19079129244E+03 -0.40373149565E+02 -0.49802382828E+03  0.54073126405E+03  0.79569201975E+02 0.  0.
         23    2    1    2    0    0 -0.95781833351E+02  0.18234587179E+03 -0.33795871758E+03  0.40612692044E+03  0.91097772519E+02 0.  0.
         11    1    3    3    0    0 -0.15338719550E+03 -0.34569387051E+02 -0.46370599911E+03  0.48963856862E+03  0.00000000000E+00 0. -1.
        -12    1    3    3    0    0 -0.37404096941E+02 -0.58037625139E+01 -0.34317829169E+02  0.51092695429E+02  0.00000000000E+00 0.  1.
        -11    1    4    4    0    0 -0.69994959819E+02  0.56403575640E+02 -0.18952362422E+03  0.20976144041E+03  0.00000000000E+00 0.  1.
         11    1    4    4    0    0 -0.25786873532E+02  0.12594229615E+03 -0.14843509335E+03  0.19636548003E+03  0.00000000000E+00 0. -1.
          2    1    1    2  501    0  0.28657312579E+03 -0.14197272223E+03  0.39178028736E+02  0.32220386127E+03  0.00000000000E+00 0. -1.
<scales pt_clust_5="13000.00000" pt_clust_6="13000.00000" pt_clust_7="13000.00000" pt_clust_8="13000.00000" pt_clust_9="279.63322"></scales>
<clustering>
<clus scale="   79.569">  5  6 -1 -1</clus>
<clus scale="   91.098">  7  8 -1 -1</clus>
<clus scale="  210.624">  2  5  1 -1</clus>
<clus scale="  279.633">  1  9  2 -1</clus>
<clus scale="  279.633">  1  5  2 -1</clus>
</clustering>
</event>
<event>
 9    1  0.9171696E-005  0.9243393E+02  0.7546771E-02  0.1299501E+00
         21   -1    0    0  501  502  0.00000000000E+00  0.00000000000E+00  0.10527675836E+03  0.10527675836E+03  0.00000000000E+00 0. -1.
          3   -1    0    0  502    0 -0.00000000000E+00 -0.00000000000E+00 -0.41260236050E+03  0.41260236050E+03  0.00000000000E+00 0. -1.
        -24    2    1    2    0    0 -0.42905822030E+02 -0.17787325802E+02 -0.35101258622E+03  0.36299614460E+03  0.79994167203E+02 0.  0.
         23    2    1    2    0    0  0.51847753409E+02 -0.94492320891E+01 -0.11607338379E+02  0.92599346249E+02  0.75249126910E+02 0.  0.
         13    1    3    3    0    0  0.18374782047E+02 -0.19049611460E+02 -0.59681907065E+02  0.65287443991E+02  0.00000000000E+00 0. -1.
        -14    1    3    3    0    0 -0.61280604076E+02  0.12622856584E+01 -0.29133067916E+03  0.29770870061E+03  0.00000000000E+00 0.  1.
        -13    1    4    4    0    0  0.29948885608E+01  0.24684835477E+02 -0.20648024124E+02  0.32321066817E+02  0.00000000000E+00 0.  1.
         13    1    4    4    0    0  0.48852864849E+02 -0.34134067566E+02  0.90406857443E+01  0.60278279431E+02  0.00000000000E+00 0. -1.
          4    1    1    2  501    0 -0.89419313798E+01  0.27236557891E+02  0.55294322455E+02  0.62283628012E+02  0.00000000000E+00 0. -1.
<scales pt_clust_5="13000.00000" pt_clust_6="13000.00000" pt_clust_7="13000.00000" pt_clust_8="13000.00000" pt_clust_9="28.66685"></scales>
<clustering>
<clus scale="   28.667">  1  9  2 -1</clus>
<clus scale="   75.249">  7  8 -1 -1</clus>
<clus scale="   79.994">  5  6 -1 -1</clus>
<clus scale="   88.359">  1  7  2 -1</clus>
<clus scale="   28.667">  1  5  2 -1</clus>
</clustering>
</event>
<event>
 9    1  0.9171696E-005  0.1014390E+03  0.7546771E-02  0.1282339E+00
         -2   -1    0    0    0  501 -0.00000000000E+00  0.00000000000E+00  0.22249138849E+03  0.22249138849E+03  0.00000000000E+00 0.  1.
         21   -1    0    0  501  502  0.00000000000E+00 -0.00000000000E+00 -0.28110427678E+03  0.28110427678E+03  0.00000000000E+00 0. -1.
         23    2    1    2    0    0 -0.34540876970E+02  0.28960688626E+02  0.19062636308E+03  0.21606792447E+03  0.91187411508E+02 0.  0.
        -24    2    1    2    0    0  0.54254843535E+02  0.11199940906E+02 -0.15738209823E+03  0.18535507701E+03  0.80736317783E+02 0.  0.
         11    1    4    4    0    0  0.25498951380E+02 -0.35092249681E+02 -0.72408495931E+02  0.84407658374E+02  0.00000000000E+00 0. -1.
        -12    1    4    4    0    0  0.28755892155E+02  0.46292190587E+02 -0.84973602295E+02  0.10094741864E+03  0.00000000000E+00 0.  1.
        -13    1    3    3    0    0 -0.61974198385E+02  0.22181505547E+00  0.11795368279E+03  0.13324384320E+03  0.00000000000E+00 0.  1.
         13    1    3    3    0    0  0.27433321415E+02  0.28738873571E+02  0.72672680283E+02  0.82824081266E+02  0.00000000000E+00 0. -1.
         -1    1    1    2    0  502 -0.19713966565E+02 -0.40160629533E+02 -0.91857153144E+02  0.10217266379E+03  0.00000000000E+00 0.  1.
<scales pt_clust_5="13000.00000" pt_clust_6="13000.00000" pt_clust_7="13000.00000" pt_clust_8="13000.00000" pt_clust_9="44.73831"></scales>
<clustering>
<clus scale="   44.738">  2  9  1 -1</clus>
<clus scale="   80.736">  5  6 -1 -1</clus>
<clus scale="   91.187">  7  8 -1 -1</clus>
<clus scale="   92.158">  2  5  1 -1</clus>
<clus scale="   44.738">  2  5  1 -1</clus>
</clustering>
</event>
<event>
 9    1  0.9171696E-005  0.1056378E+03  0.7546771E-02  0.1272521E+00
         21   -1    0    0  501  502  0.00000000000E+00  0.00000000000E+00  0.16676375792E+03  0.16676375792E+03  0.00000000000E+00 0. -1.
          3   -1    0    0  502    0 -0.00000000000E+00 -0.00000000000E+00 -0.19071593770E+03  0.19071593770E+03  0.00000000000E+00 0. -1.
        -24    2    1    2    0    0 -0.41769559527E+02  0.26924249491E+02 -0.10889593969E+03  0.14434194235E+03  0.80663866314E+02 0.  0.
         23    2    1    2    0    0  0.71875975521E+02 -0.32567065509E+02 -0.38227638339E+01  0.11923496634E+03  0.89306181546E+02 0.  0.
         13    1    3    3    0    0 -0.38915985895E+02  0.32827662379E+02 -0.12061115455E+03  0.13091661459E+03  0.00000000000E+00 0. -1.
        -14    1    3    3    0    0 -0.28535736319E+01 -0.59034128877E+01  0.11715214862E+02  0.13425327760E+02  0.00000000000E+00 0.  1.
        -13    1    4    4    0    0  0.21240385498E+02  0.24362478331E+02  0.21646456894E+02  0.38900558127E+02  0.00000000000E+00 0.  1.
         13    1    4    4    0    0  0.50635590023E+02 -0.56929543840E+02 -0.25469220728E+02  0.80334408215E+02  0.00000000000E+00 0. -1.
          4    1    1    2  501    0 -0.30106415994E+02  0.56428160178E+01  0.88766523737E+02  0.93902786928E+02  0.00000000000E+00 0. -1.
<scales pt_clust_5="13000.00000" pt_clust_6="13000.00000" pt_clust_7="13000.00000" pt_clust_8="13000.00000" pt_clust_9="30.63067"></scales>
<clustering>
<clus scale="   30.631">  1  9  2 -1</clus>
<clus scale="   80.664">  5  6 -1 -1</clus>
<clus scale="   89.306">  7  8 -1 -1</clus>
<clus scale="   98.440">  2  5  1 -1</clus>
<clus scale="   30.631">  1  5  2 -1</clus>
</clustering>
</event>
<event>
 9    1  0.9171696E-005  0.1748226E+03  0.7546771E-02  0.1188413E+00
         21   -1    0    0  501  502  0.00000000000E+00  0.00000000000E+00  0.27698203093E+03  0.27698203093E+03  0.00000000000E+00 0. -1.
          1   -1    0    0  502    0 -0.00000000000E+00 -0.00000000000E+00 -0.33559842427E+03  0.33559842427E+03  0.00000000000E+00 0. -1.
        -24    2    1    2    0    0 -0.59911196317E+02 -0.50529767344E+02 -0.18251216470E+03  0.22033021183E+03  0.95352520410E+02 0.  0.
         23    2    1    2    0    0 -0.10124011759E+03  0.41969845674E+02 -0.51853121678E+02  0.15364871019E+03  0.94382999319E+02 0.  0.
         13    1    3    3    0    0 -0.78009721229E+02 -0.12182780377E+02 -0.98635667486E+02  0.12634449590E+03  0.00000000000E+00 0. -1.
        -14    1    3    3    0    0  0.18098524912E+02 -0.38346986967E+02 -0.83876497212E+02  0.93985715925E+02  0.00000000000E+00 0.  1.
        -11    1    4    4    0    0 -0.66276890696E+02 -0.18623443980E+02 -0.41365970696E+01  0.68967893554E+02  0.00000000000E+00 0. -1.
         11    1    4    4    0    0 -0.34963226896E+02  0.60593289654E+02 -0.47716524609E+02  0.84680816639E+02  0.00000000000E+00 0.  1.
          2    1    1    2  501    0  0.16115131391E+03  0.85599216702E+01  0.17574889303E+03  0.23860153318E+03  0.00000000000E+00 0. -1.
<scales pt_clust_5="13000.00000" pt_clust_6="13000.00000" pt_clust_7="13000.00000" pt_clust_8="13000.00000" pt_clust_9="147.15566"></scales>
<clustering>
<clus scale="   94.383">  7  8 -1 -1</clus>
<clus scale="   95.353">  5  6 -1 -1</clus>
<clus scale="  123.429">  2  5  1 -1</clus>
<clus scale="  147.156">  1  9  2 -1</clus>
<clus scale="  147.156">  1  5  2 -1</clus>
</clustering>
</event>
<event>
 9    1  0.9171696E-005  0.2581245E+03  0.7546771E-02  0.1122804E+00
         21   -1    0    0  501  502  0.00000000000E+00  0.00000000000E+00  0.15818843548E+03  0.15818843548E+03  0.00000000000E+00 0. -1.
          1   -1    0    0  502    0 -0.00000000000E+00 -0.00000000000E+00 -0.95538839065E+03  0.95538839065E+03  0.00000000000E+00 0. -1.
        -24    2    1    2    0    0 -0.10793228978E+03 -0.11798463924E+03 -0.19625960654E+03  0.26559458458E+03  0.80329919272E+02 0.  0.
         23    2    1    2    0    0  0.32531671678E+03  0.87240025012E+02 -0.49351881321E+03  0.60356332517E+03  0.85358539805E+02 0.  0.
         11    1    3    3    0    0 -0.68927255878E+02 -0.17714347866E+02 -0.84199042088E+02  0.11024628525E+03  0.00000000000E+00 0. -1.
        -12    1    3    3    0    0 -0.39005033899E+02 -0.10027029137E+03 -0.11206056445E+03  0.15534829933E+03  0.00000000000E+00 0.  1.
        -13    1    4    4    0    0  0.86943985769E+01  0.21230080101E+02 -0.46005328815E+02  0.51408162261E+02  0.00000000000E+00 0.  1.
         13    1    4    4    0    0  0.31662231821E+03  0.66009944911E+02 -0.44751348440E+03  0.55215516291E+03  0.00000000000E+00 0. -1.
          2    1    1    2  501    0 -0.21738442701E+03  0.30744614225E+02 -0.10742153543E+03  0.24441891637E+03  0.00000000000E+00 0. -1.
<scales pt_clust_5="13000.00000" pt_clust_6="13000.00000" pt_clust_7="13000.00000" pt_clust_8="13000.00000" pt_clust_9="243.60252"></scales>
<clustering>
<clus scale="   80.330">  5  6 -1 -1</clus>
<clus scale="   85.359">  7  8 -1 -1</clus>
<clus scale="  178.949">  2  5  1 -1</clus>
<clus scale="  243.603">  1  9  2 -1</clus>
<clus scale="  243.603">  1  5  2 -1</clus>
</clustering>
</event>
<event>
 9    1  0.9171696E-005  0.1392339E+03  0.7546771E-02  0.1234364E+00
         21   -1    0    0  501  502  0.00000000000E+00  0.00000000000E+00  0.20303216883E+03  0.20303216883E+03  0.00000000000E+00 0. -1.
          1   -1    0    0  502    0 -0.00000000000E+00 -0.00000000000E+00 -0.47351401525E+03  0.47351401525E+03  0.00000000000E+00 0. -1.
        -24    2    1    2    0    0 -0.19078708535E+02 -0.37748086567E+02  0.15463952824E+03  0.17981719471E+03  0.81436629714E+02 0.  0.
         23    2    1    2    0    0  0.45188389410E+02 -0.82392118326E+02 -0.17949139862E+03  0.22204832132E+03  0.90872675331E+02 0.  0.
         13    1    3    3    0    0 -0.51091631731E+02 -0.18522918683E+02  0.95260862276E+02  0.10967262754E+03  0.00000000000E+00 0. -1.
        -14    1    3    3    0    0  0.32012923196E+02 -0.19225167883E+02  0.59378665968E+02  0.70144567172E+02  0.00000000000E+00 0.  1.
        -13    1    4    4    0    0 -0.24160774906E+02 -0.16702444149E+01 -0.36427100380E+02  0.43743186927E+02  0.00000000000E+00 0.  1.
         13    1    4    4    0    0  0.69349164316E+02 -0.80721873911E+02 -0.14306429824E+03  0.17830513439E+03  0.00000000000E+00 0. -1.
          2    1    1    2  501    0 -0.26109680875E+02  0.12014020489E+03 -0.24562997605E+03  0.27468066805E+03  0.00000000000E+00 0. -1.
<scales pt_clust_5="13000.00000" pt_clust_6="13000.00000" pt_clust_7="13000.00000" pt_clust_8="13000.00000" pt_clust_9="105.49052"></scales>
<clustering>
<clus scale="   81.437">  5  6 -1 -1</clus>
<clus scale="   90.873">  7  8 -1 -1</clus>
<clus scale="   91.765">  2  5  1 -1</clus>
<clus scale="  105.491">  1  9  2 -1</clus>
<clus scale="  105.491">  1  5  2 -1</clus>
</clustering>
</event>
<event>
 9    1  0.9171696E-005  0.2030012E+03  0.7546771E-02  0.1160464E+00
         21   -1    0    0  501  502  0.00000000000E+00  0.00000000000E+00  0.52308360070E+02  0.52308360070E+02  0.00000000000E+00 0. -1.
          1   -1    0    0  502    0 -0.00000000000E+00 -0.00000000000E+00 -0.15184268638E+04  0.15184268638E+04  0.00000000000E+00 0. -1.
         23    2    1    2    0    0 -0.63103863662E+02  0.99730241058E+02 -0.45788053601E+03  0.48141541993E+03  0.90432310030E+02 0.  0.
        -24    2    1    2    0    0 -0.72729672588E+02 -0.21094923276E+03 -0.60357219001E+03  0.64821346151E+03  0.78052027836E+02 0.  0.
         11    1    4    4    0    0 -0.57554479345E+02 -0.20324579194E+03 -0.58925533120E+03  0.62597381365E+03  0.00000000000E+00 0. -1.
        -12    1    4    4    0    0 -0.15175193243E+02 -0.77034408225E+01 -0.14316858810E+02  0.22239647853E+02  0.00000000000E+00 0.  1.
        -11    1    3    3    0    0 -0.54309507825E+02  0.41274945051E+02 -0.36499880715E+03  0.37131829062E+03  0.00000000000E+00 0.  1.
         11    1    3    3    0    0 -0.87943558369E+01  0.58455296007E+02 -0.92881728869E+02  0.11009712932E+03  0.00000000000E+00 0. -1.
          2    1    1    2  501    0  0.13583353625E+03  0.11121899171E+03 -0.40466577772E+03  0.44110634244E+03  0.00000000000E+00 0. -1.
<scales pt_clust_5="13000.00000" pt_clust_6="13000.00000" pt_clust_7="13000.00000" pt_clust_8="13000.00000" pt_clust_9="187.39627"></scales>
<clustering>
<clus scale="   78.052">  5  6 -1 -1</clus>
<clus scale="   90.432">  7  8 -1 -1</clus>
<clus scale="  148.682">  2  7  1 -1</clus>
<clus scale="  187.396">  1  9  2 -1</clus>
<clus scale="  187.396">  1  5  2 -1</clus>
</clustering>
</event>
<event>
 9    1  0.9171696E-005  0.1075666E+03  0.7546771E-02  0.1269603E+00
         21   -1    0    0  501  502  0.00000000000E+00  0.00000000000E+00  0.11641693884E+03  0.11641693884E+03  0.00000000000E+00 0.  1.
          1   -1    0    0  502    0 -0.00000000000E+00 -0.00000000000E+00 -0.24845476016E+03  0.24845476016E+03  0.00000000000E+00 0. -1.
         23    2    1    2    0    0  0.23040601566E+02  0.65301538370E+02 -0.10807503992E+02  0.11477998162E+03  0.90898194727E+02 0.  0.
        -24    2    1    2    0    0 -0.20805969564E+02 -0.38323132810E+02  0.30321203518E+02  0.96141428588E+02  0.80138929555E+02 0.  0.
         11    1    4    4    0    0  0.48951027991E+01 -0.52277701649E+02 -0.20111866883E+01  0.52544885507E+02  0.00000000000E+00 0. -1.
        -12    1    4    4    0    0 -0.25701072363E+02  0.13954568839E+02  0.32332390206E+02  0.43596543080E+02  0.00000000000E+00 0.  1.
        -13    1    3    3    0    0  0.51186905875E+02  0.35737537422E+02  0.17820857815E+02  0.64921906067E+02  0.00000000000E+00 0.  1.
         13    1    3    3    0    0 -0.28146304309E+02  0.29564000948E+02 -0.28628361807E+02  0.49858075555E+02  0.00000000000E+00 0. -1.
          2    1    1    2  501    0 -0.22346320028E+01 -0.26978405561E+02 -0.15155152084E+03  0.15395028879E+03  0.00000000000E+00 0. -1.
<scales pt_clust_5="13000.00000" pt_clust_6="13000.00000" pt_clust_7="13000.00000" pt_clust_8="13000.00000" pt_clust_9="27.07081"></scales>
<clustering>
<clus scale="   27.071">  1  9  2 -1</clus>
<clus scale="   80.139">  5  6 -1 -1</clus>
<clus scale="   90.898">  7  8 -1 -1</clus>
<clus scale="   98.643">  1  5  2 -1</clus>
<clus scale="   27.071">  1  5  2 -1</clus>
</clustering>
</event>
<event>
 9    1  0.9171696E-005  0.1318632E+03  0.7546771E-02  0.1230650E+00
         21   -1    0    0  501  502  0.00000000000E+00  0.00000000000E+00  0.54910542271E+03  0.54910542271E+03  0.00000000000E+00 0. -1.
          1   -1    0    0  502    0 -0.00000000000E+00 -0.00000000000E+00 -0.48309427173E+02  0.48309427173E+02  0.00000000000E+00 0. -1.
        -24    2    1    2    0    0 -0.83550736703E+02  0.97689269759E+01  0.12860532209E+03  0.17573846264E+03  0.85255620599E+02 0.  0.
         23    2    1    2    0    0  0.69806650867E+02  0.46959426042E+02  0.29997804964E+03  0.32882344454E+03  0.10516592230E+03 0.  0.
         11    1    3    3    0    0  0.27300635116E+01  0.27957584474E+02  0.14740593234E+02  0.31723254330E+02  0.00000000000E+00 0. -1.
        -12    1    3    3    0    0 -0.86280800215E+02 -0.18188657498E+02  0.11386472886E+03  0.14401520831E+03  0.00000000000E+00 0.  1.
        -13    1    4    4    0    0 -0.15478595025E+01  0.60344913812E+02  0.11050151316E+03  0.12591460957E+03  0.00000000000E+00 0. -1.
         13    1    4    4    0    0  0.71354510370E+02 -0.13385487770E+02  0.18947653648E+03  0.20290883497E+03  0.00000000000E+00 0.  1.
          2    1    1    2  501    0  0.13744085835E+02 -0.56728353017E+02  0.72212623805E+02  0.92852942701E+02  0.00000000000E+00 0. -1.
<scales pt_clust_5="13000.00000" pt_clust_6="13000.00000" pt_clust_7="13000.00000" pt_clust_8="13000.00000" pt_clust_9="58.36959"></scales>
<clustering>
<clus scale="   58.370">  1  9  2 -1</clus>
<clus scale="   85.256">  5  6 -1 -1</clus>
<clus scale="  105.166">  7  8 -1 -1</clus>
<clus scale="  116.604">  2  5  1 -1</clus>
<clus scale="   58.370">  1  5  2 -1</clus>
</clustering>
</event>
<event>
 9    1  0.9171696E-005  0.1108826E+03  0.7546771E-02  0.1262346E+00
         -2   -1    0    0    0  501 -0.00000000000E+00  0.00000000000E+00  0.27305668875E+03  0.27305668875E+03  0.00000000000E+00 0.  1.
         21   -1    0    0  501  502  0.00000000000E+00 -0.00000000000E+00 -0.70672513903E+02  0.70672513903E+02  0.00000000000E+00 0. -1.
         23    2    1    2    0    0 -0.69957638293E+02  0.37176304240E+01  0.16063093978E+03  0.19762653819E+03  0.91356761378E+02 0.  0.
        -24    2    1    2    0    0  0.43078717003E+02 -0.16258196298E+02 -0.48182459707E+00  0.94493145315E+02  0.82514347547E+02 0.  0.
         13    1    4    4    0    0  0.37523992449E+02 -0.17151261759E+02 -0.38278414143E+02  0.56280127741E+02  0.00000000000E+00 0. -1.
        -14    1    4    4    0    0  0.55547245537E+01  0.89306546119E+00  0.37796589546E+02  0.38213017574E+02  0.00000000000E+00 0.  1.
        -11    1    3    3    0    0 -0.83692801181E+02 -0.20529873258E+02  0.13227526002E+03  0.15786926578E+03  0.00000000000E+00 0.  1.
         11    1    3    3    0    0  0.13735162888E+02  0.24247503682E+02  0.28355679764E+02  0.39757272407E+02  0.00000000000E+00 0. -1.
         -1    1    1    2    0  502  0.26878921290E+02  0.12540565874E+02  0.42235059666E+02  0.51609519152E+02  0.00000000000E+00 0.  1.
<scales pt_clust_5="13000.00000" pt_clust_6="13000.00000" pt_clust_7="13000.00000" pt_clust_8="13000.00000" pt_clust_9="29.66046"></scales>
<clustering>
<clus scale="   29.660">  2  9  1 -1</clus>
<clus scale="   82.514">  5  6 -1 -1</clus>
<clus scale="   91.357">  7  8 -1 -1</clus>
<clus scale="  103.718">  2  5  1 -1</clus>
<clus scale="   29.660">  2  5  1 -1</clus>
</clustering>
</event>
<event>
 9    1  0.9171696E-005  0.1094156E+03  0.7546771E-02  0.1268030E+00
          3   -1    0    0  502    0 -0.00000000000E+00  0.00000000000E+00  0.56387830453E+02  0.56387830453E+02  0.00000000000E+00 0. -1.
         21   -1    0    0  501  502  0.00000000000E+00 -0.00000000000E+00 -0.25114155221E+03  0.25114155221E+03  0.00000000000E+00 0.  1.
         23    2    1    2    0    0 -0.20749142669E+02  0.49664680723E+02 -0.77705973530E+02  0.13470177227E+03  0.95964794049E+02 0.  0.
        -24    2    1    2    0    0 -0.46536360154E+01 -0.54185842535E+02 -0.73485191340E+02  0.12219720025E+03  0.81082183884E+02 0.  0.
         11    1    4    4    0    0  0.76813128263E+01 -0.21579288952E+02  0.14804889762E+02  0.27273669340E+02  0.00000000000E+00 0. -1.
        -12    1    4    4    0    0 -0.12334948842E+02 -0.32606553583E+02 -0.88290081102E+02  0.94923530910E+02  0.00000000000E+00 0.  1.
        -11    1    3    3    0    0  0.12211930103E+02  0.69261753251E+02 -0.39936893653E+02  0.80878162534E+02  0.00000000000E+00 0. -1.
         11    1    3    3    0    0 -0.32961072772E+02 -0.19597072528E+02 -0.37769079877E+02  0.53823609733E+02  0.00000000000E+00 0.  1.
          4    1    1    2  501    0  0.25402778685E+02  0.45211618120E+01 -0.43562556883E+02  0.50630410143E+02  0.00000000000E+00 0. -1.
<scales pt_clust_5="13000.00000" pt_clust_6="13000.00000" pt_clust_7="13000.00000" pt_clust_8="13000.00000" pt_clust_9="25.80198"></scales>
<clustering>
<clus scale="   25.802">  2  9  1 -1</clus>
<clus scale="   81.082">  5  6 -1 -1</clus>
<clus scale="   95.965">  7  8 -1 -1</clus>
<clus scale="   96.627">  2  5  1 -1</clus>
<clus scale="   25.802">  2  5  1 -1</clus>
</clustering>
</event>
<event>
 9    1  0.9171696E-005  0.1433648E+03  0.7546771E-02  0.1214286E+00
          1   -1    0    0  502    0 -0.00000000000E+00  0.00000000000E+00  0.71008974733E+03  0.71008974733E+03  0.00000000000E+00 0. -1.
         21   -1    0    0  501  502  0.00000000000E+00 -0.00000000000E+00 -0.63076003206E+02  0.63076003206E+02  0.00000000000E+00 0.  1.
         23    2    1    2    0    0  0.90972067560E+01  0.90660107442E+02  0.18148999730E+03  0.22232007408E+03  0.90474206093E+02 0.  0.
        -24    2    1    2    0    0  0.70512681367E+02 -0.14172487898E+03  0.17036367892E+03  0.24090243832E+03  0.62866701354E+02 0.  0.
         11    1    4    4    0    0 -0.11245700479E+02 -0.18154791967E+02  0.29839410071E+02  0.36694040988E+02  0.00000000000E+00 0. -1.
        -12    1    4    4    0    0  0.81758381846E+02 -0.12357008701E+03  0.14052426885E+03  0.20420839734E+03  0.00000000000E+00 0.  1.
        -13    1    3    3    0    0  0.19941973418E+02 -0.90568551784E+01  0.65028493726E+02  0.68617883425E+02  0.00000000000E+00 0. -1.
         13    1    3    3    0    0 -0.10844766662E+02  0.99716962621E+02  0.11646150358E+03  0.15370219066E+03  0.00000000000E+00 0.  1.
          2    1    1    2  501    0 -0.79609888123E+02  0.51064771535E+02  0.29516006789E+03  0.30994323812E+03  0.00000000000E+00 0. -1.
<scales pt_clust_5="13000.00000" pt_clust_6="13000.00000" pt_clust_7="13000.00000" pt_clust_8="13000.00000" pt_clust_9="94.57988"></scales>
<clustering>
<clus scale="   62.867">  5  6 -1 -1</clus>
<clus scale="   90.474">  7  8 -1 -1</clus>
<clus scale="   94.580">  2  9  1 -1</clus>
<clus scale="  127.750">  2  5  1 -1</clus>
<clus scale="   94.580">  2  5  1 -1</clus>
</clustering>
</event>
<event>
 9    1  0.9171696E-005  0.1201349E+03  0.7546771E-02  0.1245018E+00
          1   -1    0    0  502    0 -0.00000000000E+00  0.00000000000E+00  0.56954624347E+02  0.56954624347E+02  0.00000000000E+00 0. -1.
         21   -1    0    0  501  502  0.00000000000E+00 -0.00000000000E+00 -0.49994946245E+03  0.49994946245E+03  0.00000000000E+00 0. -1.
         23    2    1    2    0    0  0.36911899556E+02  0.80542552066E+02 -0.39648123886E+02  0.13087959830E+03  0.87794672403E+02 0.  0.
        -24    2    1    2    0    0 -0.41510790148E+02 -0.45180145059E+02 -0.29074727574E+03  0.30791317164E+03  0.80697904010E+02 0.  0.
         13    1    4    4    0    0 -0.65919824411E+02 -0.32194300338E+02 -0.22231941538E+03  0.23411069749E+03  0.00000000000E+00 0. -1.
        -14    1    4    4    0    0  0.24409034263E+02 -0.12985844721E+02 -0.68427860361E+02  0.73802474148E+02  0.00000000000E+00 0.  1.
        -13    1    3    3    0    0  0.49411323341E+01  0.87559162893E+02 -0.43549570172E+02  0.97916223668E+02  0.00000000000E+00 0. -1.
         13    1    3    3    0    0  0.31970767222E+02 -0.70166108271E+01  0.39014462856E+01  0.32963374636E+02  0.00000000000E+00 0.  1.
          2    1    1    2  501    0  0.45988905919E+01 -0.35362407007E+02 -0.11259943847E+03  0.11811131685E+03  0.00000000000E+00 0. -1.
<scales pt_clust_5="13000.00000" pt_clust_6="13000.00000" pt_clust_7="13000.00000" pt_clust_8="13000.00000" pt_clust_9="35.66020"></scales>
<clustering>
<clus scale="   35.660">  2  9  1 -1</clus>
<clus scale="   80.698">  5  6 -1 -1</clus>
<clus scale="   87.795">  7  8 -1 -1</clus>
<clus scale="  115.051">  2  5  1 -1</clus>
<clus scale="   35.660">  2  5  1 -1</clus>
</clustering>
</event>
<event>
 9    1  0.9171696E-005  0.1024467E+03  0.7546771E-02  0.1278751E+00
         21   -1    0    0  501  502  0.00000000000E+00  0.00000000000E+00  0.46927487122E+02  0.46927487122E+02  0.00000000000E+00 0.  1.
          1   -1    0    0  502    0 -0.00000000000E+00 -0.00000000000E+00 -0.51763152329E+03  0.51763152329E+03  0.00000000000E+00 0. -1.
        -24    2    1    2    0    0 -0.41996578671E+02  0.26251230659E+02 -0.33121881839E+03  0.34503244954E+03  0.82997866533E+02 0.  0.
         23    2    1    2    0    0  0.47662296901E+02  0.66000032227E+01 -0.32728802616E+02  0.10768633506E+03  0.90608595896E+02 0.  0.
         13    1    3    3    0    0 -0.23362149205E+02 -0.29624201940E+02 -0.13299397350E+03  0.13824174602E+03  0.00000000000E+00 0. -1.
        -14    1    3    3    0    0 -0.18634429466E+02  0.55875432599E+02 -0.19822484489E+03  0.20679070352E+03  0.00000000000E+00 0.  1.
        -11    1    4    4    0    0  0.10083357823E+02  0.38827044587E+02  0.11040707855E+02  0.41606618779E+02  0.00000000000E+00 0.  1.
         11    1    4    4    0    0  0.37578939078E+02 -0.32227041364E+02 -0.43769510470E+02  0.66079716284E+02  0.00000000000E+00 0. -1.
          2    1    1    2  501    0 -0.56657182301E+01 -0.32851233882E+02 -0.10675641516E+03  0.11184022581E+03  0.00000000000E+00 0. -1.
<scales pt_clust_5="13000.00000" pt_clust_6="13000.00000" pt_clust_7="13000.00000" pt_clust_8="13000.00000" pt_clust_9="33.33624"></scales>
<clustering>
<clus scale="   33.336">  1  9  2 -1</clus>
<clus scale="   82.998">  5  6 -1 -1</clus>
<clus scale="   90.609">  7  8 -1 -1</clus>
<clus scale="   95.781">  2  5  1 -1</clus>
<clus scale="   33.336">  1  5  2 -1</clus>
</clustering>
</event>
<event>
 9    1  0.9171696E-005  0.4006136E+03  0.7546771E-02  0.1043750E+00
          1   -1    0    0  502    0 -0.00000000000E+00  0.00000000000E+00  0.22728415090E+04  0.22728415090E+04  0.00000000000E+00 0. -1.
         21   -1    0    0  501  502  0.00000000000E+00 -0.00000000000E+00 -0.21333451817E+03  0.21333451817E+03  0.00000000000E+00 0. -1.
         23    2    1    2    0    0  0.93548015415E+02  0.38789354803E+03  0.20259776378E+04  0.20668421073E+04  0.89656410695E+02 0.  0.
        -24    2    1    2    0    0 -0.85096125816E+02 -0.30853045705E+03 -0.68422016449E+01  0.32989233513E+03  0.79685277829E+02 0.  0.
         13    1    4    4    0    0 -0.51546249767E+02 -0.18076116418E+03 -0.43224918015E+02  0.19287303564E+03  0.00000000000E+00 0. -1.
        -14    1    4    4    0    0 -0.33549876050E+02 -0.12776929287E+03  0.36382716370E+02  0.13701929949E+03  0.00000000000E+00 0.  1.
        -11    1    3    3    0    0  0.42991421411E+02  0.29561858784E+03  0.16286062716E+04  0.16557768569E+04  0.00000000000E+00 0. -1.
         11    1    3    3    0    0  0.50556594003E+02  0.92274960193E+02  0.39737136618E+03  0.41106525046E+03  0.00000000000E+00 0.  1.
          2    1    1    2  501    0 -0.84518895984E+01 -0.79363090984E+02  0.40371554690E+02  0.89441584716E+02  0.00000000000E+00 0. -1.
<scales pt_clust_5="13000.00000" pt_clust_6="13000.00000" pt_clust_7="13000.00000" pt_clust_8="13000.00000" pt_clust_9="79.81187"></scales>
<clustering>
<clus scale="   79.685">  5  6 -1 -1</clus>
<clus scale="   79.812">  2  9  1 -1</clus>
<clus scale="   89.656">  7  8 -1 -1</clus>
<clus scale="  398.501">  2  5  1 -1</clus>
<clus scale="   79.812">  2  5  1 -1</clus>
</clustering>
</event>
<event>
 9    1  0.9171696E-005  0.1337105E+03  0.7546771E-02  0.1224666E+00
         21   -1    0    0  501  502  0.00000000000E+00  0.00000000000E+00  0.14687095526E+04  0.14687095526E+04  0.00000000000E+00 0. -1.
         -2   -1    0    0    0  501 -0.00000000000E+00 -0.00000000000E+00 -0.22673838051E+02  0.22673838051E+02  0.00000000000E+00 0.  1.
        -24    2    1    2    0    0  0.70028288656E+02  0.79471379799E+02  0.58454551153E+03  0.59934362217E+03  0.79370403586E+02 0.  0.
         23    2    1    2    0    0  0.95147320175E+01 -0.10838893743E+03  0.62704085523E+03  0.64278124013E+03  0.90270685466E+02 0.  0.
         11    1    3    3    0    0  0.69748722814E+02  0.64797227270E+02  0.57248550998E+03  0.58034750291E+03  0.00000000000E+00 0. -1.
        -12    1    3    3    0    0  0.27956584208E+00  0.14674152529E+02  0.12060001547E+02  0.18996119257E+02  0.00000000000E+00 0.  1.
        -11    1    4    4    0    0 -0.37420073616E+02 -0.72540574872E+02  0.39472248506E+03  0.40307348849E+03  0.00000000000E+00 0. -1.
         11    1    4    4    0    0  0.46934805634E+02 -0.35848362554E+02  0.23231837017E+03  0.23970775164E+03  0.00000000000E+00 0.  1.
         -1    1    1    2    0  502 -0.79543020674E+02  0.28917557626E+02  0.23444934777E+03  0.24925852833E+03  0.00000000000E+00 0.  1.
<scales pt_clust_5="13000.00000" pt_clust_6="13000.00000" pt_clust_7="13000.00000" pt_clust_8="13000.00000" pt_clust_9="84.63643"></scales>
<clustering>
<clus scale="   79.370">  5  6 -1 -1</clus>
<clus scale="   84.636">  1  9  2 -1</clus>
<clus scale="   90.271">  7  8 -1 -1</clus>
<clus scale="  126.607">  2  5  1 -1</clus>
<clus scale="   84.636">  1  5  2 -1</clus>
</clustering>
</event>
<event>
 9    1  0.9171696E-005  0.1128932E+03  0.7546771E-02  0.1260484E+00
         21   -1    0    0  501  502  0.00000000000E+00  0.00000000000E+00  0.22290217722E+03  0.22290217722E+03  0.00000000000E+00 0.  1.
          1   -1    0    0  502    0 -0.00000000000E+00 -0.00000000000E+00 -0.32050126309E+03  0.32050126309E+03  0.00000000000E+00 0. -1.
         23    2    1    2    0    0  0.55662242501E+02  0.13924299611E+02 -0.21097284804E+03  0.23834972709E+03  0.94915111747E+02 0.  0.
        -24    2    1    2    0    0 -0.11438768391E+03 -0.16352194520E+02  0.17156043862E+03  0.22234784003E+03  0.81569855781E+02 0.  0.
         13    1    4    4    0    0 -0.24359082123E+02 -0.36441676832E+02  0.86031837312E+02  0.96554843087E+02  0.00000000000E+00 0. -1.
        -14    1    4    4    0    0 -0.90028601784E+02  0.20089482312E+02  0.85528601306E+02  0.12579299694E+03  0.00000000000E+00 0.  1.
        -11    1    3    3    0    0  0.49305587928E+02 -0.10054784565E+02 -0.20724171629E+03  0.21326337863E+03  0.00000000000E+00 0. -1.
         11    1    3    3    0    0  0.63566545730E+01  0.23979084175E+02 -0.37311317464E+01  0.25086348466E+02  0.00000000000E+00 0.  1.
          2    1    1    2  501    0  0.58725441406E+02  0.24278949097E+01 -0.58186676458E+02  0.82705873185E+02  0.00000000000E+00 0. -1.
<scales pt_clust_5="13000.00000" pt_clust_6="13000.00000" pt_clust_7="13000.00000" pt_clust_8="13000.00000" pt_clust_9="58.77564"></scales>
<clustering>
<clus scale="   58.776">  1  9  2 -1</clus>
<clus scale="   81.570">  5  6 -1 -1</clus>
<clus scale="   94.915">  7  8 -1 -1</clus>
<clus scale="  101.930">  1  5  2 -1</clus>
<clus scale="   58.776">  1  5  2 -1</clus>
</clustering>
</event>
<event>
 9    1  0.9171696E-005  0.2124085E+03  0.7546771E-02  0.1140234E+00
         -2   -1    0    0    0  501 -0.00000000000E+00  0.00000000000E+00  0.56827824717E+03  0.56827824717E+03  0.00000000000E+00 0.  1.
         21   -1    0    0  501  502  0.00000000000E+00 -0.00000000000E+00 -0.10651626907E+03  0.10651626907E+03  0.00000000000E+00 0. -1.
         23    2    1    2    0    0  0.13004511911E+03  0.14824818365E+03  0.34558036844E+03  0.40778980328E+03  0.89316715369E+02 0.  0.
        -24    2    1    2    0    0 -0.14471478128E+03 -0.11667307556E+03  0.11153820678E+03  0.23187996913E+03  0.82295650129E+02 0.  0.
         11    1    4    4    0    0 -0.10853076346E+03 -0.39058065353E+02  0.46579131792E+02  0.12439483351E+03  0.00000000000E+00 0. -1.
        -12    1    4    4    0    0 -0.36184017820E+02 -0.77615010211E+02  0.64959074989E+02  0.10748513562E+03  0.00000000000E+00 0.  1.
        -13    1    3    3    0    0  0.70608978103E+02  0.75335326606E+02  0.26327225258E+03  0.28279554134E+03  0.00000000000E+00 0.  1.
         13    1    3    3    0    0  0.59436141008E+02  0.72912857045E+02  0.82308115860E+02  0.12499426194E+03  0.00000000000E+00 0. -1.
         -1    1    1    2    0  502  0.14669662166E+02 -0.31575108088E+02  0.46434028817E+01  0.35124743830E+02  0.00000000000E+00 0.  1.
<scales pt_clust_5="13000.00000" pt_clust_6="13000.00000" pt_clust_7="13000.00000" pt_clust_8="13000.00000" pt_clust_9="34.81647"></scales>
<clustering>
<clus scale="   34.816">  2  9  1 -1</clus>
<clus scale="   82.296">  5  6 -1 -1</clus>
<clus scale="   89.317">  7  8 -1 -1</clus>
<clus scale="  209.553">  2  5  1 -1</clus>
<clus scale="   34.816">  2  5  1 -1</clus>
</clustering>
</event>
<event>
 9    1  0.9171696E-005  0.1043285E+03  0.7546771E-02  0.1279769E+00
          1   -1    0    0  502    0 -0.00000000000E+00  0.00000000000E+00  0.59420625613E+03  0.59420625613E+03  0.00000000000E+00 0. -1.
         21   -1    0    0  501  502  0.00000000000E+00 -0.00000000000E+00 -0.88531612208E+02  0.88531612208E+02  0.00000000000E+00 0.  1.
         23    2    1    2    0    0 -0.37565388225E+02 -0.20179321512E+02  0.52119608088E+03  0.53182033964E+03  0.96794398195E+02 0.  0.
        -24    2    1    2    0    0  0.50923298140E+01  0.28077439613E+02  0.33751708186E+02  0.91379955479E+02  0.79980272691E+02 0.  0.
         11    1    4    4    0    0  0.25866593389E+02 -0.72894790760E+01  0.41690741381E+02  0.49601764844E+02  0.00000000000E+00 0. -1.
        -12    1    4    4    0    0 -0.20774263575E+02  0.35366918689E+02 -0.79390331951E+01  0.41778190635E+02  0.00000000000E+00 0.  1.
        -13    1    3    3    0    0 -0.70352107728E+02 -0.16148487880E+02  0.33125237305E+03  0.33902555564E+03  0.00000000000E+00 0. -1.
         13    1    3    3    0    0  0.32786719503E+02 -0.40308336319E+01  0.18994370783E+03  0.19279478401E+03  0.00000000000E+00 0.  1.
          2    1    1    2  501    0  0.32473058411E+02 -0.78981181010E+01 -0.49273145145E+02  0.59537573217E+02  0.00000000000E+00 0. -1.
<scales pt_clust_5="13000.00000" pt_clust_6="13000.00000" pt_clust_7="13000.00000" pt_clust_8="13000.00000" pt_clust_9="33.41975"></scales>
<clustering>
<clus scale="   33.420">  2  9  1 -1</clus>
<clus scale="   79.980">  5  6 -1 -1</clus>
<clus scale="   88.950">  2  5  1 -1</clus>
<clus scale="   96.794">  7  8 -1 -1</clus>
<clus scale="   33.420">  2  5  1 -1</clus>
</clustering>
</event>
<event>
 9    1  0.9171696E-005  0.2860906E+03  0.7546771E-02  0.1092985E+00
          1   -1    0    0  502    0 -0.00000000000E+00  0.00000000000E+00  0.15818628885E+04  0.15818628885E+04  0.00000000000E+00 0. -1.
         21   -1    0    0  501  502  0.00000000000E+00 -0.00000000000E+00 -0.78086857046E+02  0.78086857046E+02  0.00000000000E+00 0. -1.
         23    2    1    2    0    0  0.21860941781E+03  0.72414458249E+01  0.45830040665E+03  0.51670190962E+03  0.95389121894E+02 0.  0.
        -24    2    1    2    0    0 -0.33488883250E+03 -0.18396745080E+02  0.75481016970E+03  0.82998796015E+03  0.81563786996E+02 0.  0.
         13    1    4    4    0    0 -0.64882132812E+02 -0.10389283425E+01  0.80340469277E+02  0.10327323726E+03  0.00000000000E+00 0. -1.
        -14    1    4    4    0    0 -0.27000669969E+03 -0.17357816737E+02  0.67446970042E+03  0.72671472289E+03  0.00000000000E+00 0.  1.
        -13    1    3    3    0    0  0.50794975321E+02  0.84240090798E+01  0.37574306898E+02  0.63741054162E+02  0.00000000000E+00 0. -1.
         13    1    3    3    0    0  0.16781444249E+03 -0.11825632549E+01  0.42072609975E+03  0.45296085546E+03  0.00000000000E+00 0.  1.
          2    1    1    2  501    0  0.11627941469E+03  0.11155299255E+02  0.29066545514E+03  0.31325987582E+03  0.00000000000E+00 0. -1.
<scales pt_clust_5="13000.00000" pt_clust_6="13000.00000" pt_clust_7="13000.00000" pt_clust_8="13000.00000" pt_clust_9="116.81334"></scales>
<clustering>
<clus scale="   81.564">  5  6 -1 -1</clus>
<clus scale="   95.389">  7  8 -1 -1</clus>
<clus scale="  116.813">  2  9  1 -1</clus>
<clus scale="  281.782">  2  5  1 -1</clus>
<clus scale="  116.813">  2  5  1 -1</clus>
</clustering>
</event>
<event>
 9    1  0.9171696E-005  0.1959460E+03  0.7546771E-02  0.1188157E+00
         -2   -1    0    0    0  501 -0.00000000000E+00  0.00000000000E+00  0.20037466755E+03  0.20037466755E+03  0.00000000000E+00 0.  1.
         21   -1    0    0  501  502  0.00000000000E+00 -0.00000000000E+00 -0.31726333366E+03  0.31726333366E+03  0.00000000000E+00 0.  1.
        -24    2    1    2    0    0 -0.40859464656E+02  0.82376607082E+01  0.49978718696E+02  0.10133965219E+03  0.77682030598E+02 0.  0.
         23    2    1    2    0    0 -0.51326820167E+02 -0.15914319451E+03 -0.32413822722E+02  0.19415301012E+03  0.93186568816E+02 0.  0.
         11    1    3    3    0    0  0.22179235023E+02  0.61100623248E+00  0.30817863431E+01  0.22400651818E+02  0.00000000000E+00 0. -1.
        -12    1    3    3    0    0 -0.63038699679E+02  0.76266544757E+01  0.46896932353E+02  0.78939000373E+02  0.00000000000E+00 0.  1.
        -11    1    4    4    0    0  0.25731707092E+02 -0.20871084258E+02 -0.53095358377E+01  0.33554643178E+02  0.00000000000E+00 0. -1.
         11    1    4    4    0    0 -0.77058527259E+02 -0.13827211025E+03 -0.27104286885E+02  0.16059836694E+03  0.00000000000E+00 0.  1.
         -1    1    1    2    0  502  0.92186284823E+02  0.15090553380E+03 -0.13445356208E+03  0.22214533890E+03  0.00000000000E+00 0.  1.
<scales pt_clust_5="13000.00000" pt_clust_6="13000.00000" pt_clust_7="13000.00000" pt_clust_8="13000.00000" pt_clust_9="172.36913"></scales>
<clustering>
<clus scale="   77.682">  5  6 -1 -1</clus>
<clus scale="   88.158">  1  5  2 -1</clus>
<clus scale="   93.187">  7  8 -1 -1</clus>
<clus scale="  172.369">  2  9  1 -1</clus>
<clus scale="  172.369">  2  5  1 -1</clus>
</clustering>
</event>
<event>
 9    1  0.9171696E-005  0.1789133E+03  0.7546771E-02  0.1169720E+00
         21   -1    0    0  501  502  0.00000000000E+00  0.00000000000E+00  0.70590050169E+03  0.70590050169E+03  0.00000000000E+00 0.  1.
          1   -1    0    0  502    0 -0.00000000000E+00 -0.00000000000E+00 -0.78325213353E+02  0.78325213353E+02  0.00000000000E+00 0. -1.
         23    2    1    2    0    0 -0.48442814138E+02 -0.14412944015E+03  0.74530937972E+02  0.19221994103E+03  0.90959569338E+02 0.  0.
        -24    2    1    2    0    0  0.76100756866E+02  0.14442824217E+03  0.48317797916E+03  0.51686350293E+03  0.83881337533E+02 0.  0.
         13    1    4    4    0    0  0.92257895411E+02  0.99229622133E+02  0.35150179768E+03  0.37671149563E+03  0.00000000000E+00 0. -1.
        -14    1    4    4    0    0 -0.16157138545E+02  0.45198620034E+02  0.13167618148E+03  0.14015200729E+03  0.00000000000E+00 0.  1.
        -13    1    3    3    0    0  0.21561409188E+02 -0.11291937222E+02  0.22949544795E+02  0.33452710185E+02  0.00000000000E+00 0.  1.
         13    1    3    3    0    0 -0.70004223325E+02 -0.13283750293E+03  0.51581393177E+02  0.15876723084E+03  0.00000000000E+00 0. -1.
          2    1    1    2  501    0 -0.27657942729E+02 -0.29880201979E+00  0.69866371204E+02  0.75142271085E+02  0.00000000000E+00 0. -1.
<scales pt_clust_5="13000.00000" pt_clust_6="13000.00000" pt_clust_7="13000.00000" pt_clust_8="13000.00000" pt_clust_9="27.65956"></scales>
<clustering>
<clus scale="   27.660">  1  9  2 -1</clus>
<clus scale="   83.881">  5  6 -1 -1</clus>
<clus scale="   90.960">  7  8 -1 -1</clus>
<clus scale="  175.421">  1  5  2 -1</clus>
<clus scale="   27.660">  1  5  2 -1</clus>
</clustering>
</event>
<event>
 9    1  0.9171696E-005  0.1643165E+03  0.7546771E-02  0.1191037E+00
          1   -1    0    0  502    0 -0.00000000000E+00  0.00000000000E+00  0.33153910471E+03  0.33153910471E+03  0.00000000000E+00 0. -1.
         21   -1    0    0  501  502  0.00000000000E+00 -0.00000000000E+00 -0.18402165784E+03  0.18402165784E+03  0.00000000000E+00 0.  1.
        -24    2    1    2    0    0 -0.11048800424E+03  0.34454837802E+02 -0.30673019180E+02  0.14358861492E+03  0.79259834093E+02 0.  0.
         23    2    1    2    0    0  0.54754734957E+02  0.11662846703E+03  0.13115661821E+03  0.20420878707E+03  0.88875699125E+02 0.  0.
         11    1    3    3    0    0 -0.37956116269E+02  0.15769374857E+01  0.25835070557E+02  0.45941314356E+02  0.00000000000E+00 0. -1.
        -12    1    3    3    0    0 -0.72531887966E+02  0.32877900317E+02 -0.56508089738E+02  0.97647300561E+02  0.00000000000E+00 0.  1.
        -11    1    4    4    0    0 -0.19143585330E+02  0.54125580451E+02  0.66294380713E+02  0.87698347946E+02  0.00000000000E+00 0.  1.
         11    1    4    4    0    0  0.73898320287E+02  0.62502886579E+02  0.64862237498E+02  0.11651043913E+03  0.00000000000E+00 0. -1.
          2    1    1    2  501    0  0.55733269278E+02 -0.15108330483E+03  0.47033847848E+02  0.16776336056E+03  0.00000000000E+00 0. -1.
<scales pt_clust_5="13000.00000" pt_clust_6="13000.00000" pt_clust_7="13000.00000" pt_clust_8="13000.00000" pt_clust_9="138.20647"></scales>
<clustering>
<clus scale="   79.260">  5  6 -1 -1</clus>
<clus scale="   88.876">  7  8 -1 -1</clus>
<clus scale="  140.274">  1  5  2 -1</clus>
<clus scale="  138.206">  2  9  1 -1</clus>
<clus scale="  138.206">  2  5  1 -1</clus>
</clustering>
</event>
<event>
 9    1  0.9171696E-005  0.3168107E+03  0.7546771E-02  0.1098185E+00
          1   -1    0    0  502    0 -0.00000000000E+00  0.00000000000E+00  0.20552749908E+03  0.20552749908E+03  0.00000000000E+00 0. -1.
         21   -1    0    0  501  502  0.00000000000E+00 -0.00000000000E+00 -0.93785196575E+03  0.93785196575E+03  0.00000000000E+00 0. -1.
         23    2    1    2    0    0 -0.11046768643E+03  0.13122640293E+03 -0.23680334564E+03  0.29812120321E+03  0.58111519731E+02 0.  0.
        -24    2    1    2    0    0 -0.11962395720E+03  0.14707241958E+03  0.28886622038E+02  0.20855120177E+03  0.81969378987E+02 0.  0.
         13    1    4    4    0    0 -0.11657653730E+03  0.15437771410E+03  0.37286146987E+02  0.19700970640E+03  0.00000000000E+00 0. -1.
        -14    1    4    4    0    0 -0.30474198942E+01 -0.73052945182E+01 -0.83995249493E+01  0.11541495370E+02  0.00000000000E+00 0.  1.
        -13    1    3    3    0    0 -0.25883575532E+02  0.53995030776E+02 -0.45714901527E+02  0.75334421431E+02  0.00000000000E+00 0.  1.
         13    1    3    3    0    0 -0.84584110901E+02  0.77231372153E+02 -0.19108844411E+03  0.22278678178E+03  0.00000000000E+00 0. -1.
          2    1    1    2  501    0  0.23009164363E+03 -0.27829882251E+03 -0.52440774306E+03  0.63670705985E+03  0.00000000000E+00 0. -1.
<scales pt_clust_5="13000.00000" pt_clust_6="13000.00000" pt_clust_7="13000.00000" pt_clust_8="13000.00000" pt_clust_9="306.02290"></scales>
<clustering>
<clus scale="   58.112">  7  8 -1 -1</clus>
<clus scale="   81.969">  5  6 -1 -1</clus>
<clus scale="  181.109">  1  7  2 -1</clus>
<clus scale="  306.023">  2  9  1 -1</clus>
<clus scale="  306.023">  2  5  1 -1</clus>
</clustering>
</event>
<event>
 9    1  0.9171696E-005  0.9885240E+02  0.7546771E-02  0.1288977E+00
         21   -1    0    0  501  502  0.00000000000E+00  0.00000000000E+00  0.23980395574E+03  0.23980395574E+03  0.00000000000E+00 0. -1.
          1   -1    0    0  502    0 -0.00000000000E+00 -0.00000000000E+00 -0.75765597962E+02  0.75765597962E+02  0.00000000000E+00 0. -1.
        -24    2    1    2    0    0 -0.17093187215E+01  0.54684048241E+02  0.39820558448E+02  0.10553009590E+03  0.80979363804E+02 0.  0.
         23    2    1    2    0    0 -0.23042868645E+02  0.38812794027E+01  0.10826619326E+03  0.14448778264E+03  0.92785303807E+02 0.  0.
         13    1    3    3    0    0  0.26951864825E+02  0.39476453311E+02 -0.72645981756E+01  0.48348399872E+02  0.00000000000E+00 0. -1.
        -14    1    3    3    0    0 -0.28661183546E+02  0.15207594930E+02  0.47085156624E+02  0.57181696023E+02  0.00000000000E+00 0.  1.
        -13    1    4    4    0    0  0.36258410952E+02  0.26351968271E+01  0.39939527154E+02  0.54007244481E+02  0.00000000000E+00 0.  1.
         13    1    4    4    0    0 -0.59301279597E+02  0.12460825756E+01  0.68326666106E+02  0.90480538155E+02  0.00000000000E+00 0. -1.
          2    1    1    2  501    0  0.24752187367E+02 -0.58565327644E+02  0.15951606068E+02  0.65551675170E+02  0.00000000000E+00 0. -1.
<scales pt_clust_5="13000.00000" pt_clust_6="13000.00000" pt_clust_7="13000.00000" pt_clust_8="13000.00000" pt_clust_9="63.58123"></scales>
<clustering>
<clus scale="   63.581">  1  9  2 -1</clus>
<clus scale="   80.979">  5  6 -1 -1</clus>
<clus scale="   87.865">  2  5  1 -1</clus>
<clus scale="   92.785">  7  8 -1 -1</clus>
<clus scale="   63.581">  1  5  2 -1</clus>
</clustering>
</event>
<event>
 9    1  0.9171696E-005  0.1017918E+03  0.7546771E-02  0.1281201E+00
          3   -1    0    0  502    0 -0.00000000000E+00  0.00000000000E+00  0.29251708395E+03  0.29251708395E+03  0.00000000000E+00 0. -1.
         21   -1    0    0  501  502  0.00000000000E+00 -0.00000000000E+00 -0.66278922581E+02  0.66278922581E+02  0.00000000000E+00 0. -1.
         23    2    1    2    0    0  0.29031765430E+02 -0.48459416587E+02  0.19531935803E+03  0.22229807750E+03  0.89864482313E+02 0.  0.
        -24    2    1    2    0    0  0.72530929114E+01  0.27352828411E+02  0.84124363629E+00  0.84857454521E+02  0.79995595617E+02 0.  0.
         13    1    4    4    0    0  0.30981842660E+02  0.39902730951E+02 -0.16211446702E+02  0.53055758557E+02  0.00000000000E+00 0. -1.
        -14    1    4    4    0    0 -0.23728749749E+02 -0.12549902540E+02  0.17052690338E+02  0.31801695964E+02  0.00000000000E+00 0.  1.
        -11    1    3    3    0    0 -0.28285245781E+02  0.35837382807E+01  0.46483605444E+02  0.54530944280E+02  0.00000000000E+00 0.  1.
         11    1    3    3    0    0  0.57317011212E+02 -0.52043154867E+02  0.14883575258E+03  0.16776713322E+03  0.00000000000E+00 0. -1.
          4    1    1    2  501    0 -0.36284858342E+02  0.21106588176E+02  0.30077559703E+02  0.51640474504E+02  0.00000000000E+00 0. -1.
<scales pt_clust_5="13000.00000" pt_clust_6="13000.00000" pt_clust_7="13000.00000" pt_clust_8="13000.00000" pt_clust_9="41.97712"></scales>
<clustering>
<clus scale="   41.977">  2  9  1 -1</clus>
<clus scale="   79.996">  5  6 -1 -1</clus>
<clus scale="   89.864">  7  8 -1 -1</clus>
<clus scale="   93.195">  2  5  1 -1</clus>
<clus scale="   41.977">  2  5  1 -1</clus>
</clustering>
</event>
<event>
 9    1  0.9171696E-005  0.1051017E+03  0.7546771E-02  0.1276167E+00
          1   -1    0    0  502    0 -0.00000000000E+00  0.00000000000E+00  0.31025948679E+03  0.31025948679E+03  0.00000000000E+00 0. -1.
         21   -1    0    0  501  502  0.00000000000E+00 -0.00000000000E+00 -0.70293961952E+02  0.70293961952E+02  0.00000000000E+00 0. -1.
        -24    2    1    2    0    0 -0.67170607817E+02 -0.29821589483E+02  0.11918182352E+03  0.16178239565E+03  0.81043313905E+02 0.  0.
         23    2    1    2    0    0  0.72672070281E+01 -0.17514108856E+02  0.31724169126E+02  0.10146510254E+03  0.94494379827E+02 0.  0.
         13    1    3    3    0    0 -0.19419288006E+02 -0.47132793235E+02  0.89373051595E+02  0.10288902418E+03  0.00000000000E+00 0. -1.
        -14    1    3    3    0    0 -0.47751319811E+02  0.17311203753E+02  0.29808771930E+02  0.58893371469E+02  0.00000000000E+00 0.  1.
        -11    1    4    4    0    0 -0.19149143914E+02 -0.96066418007E+01 -0.28250502574E+02  0.35455157241E+02  0.00000000000E+00 0. -1.
         11    1    4    4    0    0  0.26416350942E+02 -0.79074670549E+01  0.59974671700E+02  0.66009945295E+02  0.00000000000E+00 0.  1.
          2    1    1    2  501    0  0.59903400789E+02  0.47335698338E+02  0.89059532189E+02  0.11730595056E+03  0.00000000000E+00 0. -1.
<scales pt_clust_5="13000.00000" pt_clust_6="13000.00000" pt_clust_7="13000.00000" pt_clust_8="13000.00000" pt_clust_9="76.34849"></scales>
<clustering>
<clus scale="   76.348">  2  9  1 -1</clus>
<clus scale="   81.043">  5  6 -1 -1</clus>
<clus scale="   93.194">  1  5  2 -1</clus>
<clus scale="   94.494">  7  8 -1 -1</clus>
<clus scale="   76.348">  2  5  1 -1</clus>
</clustering>
</event>
<event>
 9    1  0.9171696E-005  0.3384337E+03  0.7546771E-02  0.1108194E+00
          1   -1    0    0  502    0 -0.00000000000E+00  0.00000000000E+00  0.10005868879E+04  0.10005868879E+04  0.00000000000E+00 0. -1.
         21   -1    0    0  501  502  0.00000000000E+00 -0.00000000000E+00 -0.17099496765E+03  0.17099496765E+03  0.00000000000E+00 0.  1.
         23    2    1    2    0    0  0.39632456075E+02 -0.65052797113E+02  0.21433048256E+03  0.24312049228E+03  0.85833676526E+02 0.  0.
        -24    2    1    2    0    0  0.14629662079E+03 -0.25804028546E+03  0.19921747364E+03  0.36984580525E+03  0.95450655750E+02 0.  0.
         11    1    4    4    0    0 -0.36809407398E+01 -0.45117318459E+02  0.58028127454E+02  0.73596095857E+02  0.00000000000E+00 0. -1.
        -12    1    4    4    0    0  0.14997756153E+03 -0.21292296700E+03  0.14118934619E+03  0.29624970939E+03  0.00000000000E+00 0.  1.
        -13    1    3    3    0    0  0.30724478043E+02  0.97956343439E+01  0.30292431594E+02  0.44244541077E+02  0.00000000000E+00 0. -1.
         13    1    3    3    0    0  0.89079780322E+01 -0.74848431457E+02  0.18403805097E+03  0.19887595121E+03  0.00000000000E+00 0.  1.
          2    1    1    2  501    0 -0.18592907687E+03  0.32309308257E+03  0.41604396406E+03  0.55861555802E+03  0.00000000000E+00 0. -1.
<scales pt_clust_5="13000.00000" pt_clust_6="13000.00000" pt_clust_7="13000.00000" pt_clust_8="13000.00000" pt_clust_9="324.69470"></scales>
<clustering>
<clus scale="   85.834">  7  8 -1 -1</clus>
<clus scale="   95.451">  5  6 -1 -1</clus>
<clus scale="  114.761">  1  7  2 -1</clus>
<clus scale="  324.695">  2  9  1 -1</clus>
<clus scale="  324.695">  2  5  1 -1</clus>
</clustering>
</event>
<event>
 9    1  0.9171696E-005  0.2229591E+03  0.7546771E-02  0.1132713E+00
         21   -1    0    0  501  502  0.00000000000E+00  0.00000000000E+00  0.39825956528E+02  0.39825956528E+02  0.00000000000E+00 0. -1.
          1   -1    0    0  502    0 -0.00000000000E+00 -0.00000000000E+00 -0.16039447294E+04  0.16039447294E+04  0.00000000000E+00 0. -1.
         23    2    1    2    0    0 -0.15860361045E+02 -0.20190393334E+03 -0.74315220642E+03  0.77583292627E+03  0.92869684095E+02 0.  0.
        -24    2    1    2    0    0 -0.29390479574E+02  0.20367508677E+03 -0.53817370060E+03  0.58154191378E+03  0.78820836110E+02 0.  0.
         11    1    4    4    0    0 -0.30624644413E+02  0.97860695913E+02 -0.17066052463E+03  0.19909695958E+03  0.00000000000E+00 0. -1.
        -12    1    4    4    0    0  0.12341648391E+01  0.10581439086E+03 -0.36751317598E+03  0.38244495420E+03  0.00000000000E+00 0.  1.
        -11    1    3    3    0    0 -0.44514496024E+02 -0.14639944229E+03 -0.60774706807E+03  0.62671431753E+03  0.00000000000E+00 0. -1.
         11    1    3    3    0    0  0.28654134979E+02 -0.55504491049E+02 -0.13540513835E+03  0.14911860873E+03  0.00000000000E+00 0.  1.
          2    1    1    2  501    0  0.45250840619E+02 -0.17711534309E+01 -0.28279286590E+03  0.28639584593E+03  0.00000000000E+00 0. -1.
<scales pt_clust_5="13000.00000" pt_clust_6="13000.00000" pt_clust_7="13000.00000" pt_clust_8="13000.00000" pt_clust_9="45.28551"></scales>
<clustering>
<clus scale="   45.286">  1  9  2 -1</clus>
<clus scale="   78.821">  5  6 -1 -1</clus>
<clus scale="   92.870">  7  8 -1 -1</clus>
<clus scale="  217.483">  1  5  2 -1</clus>
<clus scale="   45.286">  1  5  2 -1</clus>
</clustering>
</event>
<event>
 9    1  0.9171696E-005  0.1098960E+03  0.7546771E-02  0.1267563E+00
          1   -1    0    0  502    0 -0.00000000000E+00  0.00000000000E+00  0.97667064514E+02  0.97667064514E+02  0.00000000000E+00 0. -1.
         21   -1    0    0  501  502  0.00000000000E+00 -0.00000000000E+00 -0.34954546832E+03  0.34954546832E+03  0.00000000000E+00 0. -1.
        -24    2    1    2    0    0  0.70190273171E+02 -0.83446510222E+00  0.21467448123E+02  0.12262811292E+03  0.98231522281E+02 0.  0.
         23    2    1    2    0    0 -0.83201684425E+01 -0.25605287619E+02 -0.73919738994E+02  0.11411412533E+03  0.82662263635E+02 0.  0.
         13    1    3    3    0    0  0.36265796267E+02 -0.83976018992E+01  0.60079078243E+02  0.70676893955E+02  0.00000000000E+00 0. -1.
        -14    1    3    3    0    0  0.33924476904E+02  0.75631367970E+01 -0.38611630120E+02  0.51951218965E+02  0.00000000000E+00 0.  1.
        -11    1    4    4    0    0 -0.32489537066E+02  0.17122044635E+02 -0.22728542031E+02  0.43189362743E+02  0.00000000000E+00 0.  1.
         11    1    4    4    0    0  0.24169368624E+02 -0.42727332254E+02 -0.51191196963E+02  0.70924762585E+02  0.00000000000E+00 0. -1.
          2    1    1    2  501    0 -0.61870104728E+02  0.26439752721E+02 -0.19942611293E+03  0.21047029458E+03  0.00000000000E+00 0. -1.
<scales pt_clust_5="13000.00000" pt_clust_6="13000.00000" pt_clust_7="13000.00000" pt_clust_8="13000.00000" pt_clust_9="67.28276"></scales>
<clustering>
<clus scale="   67.283">  2  9  1 -1</clus>
<clus scale="   82.662">  7  8 -1 -1</clus>
<clus scale="   96.233">  2  7  1 -1</clus>
<clus scale="   98.232">  5  6 -1 -1</clus>
<clus scale="   67.283">  2  5  1 -1</clus>
</clustering>
</event>
<event>
 9    1  0.9171696E-005  0.1558899E+03  0.7546771E-02  0.1195225E+00
         21   -1    0    0  501  502  0.00000000000E+00  0.00000000000E+00  0.45903122463E+02  0.45903122463E+02  0.00000000000E+00 0. -1.
          1   -1    0    0  502    0 -0.00000000000E+00 -0.00000000000E+00 -0.96660208333E+03  0.96660208333E+03  0.00000000000E+00 0. -1.
         23    2    1    2    0    0 -0.11024526177E+03  0.27462110250E+02 -0.27993736663E+03  0.31560197576E+03  0.91277010403E+02 0.  0.
        -24    2    1    2    0    0  0.12858387157E+03 -0.74073822437E+02 -0.24233374907E+03  0.29533915778E+03  0.80491173287E+02 0.  0.
         11    1    4    4    0    0  0.50921635681E+02 -0.30555278370E+02 -0.17175504816E+03  0.18173176548E+03  0.00000000000E+00 0. -1.
        -12    1    4    4    0    0  0.77662235891E+02 -0.43518544066E+02 -0.70578700914E+02  0.11360739229E+03  0.00000000000E+00 0.  1.
        -11    1    3    3    0    0 -0.36320502383E+02  0.48399687283E+02 -0.72748951964E+02  0.94626204798E+02  0.00000000000E+00 0.  1.
         11    1    3    3    0    0 -0.73924759389E+02 -0.20937577033E+02 -0.20718841466E+03  0.22097577097E+03  0.00000000000E+00 0. -1.
          2    1    1    2  501    0 -0.18338609800E+02  0.46611712187E+02 -0.39842784516E+03  0.40156407225E+03  0.00000000000E+00 0. -1.
<scales pt_clust_5="13000.00000" pt_clust_6="13000.00000" pt_clust_7="13000.00000" pt_clust_8="13000.00000" pt_clust_9="50.08951"></scales>
<clustering>
<clus scale="   50.090">  1  9  2 -1</clus>
<clus scale="   80.491">  5  6 -1 -1</clus>
<clus scale="   91.277">  7  8 -1 -1</clus>
<clus scale="  149.830">  1  5  2 -1</clus>
<clus scale="   50.090">  1  5  2 -1</clus>
</clustering>
</event>
<event>
 9    1  0.9171696E-005  0.9410005E+02  0.7546771E-02  0.1301373E+00
         21   -1    0    0  501  502  0.00000000000E+00  0.00000000000E+00  0.41711765396E+02  0.41711765396E+02  0.00000000000E+00 0.  1.
          3   -1    0    0  502    0 -0.00000000000E+00 -0.00000000000E+00 -0.44728388979E+03  0.44728388979E+03  0.00000000000E+00 0. -1.
         23    2    1    2    0    0  0.24546519049E+02  0.14984189638E+01 -0.30765784049E+03  0.32224662220E+03  0.92653989915E+02 0.  0.
        -24    2    1    2    0    0  0.16896378255E+02 -0.28028687219E+02 -0.60028817549E+02  0.10464687979E+03  0.79223832324E+02 0.  0.
         13    1    4    4    0    0 -0.56632890833E+01 -0.23893118284E+02 -0.73879673532E+02  0.77853452755E+02  0.00000000000E+00 0. -1.
        -14    1    4    4    0    0  0.22559667339E+02 -0.41355689350E+01  0.13850855983E+02  0.26793427035E+02  0.00000000000E+00 0.  1.
        -11    1    3    3    0    0 -0.25807372705E+02 -0.27365959538E+02 -0.13145111097E+03  0.13672713997E+03  0.00000000000E+00 0.  1.
         11    1    3    3    0    0  0.50353891754E+02  0.28864378502E+02 -0.17620672952E+03  0.18551948224E+03  0.00000000000E+00 0. -1.
          4    1    1    2  501    0 -0.41442897305E+02  0.26530268255E+02 -0.37885466352E+02  0.62102153195E+02  0.00000000000E+00 0. -1.
<scales pt_clust_5="13000.00000" pt_clust_6="13000.00000" pt_clust_7="13000.00000" pt_clust_8="13000.00000" pt_clust_9="49.20741"></scales>
<clustering>
<clus scale="   49.207">  1  9  2 -1</clus>
<clus scale="   79.224">  5  6 -1 -1</clus>
<clus scale="   80.910">  1  5  2 -1</clus>
<clus scale="   92.654">  7  8 -1 -1</clus>
<clus scale="   49.207">  1  5  2 -1</clus>
</clustering>
</event>
<event>
 9    1  0.9171696E-005  0.1266528E+03  0.7546771E-02  0.1236028E+00
         21   -1    0    0  501  502  0.00000000000E+00  0.00000000000E+00  0.85482278534E+03  0.85482278534E+03  0.00000000000E+00 0. -1.
          3   -1    0    0  502    0 -0.00000000000E+00 -0.00000000000E+00 -0.41518541369E+02  0.41518541369E+02  0.00000000000E+00 0. -1.
         23    2    1    2    0    0  0.90798607007E+02 -0.28871570842E+01  0.15339037606E+03  0.20131046366E+03  0.93512419502E+02 0.  0.
        -24    2    1    2    0    0 -0.64126793317E+02 -0.64920250738E+02  0.54830955233E+03  0.56174637987E+03  0.81171088067E+02 0.  0.
         11    1    4    4    0    0 -0.54738256770E+02 -0.78032359868E+02  0.34889693380E+03  0.36168272886E+03  0.00000000000E+00 0. -1.
        -12    1    4    4    0    0 -0.93885365476E+01  0.13112109130E+02  0.19941261853E+03  0.20006365100E+03  0.00000000000E+00 0.  1.
        -11    1    3    3    0    0  0.46734821587E+02 -0.10931876467E+02  0.14872281829E+03  0.15627580155E+03  0.00000000000E+00 0.  1.
         11    1    3    3    0    0  0.44063785420E+02  0.80447193828E+01  0.46675577717E+01  0.45034662106E+02  0.00000000000E+00 0. -1.
          4    1    1    2  501    0 -0.26671813690E+02  0.67807407822E+02  0.11160431558E+03  0.13328448318E+03  0.00000000000E+00 0. -1.
<scales pt_clust_5="13000.00000" pt_clust_6="13000.00000" pt_clust_7="13000.00000" pt_clust_8="13000.00000" pt_clust_9="72.86450"></scales>
<clustering>
<clus scale="   72.865">  1  9  2 -1</clus>
<clus scale="   81.171">  5  6 -1 -1</clus>
<clus scale="   93.512">  7  8 -1 -1</clus>
<clus scale="  117.835">  1  5  2 -1</clus>
<clus scale="   72.865">  1  5  2 -1</clus>
</clustering>
</event>
<event>
 9    1  0.9171696E-005  0.1061646E+03  0.7546771E-02  0.1270176E+00
         21   -1    0    0  501  502  0.00000000000E+00  0.00000000000E+00  0.31670586398E+02  0.31670586398E+02  0.00000000000E+00 0. -1.
          3   -1    0    0  502    0 -0.00000000000E+00 -0.00000000000E+00 -0.58662962807E+03  0.58662962807E+03  0.00000000000E+00 0. -1.
        -24    2    1    2    0    0  0.34454309899E+02 -0.37411459254E+02 -0.35285349054E+03  0.36930690108E+03  0.96412056551E+02 0.  0.
         23    2    1    2    0    0 -0.34213434145E+02  0.45139316309E+01 -0.91982028667E+02  0.13406074383E+03  0.91217623202E+02 0.  0.
         11    1    3    3    0    0  0.11195323287E+01 -0.51321947904E+02 -0.30532566501E+03  0.30961097753E+03  0.00000000000E+00 0. -1.
        -12    1    3    3    0    0  0.33334777570E+02  0.13910488650E+02 -0.47527825526E+02  0.59695923558E+02  0.00000000000E+00 0.  1.
        -13    1    4    4    0    0 -0.40425950654E+02  0.28575837663E+02 -0.12890060110E+02  0.51156520933E+02  0.00000000000E+00 0. -1.
         13    1    4    4    0    0  0.62125165083E+01 -0.24061906032E+02 -0.79091968557E+02  0.82904222893E+02  0.00000000000E+00 0.  1.
          4    1    1    2  501    0 -0.24087575367E+00  0.32897527623E+02 -0.11012352247E+03  0.11493256956E+03  0.00000000000E+00 0. -1.
<scales pt_clust_5="13000.00000" pt_clust_6="13000.00000" pt_clust_7="13000.00000" pt_clust_8="13000.00000" pt_clust_9="32.89843"></scales>
<clustering>
<clus scale="   32.898">  1  9  2 -1</clus>
<clus scale="   91.218">  7  8 -1 -1</clus>
<clus scale="   96.412">  5  6 -1 -1</clus>
<clus scale="  101.471">  1  7  2 -1</clus>
<clus scale="   32.898">  1  5  2 -1</clus>
</clustering>
</event>
<event>
 9    1  0.9171696E-005  0.8976182E+02  0.7546771E-02  0.1310357E+00
          1   -1    0    0  502    0 -0.00000000000E+00  0.00000000000E+00  0.29566520794E+03  0.29566520794E+03  0.00000000000E+00 0. -1.
         21   -1    0    0  501  502  0.00000000000E+00 -0.00000000000E+00 -0.42936520871E+02  0.42936520871E+02  0.00000000000E+00 0. -1.
        -24    2    1    2    0    0  0.18603543978E+02 -0.48988684598E+01  0.12815023375E+03  0.15168010666E+03  0.78830714739E+02 0.  0.
         23    2    1    2    0    0  0.24654040798E+02  0.50290697957E+01  0.65675169323E+02  0.11384062285E+03  0.89517295950E+02 0.  0.
         11    1    3    3    0    0  0.46982288390E+02  0.17167173536E+00  0.51112479916E+02  0.69425143117E+02  0.00000000000E+00 0. -1.
        -12    1    3    3    0    0 -0.28378744412E+02 -0.50705401951E+01  0.77037753829E+02  0.82254963542E+02  0.00000000000E+00 0.  1.
        -11    1    4    4    0    0  0.42009838414E+02 -0.63333620802E+01 -0.25208748484E+01  0.42559285812E+02  0.00000000000E+00 0.  1.
         11    1    4    4    0    0 -0.17355797616E+02  0.11362431876E+02  0.68196044171E+02  0.71281337036E+02  0.00000000000E+00 0. -1.
          2    1    1    2  501    0 -0.43257584777E+02 -0.13020133596E+00  0.58903283999E+02  0.73080999302E+02  0.00000000000E+00 0. -1.
<scales pt_clust_5="13000.00000" pt_clust_6="13000.00000" pt_clust_7="13000.00000" pt_clust_8="13000.00000" pt_clust_9="43.25780"></scales>
<clustering>
<clus scale="   43.258">  2  9  1 -1</clus>
<clus scale="   78.831">  5  6 -1 -1</clus>
<clus scale="   79.108">  1  5  2 -1</clus>
<clus scale="   89.517">  7  8 -1 -1</clus>
<clus scale="   43.258">  2  5  1 -1</clus>
</clustering>
</event>
<event>
 9    1  0.9171696E-005  0.9390623E+02  0.7546771E-02  0.1297274E+00
         21   -1    0    0  501  502  0.00000000000E+00  0.00000000000E+00  0.27856182806E+03  0.27856182806E+03  0.00000000000E+00 0. -1.
          3   -1    0    0  502    0 -0.00000000000E+00 -0.00000000000E+00 -0.82107191781E+02  0.82107191781E+02  0.00000000000E+00 0. -1.
        -24    2    1    2    0    0 -0.34847235862E+01  0.74931228081E+01 -0.33885989869E+02  0.93698541441E+02  0.86964740963E+02 0.  0.
         23    2    1    2    0    0  0.10847900190E+02 -0.37944304092E+02  0.19554033677E+03  0.22014579525E+03  0.93116597396E+02 0.  0.
         11    1    3    3    0    0 -0.28555034253E+02 -0.27893991937E+02 -0.30428308386E+02  0.50193094332E+02  0.00000000000E+00 0. -1.
        -12    1    3    3    0    0  0.25070310667E+02  0.35387114745E+02 -0.34576814833E+01  0.43505447109E+02  0.00000000000E+00 0.  1.
        -11    1    4    4    0    0 -0.28356632997E+02  0.13319441152E+02  0.10046014141E+03  0.10523186855E+03  0.00000000000E+00 0.  1.
         11    1    4    4    0    0  0.39204533187E+02 -0.51263745244E+02  0.95080195364E+02  0.11491392670E+03  0.00000000000E+00 0. -1.
          4    1    1    2  501    0 -0.73631766041E+01  0.30451181283E+02  0.34800289380E+02  0.46824683151E+02  0.00000000000E+00 0. -1.
<scales pt_clust_5="13000.00000" pt_clust_6="13000.00000" pt_clust_7="13000.00000" pt_clust_8="13000.00000" pt_clust_9="31.32875"></scales>
<clustering>
<clus scale="   31.329">  1  9  2 -1</clus>
<clus scale="   86.965">  5  6 -1 -1</clus>
<clus scale="   87.810">  2  5  1 -1</clus>
<clus scale="   93.117">  7  8 -1 -1</clus>
<clus scale="   31.329">  1  5  2 -1</clus>
</clustering>
</event>
<event>
 9    1  0.9171696E-005  0.1194292E+03  0.7546771E-02  0.1247186E+00
          1   -1    0    0  502    0 -0.00000000000E+00  0.00000000000E+00  0.57941837821E+03  0.57941837821E+03  0.00000000000E+00 0. -1.
         21   -1    0    0  501  502  0.00000000000E+00 -0.00000000000E+00 -0.52263821128E+02  0.52263821128E+02  0.00000000000E+00 0.  1.
        -24    2    1    2    0    0 -0.72443561223E+02 -0.39564166905E+02  0.35249515363E+03  0.37113616219E+03  0.81705720022E+02 0.  0.
         23    2    1    2    0    0  0.16741470906E+02  0.81169699741E+02  0.11926997505E+03  0.17165435021E+03  0.91493671881E+02 0.  0.
         13    1    3    3    0    0 -0.26950773446E+02 -0.59737314580E+02  0.22211296905E+03  0.23157949383E+03  0.00000000000E+00 0. -1.
        -14    1    3    3    0    0 -0.45492787777E+02  0.20173147674E+02  0.13038218458E+03  0.13955666836E+03  0.00000000000E+00 0.  1.
        -13    1    4    4    0    0  0.40894993829E+01  0.30948676487E+02 -0.96871280328E+01  0.32686159625E+02  0.00000000000E+00 0.  1.
         13    1    4    4    0    0  0.12651971523E+02  0.50221023255E+02  0.12895710308E+03  0.13896819058E+03  0.00000000000E+00 0. -1.
          2    1    1    2  501    0  0.55702090317E+02 -0.41605532836E+02  0.55389428410E+02  0.88891686944E+02  0.00000000000E+00 0. -1.
<scales pt_clust_5="13000.00000" pt_clust_6="13000.00000" pt_clust_7="13000.00000" pt_clust_8="13000.00000" pt_clust_9="69.52513"></scales>
<clustering>
<clus scale="   69.525">  2  9  1 -1</clus>
<clus scale="   81.706">  5  6 -1 -1</clus>
<clus scale="   91.494">  7  8 -1 -1</clus>
<clus scale="  112.107">  1  5  2 -1</clus>
<clus scale="   69.525">  2  5  1 -1</clus>
</clustering>
</event>
<event>
 9    1  0.9171696E-005  0.9215625E+02  0.7546771E-02  0.1305402E+00
          1   -1    0    0  502    0 -0.00000000000E+00  0.00000000000E+00  0.19148908519E+03  0.19148908519E+03  0.00000000000E+00 0. -1.
         21   -1    0    0  501  502  0.00000000000E+00 -0.00000000000E+00 -0.11457093620E+03  0.11457093620E+03  0.00000000000E+00 0.  1.
         23    2    1    2    0    0 -0.10553287311E+02 -0.44031770085E+01  0.95042052434E+02  0.13285294775E+03  0.92120324322E+02 0.  0.
        -24    2    1    2    0    0 -0.41067457345E+02 -0.63564409513E+01 -0.57938535706E+02  0.10713381430E+03  0.79961489809E+02 0.  0.
         11    1    4    4    0    0 -0.38106229758E+02  0.37196369205E+00  0.95173652527E+01  0.39278535419E+02  0.00000000000E+00 0. -1.
        -12    1    4    4    0    0 -0.29612275876E+01 -0.67284046433E+01 -0.67455900959E+02  0.67855278881E+02  0.00000000000E+00 0.  1.
        -13    1    3    3    0    0  0.40760999333E+02  0.30931433273E+01  0.44812040205E+02  0.60655960545E+02  0.00000000000E+00 0. -1.
         13    1    3    3    0    0 -0.51314286645E+02 -0.74963203359E+01  0.50230012228E+02  0.72196987201E+02  0.00000000000E+00 0.  1.
          2    1    1    2  501    0  0.51620744656E+02  0.10759617960E+02  0.39814632270E+02  0.66073259344E+02  0.00000000000E+00 0. -1.
<scales pt_clust_5="13000.00000" pt_clust_6="13000.00000" pt_clust_7="13000.00000" pt_clust_8="13000.00000" pt_clust_9="52.73019"></scales>
<clustering>
<clus scale="   52.730">  2  9  1 -1</clus>
<clus scale="   79.961">  5  6 -1 -1</clus>
<clus scale="   80.003">  2  5  1 -1</clus>
<clus scale="   92.120">  7  8 -1 -1</clus>
<clus scale="   52.730">  2  5  1 -1</clus>
</clustering>
</event>
<event>
 9    1  0.9171696E-005  0.2059454E+03  0.7546771E-02  0.1173507E+00
         21   -1    0    0  501  502  0.00000000000E+00  0.00000000000E+00  0.41189753443E+03  0.41189753443E+03  0.00000000000E+00 0. -1.
          1   -1    0    0  502    0 -0.00000000000E+00 -0.00000000000E+00 -0.40472638015E+03  0.40472638015E+03  0.00000000000E+00 0. -1.
        -24    2    1    2    0    0  0.50402629261E+02  0.46984287758E+02 -0.10300721860E+03  0.14744480096E+03  0.79884503582E+02 0.  0.
         23    2    1    2    0    0  0.11800730615E+03  0.13169270576E+03  0.29905322145E+03  0.35940325469E+03  0.92028132466E+02 0.  0.
         13    1    3    3    0    0  0.60842428132E+02  0.59524719870E+02 -0.68440731044E+02  0.10922054295E+03  0.00000000000E+00 0. -1.
        -14    1    3    3    0    0 -0.10439798870E+02 -0.12540432112E+02 -0.34566487561E+02  0.38224258009E+02  0.00000000000E+00 0.  1.
        -11    1    4    4    0    0  0.95224688208E+02  0.14072662155E+03  0.22876808805E+03  0.28496764969E+03  0.00000000000E+00 0. -1.
         11    1    4    4    0    0  0.22782617946E+02 -0.90339157934E+01  0.70285133396E+02  0.74435604998E+02  0.00000000000E+00 0.  1.
          2    1    1    2  501    0 -0.16840993541E+03 -0.17867699352E+03 -0.18887484856E+03  0.30977585893E+03  0.00000000000E+00 0. -1.
<scales pt_clust_5="13000.00000" pt_clust_6="13000.00000" pt_clust_7="13000.00000" pt_clust_8="13000.00000" pt_clust_9="184.23992"></scales>
<clustering>
<clus scale="   79.885">  5  6 -1 -1</clus>
<clus scale="   92.028">  7  8 -1 -1</clus>
<clus scale="  105.496">  2  5  1 -1</clus>
<clus scale="  184.240">  1  9  2 -1</clus>
<clus scale="  184.240">  1  5  2 -1</clus>
</clustering>
</event>
<event>
 9    1  0.9171696E-005  0.1786449E+03  0.7546771E-02  0.1169895E+00
         21   -1    0    0  501  502  0.00000000000E+00  0.00000000000E+00  0.10054902994E+03  0.10054902994E+03  0.00000000000E+00 0.  1.
          1   -1    0    0  502    0 -0.00000000000E+00 -0.00000000000E+00 -0.72901631187E+03  0.72901631187E+03  0.00000000000E+00 0. -1.
         23    2    1    2    0    0 -0.56123467929E+01 -0.15121457619E+03 -0.57319688771E+03  0.59943829985E+03  0.88737008946E+02 0.  0.
        -24    2    1    2    0    0  0.11214354728E+02  0.17437338981E+03 -0.65876693133E+02  0.20404626902E+03  0.82239287307E+02 0.  0.
         11    1    4    4    0    0  0.33444297894E+02  0.94984093170E+02 -0.68113887052E+02  0.12157302590E+03  0.00000000000E+00 0. -1.
        -12    1    4    4    0    0 -0.22229943166E+02  0.79389296637E+02  0.22371939189E+01  0.82473243118E+02  0.00000000000E+00 0.  1.
        -13    1    3    3    0    0 -0.19297821041E+02 -0.11194573591E+03 -0.51811147825E+03  0.53041847402E+03  0.00000000000E+00 0. -1.
         13    1    3    3    0    0  0.13685474248E+02 -0.39268840279E+02 -0.55085409455E+02  0.69019825826E+02  0.00000000000E+00 0.  1.
          2    1    1    2  501    0 -0.56020079356E+01 -0.23158813614E+02  0.10606298914E+02  0.26080772948E+02  0.00000000000E+00 0. -1.
<scales pt_clust_5="13000.00000" pt_clust_6="13000.00000" pt_clust_7="13000.00000" pt_clust_8="13000.00000" pt_clust_9="23.82673"></scales>
<clustering>
<clus scale="   23.827">  1  9  2 -1</clus>
<clus scale="   82.239">  5  6 -1 -1</clus>
<clus scale="   88.737">  7  8 -1 -1</clus>
<clus scale="  175.508">  1  5  2 -1</clus>
<clus scale="   23.827">  1  5  2 -1</clus>
</clustering>
</event>
<event>
 9    1  0.9171696E-005  0.1831363E+03  0.7546771E-02  0.1166221E+00
         21   -1    0    0  501  502  0.00000000000E+00  0.00000000000E+00  0.47382059015E+02  0.47382059015E+02  0.00000000000E+00 0.  1.
          1   -1    0    0  502    0 -0.00000000000E+00 -0.00000000000E+00 -0.11991402418E+04  0.11991402418E+04  0.00000000000E+00 0. -1.
         23    2    1    2    0    0  0.12185396739E+03 -0.81517638730E+02 -0.75178966052E+03  0.77162039477E+03  0.93363939375E+02 0.  0.
        -24    2    1    2    0    0 -0.16668982396E+03  0.95850649675E+02 -0.31803014158E+03  0.38040541158E+03  0.81192744427E+02 0.  0.
         13    1    4    4    0    0 -0.27179168343E+02  0.48057354139E+02 -0.13151501678E+03  0.14263385333E+03  0.00000000000E+00 0. -1.
        -14    1    4    4    0    0 -0.13951065562E+03  0.47793295536E+02 -0.18651512480E+03  0.23777155824E+03  0.00000000000E+00 0.  1.
        -11    1    3    3    0    0  0.94141341336E+02 -0.99898992860E+02 -0.65643141908E+03  0.67063000893E+03  0.00000000000E+00 0. -1.
         11    1    3    3    0    0  0.27712626056E+02  0.18381354130E+02 -0.95358241435E+02  0.10099038584E+03  0.00000000000E+00 0.  1.
          2    1    1    2  501    0  0.44835856567E+02 -0.14333010945E+02 -0.81938380694E+02  0.94496494473E+02  0.00000000000E+00 0. -1.
<scales pt_clust_5="13000.00000" pt_clust_6="13000.00000" pt_clust_7="13000.00000" pt_clust_8="13000.00000" pt_clust_9="47.07111"></scales>
<clustering>
<clus scale="   47.071">  1  9  2 -1</clus>
<clus scale="   81.193">  5  6 -1 -1</clus>
<clus scale="   93.364">  7  8 -1 -1</clus>
<clus scale="  177.241">  1  5  2 -1</clus>
<clus scale="   47.071">  1  5  2 -1</clus>
</clustering>
</event>
<event>
 9    1  0.9171696E-005  0.1547626E+03  0.7546771E-02  0.1200993E+00
          1   -1    0    0  502    0 -0.00000000000E+00  0.00000000000E+00  0.20589865506E+04  0.20589865506E+04  0.00000000000E+00 0. -1.
         21   -1    0    0  501  502  0.00000000000E+00 -0.00000000000E+00 -0.27991958775E+02  0.27991958775E+02  0.00000000000E+00 0. -1.
         23    2    1    2    0    0 -0.11040387670E+02 -0.11647747012E+03  0.45488849403E+03  0.47450970815E+03  0.67431668533E+02 0.  0.
        -24    2    1    2    0    0 -0.10219312949E+03 -0.45959469523E+02  0.49349745317E+03  0.51190119031E+03  0.77119282960E+02 0.  0.
         13    1    4    4    0    0 -0.58664114766E+02  0.35545173153E+01  0.33696275925E+03  0.34204972456E+03  0.00000000000E+00 0. -1.
        -14    1    4    4    0    0 -0.43529014728E+02 -0.49513986838E+02  0.15653469392E+03  0.16985146575E+03  0.00000000000E+00 0.  1.
        -11    1    3    3    0    0  0.28584989444E+02 -0.49782274701E+02  0.20027292199E+03  0.20833775409E+03  0.00000000000E+00 0.  1.
         11    1    3    3    0    0 -0.39625377114E+02 -0.66695195423E+02  0.25461557204E+03  0.26617195407E+03  0.00000000000E+00 0. -1.
          2    1    1    2  501    0  0.11323351716E+03  0.16243693965E+03  0.10826086447E+04  0.11005676109E+04  0.00000000000E+00 0. -1.
<scales pt_clust_5="13000.00000" pt_clust_6="13000.00000" pt_clust_7="13000.00000" pt_clust_8="13000.00000" pt_clust_9="134.17937"></scales>
<clustering>
<clus scale="   67.432">  7  8 -1 -1</clus>
<clus scale="   77.119">  5  6 -1 -1</clus>
<clus scale="  135.041">  1  7  2 -1</clus>
<clus scale="  134.179">  2  9  1 -1</clus>
<clus scale="  134.179">  2  5  1 -1</clus>
</clustering>
</event>
<event>
 9    1  0.9171696E-005  0.1741014E+03  0.7546771E-02  0.1174707E+00
         21   -1    0    0  501  502  0.00000000000E+00  0.00000000000E+00  0.41602599170E+03  0.41602599170E+03  0.00000000000E+00 0. -1.
          1   -1    0    0  502    0 -0.00000000000E+00 -0.00000000000E+00 -0.76495636672E+03  0.76495636672E+03  0.00000000000E+00 0. -1.
         23    2    1    2    0    0 -0.16199569303E+03  0.30661154053E+02 -0.65899500006E+03  0.68545595863E+03  0.91611954373E+02 0.  0.
        -24    2    1    2    0    0  0.93807751876E+02  0.77474409908E+01 -0.43756618036E+02  0.13315326674E+03  0.83398043553E+02 0.  0.
         13    1    4    4    0    0 -0.58561466462E+01 -0.21163138610E+02 -0.65917438881E+01  0.22926490723E+02  0.00000000000E+00 0. -1.
        -14    1    4    4    0    0  0.99663898522E+02  0.28910579601E+02 -0.37164874148E+02  0.11022677602E+03  0.00000000000E+00 0.  1.
        -13    1    3    3    0    0 -0.33876280523E+02  0.22118147135E+02 -0.56873747284E+02  0.69795687151E+02  0.00000000000E+00 0.  1.
         13    1    3    3    0    0 -0.12811941251E+03  0.85430069183E+01 -0.60212125278E+03  0.61566027148E+03  0.00000000000E+00 0. -1.
          2    1    1    2  501    0  0.68187941154E+02 -0.38408595044E+02  0.35382124309E+03  0.36237313304E+03  0.00000000000E+00 0. -1.
<scales pt_clust_5="13000.00000" pt_clust_6="13000.00000" pt_clust_7="13000.00000" pt_clust_8="13000.00000" pt_clust_9="78.26120"></scales>
<clustering>
<clus scale="   78.261">  1  9  2 -1</clus>
<clus scale="   83.398">  5  6 -1 -1</clus>
<clus scale="   91.612">  7  8 -1 -1</clus>
<clus scale="  169.923">  1  5  2 -1</clus>
<clus scale="   78.261">  1  5  2 -1</clus>
</clustering>
</event>
<event>
 9    1  0.9171696E-005  0.1464523E+03  0.7546771E-02  0.1213754E+00
         21   -1    0    0  501  502  0.00000000000E+00  0.00000000000E+00  0.72231866582E+02  0.72231866582E+02  0.00000000000E+00 0. -1.
          1   -1    0    0  502    0 -0.00000000000E+00 -0.00000000000E+00 -0.88824968883E+03  0.88824968883E+03  0.00000000000E+00 0. -1.
        -24    2    1    2    0    0 -0.87468793881E+02  0.21028429296E+02 -0.39870994827E+02  0.12759080688E+03  0.81220274743E+02 0.  0.
         23    2    1    2    0    0  0.90397437950E+01 -0.11536276639E+03 -0.60291887622E+03  0.62062203645E+03  0.90940947798E+02 0.  0.
         11    1    3    3    0    0 -0.82257083439E+02 -0.93811955165E+01 -0.79093869352E+01  0.83167259224E+02  0.00000000000E+00 0. -1.
        -12    1    3    3    0    0 -0.52117104421E+01  0.30409624813E+02 -0.31961607892E+02  0.44423547652E+02  0.00000000000E+00 0.  1.
        -11    1    4    4    0    0  0.45241757436E+02 -0.89118350527E+02 -0.46561694788E+03  0.47622267814E+03  0.00000000000E+00 0.  1.
         11    1    4    4    0    0 -0.36202013641E+02 -0.26244415866E+02 -0.13730192834E+03  0.14439935831E+03  0.00000000000E+00 0. -1.
          2    1    1    2  501    0  0.78429050086E+02  0.94334337097E+02 -0.17322795119E+03  0.21226871208E+03  0.00000000000E+00 0. -1.
<scales pt_clust_5="13000.00000" pt_clust_6="13000.00000" pt_clust_7="13000.00000" pt_clust_8="13000.00000" pt_clust_9="114.79558"></scales>
<clustering>
<clus scale="   81.220">  5  6 -1 -1</clus>
<clus scale="   90.941">  7  8 -1 -1</clus>
<clus scale="  121.201">  2  5  1 -1</clus>
<clus scale="  114.796">  1  9  2 -1</clus>
<clus scale="  114.796">  1  5  2 -1</clus>
</clustering>
</event>
<event>
 9    1  0.9171696E-005  0.1045159E+03  0.7546771E-02  0.1279224E+00
         21   -1    0    0  501  502  0.00000000000E+00  0.00000000000E+00  0.21245711266E+03  0.21245711266E+03  0.00000000000E+00 0. -1.
          1   -1    0    0  502    0 -0.00000000000E+00 -0.00000000000E+00 -0.10682531703E+03  0.10682531703E+03  0.00000000000E+00 0. -1.
         23    2    1    2    0    0  0.11414348474E+02  0.51703885653E+02 -0.44561637074E+02  0.11321691828E+03  0.89603303196E+02 0.  0.
        -24    2    1    2    0    0 -0.33182211810E+02 -0.48429790631E+02  0.53285934411E+02  0.10668934325E+03  0.71391325497E+02 0.  0.
         13    1    4    4    0    0 -0.49644459144E+02 -0.24738194922E+02  0.54571293524E+02  0.77811160438E+02  0.00000000000E+00 0. -1.
        -14    1    4    4    0    0  0.16462247335E+02 -0.23691595710E+02 -0.12853591130E+01  0.28878182814E+02  0.00000000000E+00 0.  1.
        -11    1    3    3    0    0 -0.20524050937E+02  0.40449654888E+02 -0.60642605240E+02  0.75729365624E+02  0.00000000000E+00 0. -1.
         11    1    3    3    0    0  0.31938399412E+02  0.11254230765E+02  0.16080968166E+02  0.37487552658E+02  0.00000000000E+00 0.  1.
          2    1    1    2  501    0  0.21767863335E+02 -0.32740950217E+01  0.96907498296E+02  0.99376168161E+02  0.00000000000E+00 0. -1.
<scales pt_clust_5="13000.00000" pt_clust_6="13000.00000" pt_clust_7="13000.00000" pt_clust_8="13000.00000" pt_clust_9="22.01271"></scales>
<clustering>
<clus scale="   22.013">  1  9  2 -1</clus>
<clus scale="   71.391">  5  6 -1 -1</clus>
<clus scale="   89.395">  1  5  2 -1</clus>
<clus scale="   89.603">  7  8 -1 -1</clus>
<clus scale="   22.013">  1  5  2 -1</clus>
</clustering>
</event>
<event>
 9    1  0.9171696E-005  0.1275229E+03  0.7546771E-02  0.1238467E+00
          1   -1    0    0  502    0 -0.00000000000E+00  0.00000000000E+00  0.10351970226E+04  0.10351970226E+04  0.00000000000E+00 0. -1.
         21   -1    0    0  501  502  0.00000000000E+00 -0.00000000000E+00 -0.40016758770E+02  0.40016758770E+02  0.00000000000E+00 0. -1.
         23    2    1    2    0    0  0.44251474067E+02  0.42861374391E+02  0.47883909101E+03  0.49127469866E+03  0.90932195051E+02 0.  0.
        -24    2    1    2    0    0  0.62725048640E+02  0.55262397141E+02  0.13919050696E+03  0.17981673030E+03  0.77276742983E+02 0.  0.
         11    1    4    4    0    0  0.26920769663E+02 -0.15776108754E+02  0.22009845440E+02  0.38184378258E+02  0.00000000000E+00 0. -1.
        -12    1    4    4    0    0  0.35804278977E+02  0.71038505895E+02  0.11718066152E+03  0.14163235205E+03  0.00000000000E+00 0.  1.
        -13    1    3    3    0    0  0.88445319388E+01 -0.28147796929E+02  0.10250805538E+03  0.10666970346E+03  0.00000000000E+00 0.  1.
         13    1    3    3    0    0  0.35406942128E+02  0.71009171320E+02  0.37633103562E+03  0.38460499520E+03  0.00000000000E+00 0. -1.
          2    1    1    2  501    0 -0.10697652271E+03 -0.98123771531E+02  0.37715066587E+03  0.40412235241E+03  0.00000000000E+00 0. -1.
<scales pt_clust_5="13000.00000" pt_clust_6="13000.00000" pt_clust_7="13000.00000" pt_clust_8="13000.00000" pt_clust_9="101.44166"></scales>
<clustering>
<clus scale="   77.277">  5  6 -1 -1</clus>
<clus scale="   90.932">  7  8 -1 -1</clus>
<clus scale="  109.836">  1  7  2 -1</clus>
<clus scale="  101.442">  2  9  1 -1</clus>
<clus scale="  101.442">  2  5  1 -1</clus>
</clustering>
</event>
<event>
 9    1  0.9171696E-005  0.9869575E+02  0.7546771E-02  0.1288036E+00
          1   -1    0    0  502    0 -0.00000000000E+00  0.00000000000E+00  0.25872487239E+02  0.25872487239E+02  0.00000000000E+00 0. -1.
         21   -1    0    0  501  502  0.00000000000E+00 -0.00000000000E+00 -0.92472451095E+03  0.92472451095E+03  0.00000000000E+00 0.  1.
         23    2    1    2    0    0  0.25650436230E+02  0.33352087269E+02 -0.21963669365E+03  0.24151830013E+03  0.91216804905E+02 0.  0.
        -24    2    1    2    0    0  0.11686786225E+01 -0.30514563689E+02 -0.67637557175E+03  0.68196079458E+03  0.81572709207E+02 0.  0.
         11    1    4    4    0    0  0.25907900842E+02  0.95295584418E+01 -0.10230894850E+03  0.10596769674E+03  0.00000000000E+00 0. -1.
        -12    1    4    4    0    0 -0.24739222219E+02 -0.40044122131E+02 -0.57406662325E+03  0.57599309784E+03  0.00000000000E+00 0.  1.
        -11    1    3    3    0    0  0.32874842737E+02 -0.23972363518E+02 -0.11506204885E+03  0.12204386336E+03  0.00000000000E+00 0. -1.
         11    1    3    3    0    0 -0.72244065070E+01  0.57324450787E+02 -0.10457464479E+03  0.11947443677E+03  0.00000000000E+00 0.  1.
          2    1    1    2  501    0 -0.26819114853E+02 -0.28375235796E+01 -0.28397583157E+01  0.27117903474E+02  0.00000000000E+00 0. -1.
<scales pt_clust_5="13000.00000" pt_clust_6="13000.00000" pt_clust_7="13000.00000" pt_clust_8="13000.00000" pt_clust_9="26.96882"></scales>
<clustering>
<clus scale="   26.969">  2  9  1 -1</clus>
<clus scale="   81.573">  5  6 -1 -1</clus>
<clus scale="   89.858">  2  5  1 -1</clus>
<clus scale="   91.217">  7  8 -1 -1</clus>
<clus scale="   26.969">  2  5  1 -1</clus>
</clustering>
</event>
<event>
 9    1  0.9171696E-005  0.9667430E+02  0.7546771E-02  0.1293396E+00
         21   -1    0    0  501  502  0.00000000000E+00  0.00000000000E+00  0.17224418497E+03  0.17224418497E+03  0.00000000000E+00 0. -1.
         -2   -1    0    0    0  501 -0.00000000000E+00 -0.00000000000E+00 -0.13701985798E+03  0.13701985798E+03  0.00000000000E+00 0.  1.
         23    2    1    2    0    0  0.14666493430E+02  0.77910357721E+00 -0.53235046243E+01  0.92646331500E+02  0.91319713135E+02 0.  0.
        -24    2    1    2    0    0 -0.49219612178E+02  0.67140524807E+02  0.69572765761E+02  0.13507360842E+03  0.80461727938E+02 0.  0.
         11    1    4    4    0    0 -0.61403931765E+02  0.26471334333E+02  0.63449312633E+02  0.92179117218E+02  0.00000000000E+00 0. -1.
        -12    1    4    4    0    0  0.12184319587E+02  0.40669190474E+02  0.61234531280E+01  0.42894491206E+02  0.00000000000E+00 0.  1.
        -13    1    3    3    0    0 -0.36808082581E+02 -0.11050163718E+02  0.52321999020E+01  0.38785525358E+02  0.00000000000E+00 0.  1.
         13    1    3    3    0    0  0.51474576011E+02  0.11829267295E+02 -0.10555704526E+02  0.53860806143E+02  0.00000000000E+00 0. -1.
         -1    1    1    2    0  502  0.34553118748E+02 -0.67919628384E+02 -0.29024934152E+02  0.81544103021E+02  0.00000000000E+00 0.  1.
<scales pt_clust_5="13000.00000" pt_clust_6="13000.00000" pt_clust_7="13000.00000" pt_clust_8="13000.00000" pt_clust_9="76.20367"></scales>
<clustering>
<clus scale="   76.204">  1  9  2 -1</clus>
<clus scale="   80.462">  5  6 -1 -1</clus>
<clus scale="   86.491">  1  5  2 -1</clus>
<clus scale="   91.320">  7  8 -1 -1</clus>
<clus scale="   76.204">  1  5  2 -1</clus>
</clustering>
</event>
<event>
 9    1  0.9171696E-005  0.1184406E+03  0.7546771E-02  0.1247849E+00
          1   -1    0    0  502    0 -0.00000000000E+00  0.00000000000E+00  0.99381101077E+03  0.99381101077E+03  0.00000000000E+00 0. -1.
         21   -1    0    0  501  502  0.00000000000E+00 -0.00000000000E+00 -0.26010055568E+02  0.26010055568E+02  0.00000000000E+00 0. -1.
         23    2    1    2    0    0 -0.29534188547E+02  0.93827856657E+02  0.62696141132E+03  0.64106077750E+03  0.90566959716E+02 0.  0.
        -24    2    1    2    0    0 -0.65648209036E+01 -0.37440811462E+02  0.14486607977E+03  0.17166553760E+03  0.83892577133E+02 0.  0.
         11    1    4    4    0    0 -0.26086464368E+02 -0.56487901819E+02  0.11790160863E+03  0.13331232499E+03  0.00000000000E+00 0. -1.
        -12    1    4    4    0    0  0.19521643465E+02  0.19047090357E+02  0.26964471131E+02  0.38353212617E+02  0.00000000000E+00 0.  1.
        -13    1    3    3    0    0  0.28492091437E+02  0.54462466711E+02  0.35032108863E+03  0.35567235581E+03  0.00000000000E+00 0. -1.
         13    1    3    3    0    0 -0.58026279983E+02  0.39365389945E+02  0.27664032269E+03  0.28538842169E+03  0.00000000000E+00 0.  1.
          2    1    1    2  501    0  0.36099009450E+02 -0.56387045194E+02  0.19597346412E+03  0.20709475123E+03  0.00000000000E+00 0. -1.
<scales pt_clust_5="13000.00000" pt_clust_6="13000.00000" pt_clust_7="13000.00000" pt_clust_8="13000.00000" pt_clust_9="66.95250"></scales>
<clustering>
<clus scale="   66.953">  2  9  1 -1</clus>
<clus scale="   83.893">  5  6 -1 -1</clus>
<clus scale="   90.567">  7  8 -1 -1</clus>
<clus scale="  113.419">  2  5  1 -1</clus>
<clus scale="   66.953">  2  5  1 -1</clus>
</clustering>
</event>
<event>
 9    1  0.9171696E-005  0.9284321E+02  0.7546771E-02  0.1298593E+00
          1   -1    0    0  502    0 -0.00000000000E+00  0.00000000000E+00  0.32615099015E+03  0.32615099015E+03  0.00000000000E+00 0. -1.
         21   -1    0    0  501  502  0.00000000000E+00 -0.00000000000E+00 -0.77127573138E+02  0.77127573138E+02  0.00000000000E+00 0.  1.
         23    2    1    2    0    0  0.93708069974E+01 -0.41493909803E+02  0.14304034890E+03  0.17164096796E+03  0.84796956871E+02 0.  0.
        -24    2    1    2    0    0  0.43774885374E+02  0.23063516693E+02 -0.17585979168E+02  0.95867740597E+02  0.80207173196E+02 0.  0.
         11    1    4    4    0    0 -0.13550812292E+02  0.23447620856E+02  0.13924195123E+02  0.30451578735E+02  0.00000000000E+00 0. -1.
        -12    1    4    4    0    0  0.57325697666E+02 -0.38410416282E+00 -0.31510174291E+02  0.65416161862E+02  0.00000000000E+00 0.  1.
        -13    1    3    3    0    0 -0.82686713878E+01 -0.60695227954E+02  0.64799009258E+02  0.89169463516E+02  0.00000000000E+00 0. -1.
         13    1    3    3    0    0  0.17639478385E+02  0.19201318151E+02  0.78241339642E+02  0.82471504445E+02  0.00000000000E+00 0.  1.
          2    1    1    2  501    0 -0.53145692371E+02  0.18430393110E+02  0.12356904728E+03  0.13576985473E+03  0.00000000000E+00 0. -1.
<scales pt_clust_5="13000.00000" pt_clust_6="13000.00000" pt_clust_7="13000.00000" pt_clust_8="13000.00000" pt_clust_9="56.25075"></scales>
<clustering>
<clus scale="   56.251">  2  9  1 -1</clus>
<clus scale="   80.207">  5  6 -1 -1</clus>
<clus scale="   84.797">  7  8 -1 -1</clus>
<clus scale="   88.671">  2  5  1 -1</clus>
<clus scale="   56.251">  2  5  1 -1</clus>
</clustering>
</event>
<event>
 9    1  0.9171696E-005  0.1025198E+03  0.7546771E-02  0.1279569E+00
         21   -1    0    0  501  502  0.00000000000E+00  0.00000000000E+00  0.50491595781E+03  0.50491595781E+03  0.00000000000E+00 0. -1.
          1   -1    0    0  502    0 -0.00000000000E+00 -0.00000000000E+00 -0.38808798272E+02  0.38808798272E+02  0.00000000000E+00 0. -1.
         23    2    1    2    0    0  0.37106380873E+02  0.16730991298E+02  0.14270467205E+03  0.17403114252E+03  0.90914275960E+02 0.  0.
        -24    2    1    2    0    0 -0.55134916089E+02 -0.27737952857E+02  0.33166163478E+03  0.34701334021E+03  0.81299233065E+02 0.  0.
         13    1    4    4    0    0 -0.44086455700E+02  0.23283796634E+02  0.16456748832E+03  0.17195408973E+03  0.00000000000E+00 0. -1.
        -14    1    4    4    0    0 -0.11048460389E+02 -0.51021749490E+02  0.16709414646E+03  0.17505925048E+03  0.00000000000E+00 0.  1.
        -11    1    3    3    0    0  0.62804374712E+02 -0.93020478674E+00  0.12004831339E+03  0.13548746182E+03  0.00000000000E+00 0. -1.
         11    1    3    3    0    0 -0.25697993838E+02  0.17661196085E+02  0.22656358660E+02  0.38543680704E+02  0.00000000000E+00 0.  1.
          2    1    1    2  501    0  0.18028535216E+02  0.11006961558E+02 -0.82591472964E+01  0.22680273341E+02  0.00000000000E+00 0. -1.
<scales pt_clust_5="13000.00000" pt_clust_6="13000.00000" pt_clust_7="13000.00000" pt_clust_8="13000.00000" pt_clust_9="21.12301"></scales>
<clustering>
<clus scale="   21.123">  1  9  2 -1</clus>
<clus scale="   81.299">  5  6 -1 -1</clus>
<clus scale="   90.914">  7  8 -1 -1</clus>
<clus scale="   94.098">  1  5  2 -1</clus>
<clus scale="   21.123">  1  5  2 -1</clus>
</clustering>
</event>
<event>
 9    1  0.9171696E-005  0.1090566E+03  0.7546771E-02  0.1266974E+00
         -2   -1    0    0    0  501 -0.00000000000E+00  0.00000000000E+00  0.27425694876E+03  0.27425694876E+03  0.00000000000E+00 0.  1.
         21   -1    0    0  501  502  0.00000000000E+00 -0.00000000000E+00 -0.20503491104E+03  0.20503491104E+03  0.00000000000E+00 0.  1.
        -24    2    1    2    0    0  0.19870604523E+02  0.51452876106E+02  0.13916740168E+03  0.16982753766E+03  0.80197178718E+02 0.  0.
         23    2    1    2    0    0 -0.40414562746E+02 -0.54081271163E+02  0.91891601209E+02  0.14630744677E+03  0.91671597762E+02 0.  0.
         11    1    3    3    0    0 -0.27504735836E+02  0.41644501612E+01  0.60134684197E+02  0.66257327006E+02  0.00000000000E+00 0. -1.
        -12    1    3    3    0    0  0.47375340360E+02  0.47288425945E+02  0.79032717486E+02  0.10357021066E+03  0.00000000000E+00 0.  1.
        -11    1    4    4    0    0 -0.31702687889E+02 -0.80182689516E+02  0.66853878052E+02  0.10910437722E+03  0.00000000000E+00 0.  1.
         11    1    4    4    0    0 -0.87118748570E+01  0.26101418353E+02  0.25037723158E+02  0.37203069557E+02  0.00000000000E+00 0. -1.
         -1    1    1    2    0  502  0.20543958223E+02  0.26283950570E+01 -0.16183696518E+03  0.16315687536E+03  0.00000000000E+00 0.  1.
<scales pt_clust_5="13000.00000" pt_clust_6="13000.00000" pt_clust_7="13000.00000" pt_clust_8="13000.00000" pt_clust_9="20.71141"></scales>
<clustering>
<clus scale="   20.711">  2  9  1 -1</clus>
<clus scale="   80.197">  5  6 -1 -1</clus>
<clus scale="   91.672">  7  8 -1 -1</clus>
<clus scale="   99.605">  1  5  2 -1</clus>
<clus scale="   20.711">  2  5  1 -1</clus>
</clustering>
</event>
<event>
 9    1  0.9171696E-005  0.1697581E+03  0.7546771E-02  0.1179587E+00
          1   -1    0    0  502    0 -0.00000000000E+00  0.00000000000E+00  0.45732245268E+03  0.45732245268E+03  0.00000000000E+00 0. -1.
         21   -1    0    0  501  502  0.00000000000E+00 -0.00000000000E+00 -0.22382076752E+03  0.22382076752E+03  0.00000000000E+00 0. -1.
         23    2    1    2    0    0  0.13505014557E+03  0.53832690262E+02  0.39435428928E+03  0.43022275761E+03  0.91868467579E+02 0.  0.
        -24    2    1    2    0    0 -0.11755350510E+03 -0.17936731761E+02 -0.15331250972E+03  0.21028174598E+03  0.81074867541E+02 0.  0.
         13    1    4    4    0    0 -0.11323049293E+03  0.11826719481E+02 -0.12110431380E+03  0.16621453199E+03  0.00000000000E+00 0. -1.
        -14    1    4    4    0    0 -0.43230121646E+01 -0.29763451242E+02 -0.32208195917E+02  0.44067213984E+02  0.00000000000E+00 0.  1.
        -13    1    3    3    0    0  0.36534800065E+02  0.60006374749E+02  0.12557111498E+03  0.14388766988E+03  0.00000000000E+00 0. -1.
         13    1    3    3    0    0  0.98515345502E+02 -0.61736844868E+01  0.26878317430E+03  0.28633508773E+03  0.00000000000E+00 0.  1.
          2    1    1    2  501    0 -0.17496640469E+02 -0.35895958501E+02 -0.75400943919E+01  0.40638716611E+02  0.00000000000E+00 0. -1.
<scales pt_clust_5="13000.00000" pt_clust_6="13000.00000" pt_clust_7="13000.00000" pt_clust_8="13000.00000" pt_clust_9="39.93310"></scales>
<clustering>
<clus scale="   39.933">  2  9  1 -1</clus>
<clus scale="   81.075">  5  6 -1 -1</clus>
<clus scale="   91.868">  7  8 -1 -1</clus>
<clus scale="  164.168">  2  5  1 -1</clus>
<clus scale="   39.933">  2  5  1 -1</clus>
</clustering>
</event>
<event>
 9    1  0.9171696E-005  0.9476695E+02  0.7546771E-02  0.1294315E+00
         21   -1    0    0  501  502  0.00000000000E+00  0.00000000000E+00  0.75951769820E+03  0.75951769820E+03  0.00000000000E+00 0. -1.
          1   -1    0    0  502    0 -0.00000000000E+00 -0.00000000000E+00 -0.36331956624E+02  0.36331956624E+02  0.00000000000E+00 0. -1.
         23    2    1    2    0    0  0.40166846687E+02 -0.30936663639E+02  0.10007175432E+03  0.14464713003E+03  0.91312559294E+02 0.  0.
        -24    2    1    2    0    0  0.46999241956E+02  0.74995291084E+01  0.23018297804E+03  0.24803754084E+03  0.79203829462E+02 0.  0.
         13    1    4    4    0    0  0.63496616183E+02 -0.29992741454E+01  0.11677200837E+03  0.13295306634E+03  0.00000000000E+00 0. -1.
        -14    1    4    4    0    0 -0.16497374226E+02  0.10498803254E+02  0.11341096968E+03  0.11508447449E+03  0.00000000000E+00 0.  1.
        -13    1    3    3    0    0  0.31678083736E+02  0.50408046484E+01  0.10269581275E+03  0.10758875711E+03  0.00000000000E+00 0.  1.
         13    1    3    3    0    0  0.84887629519E+01 -0.35977468287E+02 -0.26240584339E+01  0.37058372920E+02  0.00000000000E+00 0. -1.
          2    1    1    2  501    0 -0.87166088644E+02  0.23437134530E+02  0.39293100922E+03  0.40316498395E+03  0.00000000000E+00 0. -1.
<scales pt_clust_5="13000.00000" pt_clust_6="13000.00000" pt_clust_7="13000.00000" pt_clust_8="13000.00000" pt_clust_9="90.26199"></scales>
<clustering>
<clus scale="   79.204">  5  6 -1 -1</clus>
<clus scale="   90.262">  1  9  2 -1</clus>
<clus scale="   90.262">  1  5  2 -1</clus>
<clus scale="   91.313">  7  8 -1 -1</clus>
<clus scale="   90.262">  1  5  2 -1</clus>
</clustering>
</event>
<event>
 9    1  0.9171696E-005  0.1451988E+03  0.7546771E-02  0.1210546E+00
         21   -1    0    0  501  502  0.00000000000E+00  0.00000000000E+00  0.19534688428E+03  0.19534688428E+03  0.00000000000E+00 0. -1.
          1   -1    0    0  502    0 -0.00000000000E+00 -0.00000000000E+00 -0.49774166331E+03  0.49774166331E+03  0.00000000000E+00 0. -1.
        -24    2    1    2    0    0  0.64790137463E+02 -0.83813948463E+02 -0.32092135582E+03  0.34744814751E+03  0.80666961746E+02 0.  0.
         23    2    1    2    0    0  0.73950170377E+02  0.92915189535E+02  0.10548333233E+03  0.18164898890E+03  0.88134905819E+02 0.  0.
         11    1    3    3    0    0 -0.15295117060E+01 -0.54650141268E+02 -0.19124370698E+03  0.19890483354E+03  0.00000000000E+00 0. -1.
        -12    1    3    3    0    0  0.66319649169E+02 -0.29163807194E+02 -0.12967764884E+03  0.14854331397E+03  0.00000000000E+00 0.  1.
        -11    1    4    4    0    0  0.45606221794E+02 -0.40840301291E+01  0.23198581207E+02  0.51330117264E+02  0.00000000000E+00 0.  1.
         11    1    4    4    0    0  0.28343948584E+02  0.96999219664E+02  0.82284751127E+02  0.13031887164E+03  0.00000000000E+00 0. -1.
          2    1    1    2  501    0 -0.13874030784E+03 -0.91012410724E+01 -0.86956755546E+02  0.16399141119E+03  0.00000000000E+00 0. -1.
<scales pt_clust_5="13000.00000" pt_clust_6="13000.00000" pt_clust_7="13000.00000" pt_clust_8="13000.00000" pt_clust_9="115.39046"></scales>
<clustering>
<clus scale="   80.667">  5  6 -1 -1</clus>
<clus scale="   88.135">  7  8 -1 -1</clus>
<clus scale="  133.153">  2  5  1 -1</clus>
<clus scale="  115.390">  1  9  2 -1</clus>
<clus scale="  115.390">  1  5  2 -1</clus>
</clustering>
</event>
<event>
 9    1  0.9171696E-005  0.2796170E+03  0.7546771E-02  0.1095898E+00
         21   -1    0    0  501  502  0.00000000000E+00  0.00000000000E+00  0.45586177960E+03  0.45586177960E+03  0.00000000000E+00 0. -1.
          1   -1    0    0  502    0 -0.00000000000E+00 -0.00000000000E+00 -0.16342713496E+03  0.16342713496E+03  0.00000000000E+00 0. -1.
        -24    2    1    2    0    0 -0.67635129003E+02  0.13245394044E+03  0.18209120355E+02  0.17013676247E+03  0.80600179071E+02 0.  0.
         23    2    1    2    0    0 -0.50604084067E+02  0.32079401198E+02  0.25591710447E+01  0.11025048568E+03  0.92513560796E+02 0.  0.
         13    1    3    3    0    0 -0.66710782955E+02  0.64613511583E+02 -0.15859816508E+02  0.94216602684E+02  0.00000000000E+00 0. -1.
        -14    1    3    3    0    0 -0.92434604865E+00  0.67840428852E+02  0.34068936863E+02  0.75920159783E+02  0.00000000000E+00 0.  1.
        -13    1    4    4    0    0 -0.28951387957E+02  0.29571435547E+02 -0.43040535399E+02  0.59708796273E+02  0.00000000000E+00 0.  1.
         13    1    4    4    0    0 -0.21652696110E+02  0.25079656506E+01  0.45599706444E+02  0.50541689408E+02  0.00000000000E+00 0. -1.
          2    1    1    2  501    0  0.11823921307E+03 -0.16453334163E+03  0.27166635324E+03  0.33890166641E+03  0.00000000000E+00 0. -1.
<scales pt_clust_5="13000.00000" pt_clust_6="13000.00000" pt_clust_7="13000.00000" pt_clust_8="13000.00000" pt_clust_9="202.61227"></scales>
<clustering>
<clus scale="   80.600">  5  6 -1 -1</clus>
<clus scale="   92.514">  7  8 -1 -1</clus>
<clus scale="  100.388">  5  7 -1 -1</clus>
<clus scale="  202.612">  1  9  2 -1</clus>
<clus scale="  202.612">  1  5  2 -1</clus>
</clustering>
</event>
<event>
 9    1  0.9171696E-005  0.9707683E+02  0.7546771E-02  0.1290929E+00
         21   -1    0    0  501  502  0.00000000000E+00  0.00000000000E+00  0.56609182375E+03  0.56609182375E+03  0.00000000000E+00 0.  1.
         -2   -1    0    0    0  501 -0.00000000000E+00 -0.00000000000E+00 -0.11049982883E+03  0.11049982883E+03  0.00000000000E+00 0.  1.
        -24    2    1    2    0    0 -0.18113651790E+02 -0.43032987252E+02 -0.35418167284E+02  0.99349734240E+02  0.80224564485E+02 0.  0.
         23    2    1    2    0    0  0.57648421522E+02 -0.13958934578E+02  0.29669418394E+02  0.11071607869E+03  0.88654291114E+02 0.  0.
         11    1    3    3    0    0 -0.49029312436E+02 -0.22304597303E+02 -0.11417352647E+02  0.55061097703E+02  0.00000000000E+00 0. -1.
        -12    1    3    3    0    0  0.30915660646E+02 -0.20728389949E+02 -0.24000814637E+02  0.44288636537E+02  0.00000000000E+00 0.  1.
        -13    1    4    4    0    0  0.52112898911E+02 -0.42405337387E+02 -0.27369731141E+01  0.67241786812E+02  0.00000000000E+00 0.  1.
         13    1    4    4    0    0  0.55355226117E+01  0.28446402809E+02  0.32406391508E+02  0.43474291874E+02  0.00000000000E+00 0. -1.
         -1    1    1    2    0  502 -0.39534769732E+02  0.56991921830E+02  0.46134074381E+03  0.46652583966E+03  0.00000000000E+00 0.  1.
<scales pt_clust_5="13000.00000" pt_clust_6="13000.00000" pt_clust_7="13000.00000" pt_clust_8="13000.00000" pt_clust_9="69.36193"></scales>
<clustering>
<clus scale="   69.362">  1  9  2 -1</clus>
<clus scale="   80.225">  5  6 -1 -1</clus>
<clus scale="   88.654">  7  8 -1 -1</clus>
<clus scale="   89.444">  2  5  1 -1</clus>
<clus scale="   69.362">  1  5  2 -1</clus>
</clustering>
</event>
<event>
 9    1  0.9171696E-005  0.1564435E+03  0.7546771E-02  0.1193670E+00
         -2   -1    0    0    0  501 -0.00000000000E+00  0.00000000000E+00  0.32854583328E+03  0.32854583328E+03  0.00000000000E+00 0.  1.
         21   -1    0    0  501  502  0.00000000000E+00 -0.00000000000E+00 -0.12236454538E+03  0.12236454538E+03  0.00000000000E+00 0.  1.
         23    2    1    2    0    0 -0.86811765084E+01  0.15508731915E+03  0.16576842468E+03  0.24422046141E+03  0.89649449305E+02 0.  0.
        -24    2    1    2    0    0 -0.28363267162E+02 -0.89254612876E+02  0.14225531448E+02  0.12673985554E+03  0.84200738672E+02 0.  0.
         13    1    4    4    0    0  0.44403214527E+01 -0.57340123432E+02  0.43763027878E+02  0.72269003168E+02  0.00000000000E+00 0. -1.
        -14    1    4    4    0    0 -0.32803588615E+02 -0.31914489444E+02 -0.29537496430E+02  0.54470852369E+02  0.00000000000E+00 0.  1.
        -13    1    3    3    0    0 -0.28382149563E+02  0.90346768377E+02  0.42932460675E+02  0.10397731074E+03  0.00000000000E+00 0. -1.
         13    1    3    3    0    0  0.19700973055E+02  0.64740550774E+02  0.12283596401E+03  0.14024315066E+03  0.00000000000E+00 0.  1.
         -1    1    1    2    0  502  0.37044443671E+02 -0.65832706275E+02  0.26187331765E+02  0.79950061709E+02  0.00000000000E+00 0.  1.
<scales pt_clust_5="13000.00000" pt_clust_6="13000.00000" pt_clust_7="13000.00000" pt_clust_8="13000.00000" pt_clust_9="75.53963"></scales>
<clustering>
<clus scale="   75.540">  2  9  1 -1</clus>
<clus scale="   84.201">  5  6 -1 -1</clus>
<clus scale="   89.649">  7  8 -1 -1</clus>
<clus scale="  153.386">  2  5  1 -1</clus>
<clus scale="   75.540">  2  5  1 -1</clus>
</clustering>
</event>
<event>
 9    1  0.9171696E-005  0.9457494E+02  0.7546771E-02  0.1297603E+00
         -4   -1    0    0    0  501 -0.00000000000E+00  0.00000000000E+00  0.21834357925E+03  0.21834357925E+03  0.00000000000E+00 0.  1.
         21   -1    0    0  501  502  0.00000000000E+00 -0.00000000000E+00 -0.91500515268E+02  0.91500515268E+02  0.00000000000E+00 0.  1.
        -24    2    1    2    0    0 -0.19963479995E+02  0.20697439576E+02  0.11738715139E+03  0.14606115938E+03  0.82019475919E+02 0.  0.
         23    2    1    2    0    0  0.32246488748E+02  0.37359989469E+02  0.99859013889E+01  0.10443802584E+03  0.91498514546E+02 0.  0.
         13    1    3    3    0    0  0.25025668812E+02 -0.26189674692E+01  0.77772370998E+02  0.81741573148E+02  0.00000000000E+00 0. -1.
        -14    1    3    3    0    0 -0.44989148806E+02  0.23316407045E+02  0.39614780394E+02  0.64319586236E+02  0.00000000000E+00 0.  1.
        -11    1    4    4    0    0  0.25129652243E+02  0.64857301494E+02 -0.92009104685E+01  0.70161426242E+02  0.00000000000E+00 0.  1.
         11    1    4    4    0    0  0.71168365055E+01 -0.27497312025E+02  0.19186811857E+02  0.34276599593E+02  0.00000000000E+00 0. -1.
         -3    1    1    2    0  502 -0.12283008753E+02 -0.58057429045E+02 -0.52998880018E+00  0.59344909297E+02  0.00000000000E+00 0.  1.
<scales pt_clust_5="13000.00000" pt_clust_6="13000.00000" pt_clust_7="13000.00000" pt_clust_8="13000.00000" pt_clust_9="59.34254"></scales>
<clustering>
<clus scale="   59.343">  2  9  1 -1</clus>
<clus scale="   82.019">  5  6 -1 -1</clus>
<clus scale="   85.438">  1  5  2 -1</clus>
<clus scale="   91.499">  7  8 -1 -1</clus>
<clus scale="   59.343">  2  5  1 -1</clus>
</clustering>
</event>
<event>
 9    1  0.9171696E-005  0.1472804E+03  0.7546771E-02  0.1216239E+00
          1   -1    0    0  502    0 -0.00000000000E+00  0.00000000000E+00  0.16217749637E+03  0.16217749637E+03  0.00000000000E+00 0. -1.
         21   -1    0    0  501  502  0.00000000000E+00 -0.00000000000E+00 -0.28310668826E+03  0.28310668826E+03  0.00000000000E+00 0. -1.
        -24    2    1    2    0    0 -0.46421187006E+02  0.64988192757E+02  0.46751783286E+02  0.12234447302E+03  0.80025302476E+02 0.  0.
         23    2    1    2    0    0 -0.70645349822E+02 -0.10054850973E+03 -0.10551671739E+03  0.18570449333E+03  0.90838389105E+02 0.  0.
         13    1    3    3    0    0 -0.31550744416E+02  0.79597136981E+02  0.19119356352E+02  0.87730858175E+02  0.00000000000E+00 0. -1.
        -14    1    3    3    0    0 -0.14870442590E+02 -0.14608944224E+02  0.27632426934E+02  0.34613614842E+02  0.00000000000E+00 0.  1.
        -11    1    4    4    0    0 -0.14625215925E+02 -0.62063599358E+02 -0.44609417942E+01  0.63919381316E+02  0.00000000000E+00 0.  1.
         11    1    4    4    0    0 -0.56020133897E+02 -0.38484910372E+02 -0.10105577559E+03  0.12178511202E+03  0.00000000000E+00 0. -1.
          2    1    1    2  501    0  0.11706653683E+03  0.35560316973E+02 -0.62164257792E+02  0.13723521828E+03  0.00000000000E+00 0. -1.
<scales pt_clust_5="13000.00000" pt_clust_6="13000.00000" pt_clust_7="13000.00000" pt_clust_8="13000.00000" pt_clust_9="115.93066"></scales>
<clustering>
<clus scale="   80.025">  5  6 -1 -1</clus>
<clus scale="   90.838">  7  8 -1 -1</clus>
<clus scale="  113.059">  1  5  2 -1</clus>
<clus scale="  115.931">  2  9  1 -1</clus>
<clus scale="  115.931">  2  5  1 -1</clus>
</clustering>
</event>
<event>
 9    1  0.9171696E-005  0.2635002E+03  0.7546771E-02  0.1122635E+00
          1   -1    0    0  502    0 -0.00000000000E+00  0.00000000000E+00  0.16044815406E+04  0.16044815406E+04  0.00000000000E+00 0. -1.
         21   -1    0    0  501  502  0.00000000000E+00 -0.00000000000E+00 -0.12410511651E+03  0.12410511651E+03  0.00000000000E+00 0. -1.
         23    2    1    2    0    0 -0.84833184333E+02 -0.11396491523E+03  0.36093959645E+03  0.39851400707E+03  0.91385723608E+02 0.  0.
        -24    2    1    2    0    0  0.16751578708E+03 -0.13527545030E+03  0.10258385449E+04  0.10512935060E+04  0.80699003275E+02 0.  0.
         11    1    4    4    0    0  0.14841591615E+03 -0.13323633759E+03  0.99623922587E+03  0.10160077760E+04  0.00000000000E+00 0. -1.
        -12    1    4    4    0    0  0.19099870933E+02 -0.20391127171E+01  0.29599319079E+02  0.35285729981E+02  0.00000000000E+00 0.  1.
        -13    1    3    3    0    0 -0.20443783277E+02 -0.31125280738E+02  0.21002136639E+02  0.42753024678E+02  0.00000000000E+00 0. -1.
         13    1    3    3    0    0 -0.64389401055E+02 -0.82839634493E+02  0.33993745981E+03  0.35576098239E+03  0.00000000000E+00 0.  1.
          2    1    1    2  501    0 -0.82682602750E+02  0.24924036553E+03  0.93598282663E+02  0.27877914399E+03  0.00000000000E+00 0. -1.
<scales pt_clust_5="13000.00000" pt_clust_6="13000.00000" pt_clust_7="13000.00000" pt_clust_8="13000.00000" pt_clust_9="250.83870"></scales>
<clustering>
<clus scale="   80.699">  5  6 -1 -1</clus>
<clus scale="   91.386">  7  8 -1 -1</clus>
<clus scale="  168.926">  1  7  2 -1</clus>
<clus scale="  250.839">  2  9  1 -1</clus>
<clus scale="  250.839">  2  5  1 -1</clus>
</clustering>
</event>
<event>
 9    1  0.9171696E-005  0.1196020E+03  0.7546771E-02  0.1250041E+00
         -2   -1    0    0    0  501 -0.00000000000E+00  0.00000000000E+00  0.20249323033E+03  0.20249323033E+03  0.00000000000E+00 0.  1.
         21   -1    0    0  501  502  0.00000000000E+00 -0.00000000000E+00 -0.90929038667E+02  0.90929038667E+02  0.00000000000E+00 0.  1.
        -24    2    1    2    0    0 -0.70317670828E+02  0.11092682703E+02  0.93855402254E+02  0.14306890080E+03  0.81192680723E+02 0.  0.
         23    2    1    2    0    0  0.51920093528E+02 -0.36828612345E+02  0.15466203414E+02  0.11863841720E+03  0.98913233633E+02 0.  0.
         13    1    3    3    0    0 -0.17176473204E+02 -0.23377212774E+02 -0.97979409929E+00  0.29025597415E+02  0.00000000000E+00 0. -1.
        -14    1    3    3    0    0 -0.53141197624E+02  0.34469895477E+02  0.94835196354E+02  0.11404330338E+03  0.00000000000E+00 0.  1.
        -13    1    4    4    0    0  0.44164728690E+02 -0.70427611177E+02  0.10106899028E+02  0.83741991165E+02  0.00000000000E+00 0.  1.
         13    1    4    4    0    0  0.77553648380E+01  0.33598998832E+02  0.53593043867E+01  0.34896426032E+02  0.00000000000E+00 0. -1.
         -1    1    1    2    0  502  0.18397577300E+02  0.25735929642E+02  0.22425859929E+01  0.31714951001E+02  0.00000000000E+00 0.  1.
<scales pt_clust_5="13000.00000" pt_clust_6="13000.00000" pt_clust_7="13000.00000" pt_clust_8="13000.00000" pt_clust_9="31.63556"></scales>
<clustering>
<clus scale="   31.636">  2  9  1 -1</clus>
<clus scale="   81.193">  5  6 -1 -1</clus>
<clus scale="   98.913">  7  8 -1 -1</clus>
<clus scale="  105.418">  1  5  2 -1</clus>
<clus scale="   31.636">  2  5  1 -1</clus>
</clustering>
</event>
<event>
 9    1  0.9171696E-005  0.1056286E+03  0.7546771E-02  0.1273531E+00
          1   -1    0    0  502    0 -0.00000000000E+00  0.00000000000E+00  0.46557589710E+03  0.46557589710E+03  0.00000000000E+00 0. -1.
         21   -1    0    0  501  502  0.00000000000E+00 -0.00000000000E+00 -0.59671010605E+02  0.59671010605E+02  0.00000000000E+00 0. -1.
        -24    2    1    2    0    0 -0.23980354292E+02 -0.42211416866E+02  0.27645326807E+03  0.29225144416E+03  0.81410294682E+02 0.  0.
         23    2    1    2    0    0 -0.27652173390E+02  0.79346335572E+02  0.11078669675E+03  0.16671349463E+03  0.91973982476E+02 0.  0.
         13    1    3    3    0    0 -0.23696602891E+02  0.20838395365E+02  0.10088355111E+03  0.10570363567E+03  0.00000000000E+00 0. -1.
        -14    1    3    3    0    0 -0.28375140147E+00 -0.63049812231E+02  0.17556971696E+03  0.18654780849E+03  0.00000000000E+00 0.  1.
        -13    1    4    4    0    0  0.34138422588E+02  0.27010042875E+02  0.36079627234E+02  0.56539488981E+02  0.00000000000E+00 0.  1.
         13    1    4    4    0    0 -0.61790595978E+02  0.52336292697E+02  0.74707069520E+02  0.11017400565E+03  0.00000000000E+00 0. -1.
          2    1    1    2  501    0  0.51632527682E+02 -0.37134918706E+02  0.18664921668E+02  0.66281968914E+02  0.00000000000E+00 0. -1.
<scales pt_clust_5="13000.00000" pt_clust_6="13000.00000" pt_clust_7="13000.00000" pt_clust_8="13000.00000" pt_clust_9="63.59969"></scales>
<clustering>
<clus scale="   63.600">  2  9  1 -1</clus>
<clus scale="   81.410">  5  6 -1 -1</clus>
<clus scale="   91.974">  7  8 -1 -1</clus>
<clus scale="   96.570">  1  5  2 -1</clus>
<clus scale="   63.600">  2  5  1 -1</clus>
</clustering>
</event>
<event>
 9    1  0.9171696E-005  0.1109966E+03  0.7546771E-02  0.1263219E+00
         21   -1    0    0  501  502  0.00000000000E+00  0.00000000000E+00  0.14461678504E+03  0.14461678504E+03  0.00000000000E+00 0. -1.
         -4   -1    0    0    0  501 -0.00000000000E+00 -0.00000000000E+00 -0.15638844574E+03  0.15638844574E+03  0.00000000000E+00 0.  1.
        -24    2    1    2    0    0  0.56952795453E+02  0.22871212082E+01 -0.70963868910E+02  0.12013000812E+03  0.78399593928E+02 0.  0.
         23    2    1    2    0    0 -0.86191374258E+02 -0.19183898121E+01  0.11980465878E+02  0.12534163762E+03  0.90190694318E+02 0.  0.
         13    1    3    3    0    0  0.12686968953E+02 -0.31437936306E+02 -0.50527716004E+02  0.60846964633E+02  0.00000000000E+00 0. -1.
        -14    1    3    3    0    0  0.44265826501E+02  0.33725057514E+02 -0.20436152905E+02  0.59283043492E+02  0.00000000000E+00 0.  1.
        -11    1    4    4    0    0 -0.57183082990E+02 -0.31676390460E+02 -0.24730003245E+02  0.69891857561E+02  0.00000000000E+00 0.  1.
         11    1    4    4    0    0 -0.29008291268E+02  0.29758000648E+02  0.36710469123E+02  0.55449780055E+02  0.00000000000E+00 0. -1.
         -3    1    1    2    0  502  0.29238578804E+02 -0.36873139613E+00  0.47211742333E+02  0.55533585040E+02  0.00000000000E+00 0.  1.
<scales pt_clust_5="13000.00000" pt_clust_6="13000.00000" pt_clust_7="13000.00000" pt_clust_8="13000.00000" pt_clust_9="29.24090"></scales>
<clustering>
<clus scale="   29.241">  1  9  2 -1</clus>
<clus scale="   78.400">  5  6 -1 -1</clus>
<clus scale="   90.191">  7  8 -1 -1</clus>
<clus scale="  101.648">  2  5  1 -1</clus>
<clus scale="   29.241">  1  5  2 -1</clus>
</clustering>
</event>
<event>
 9    1  0.9171696E-005  0.1339693E+03  0.7546771E-02  0.1224157E+00
          1   -1    0    0  502    0 -0.00000000000E+00  0.00000000000E+00  0.49436150373E+02  0.49436150373E+02  0.00000000000E+00 0. -1.
         21   -1    0    0  501  502  0.00000000000E+00 -0.00000000000E+00 -0.71791843668E+03  0.71791843668E+03  0.00000000000E+00 0.  1.
        -24    2    1    2    0    0  0.40435936750E+02 -0.88842791088E+02 -0.19870938234E+03  0.23552558363E+03  0.80366506734E+02 0.  0.
         23    2    1    2    0    0 -0.70162277107E+01  0.10522823300E+03 -0.47435740620E+03  0.49432730587E+03  0.90677053550E+02 0.  0.
         11    1    3    3    0    0  0.64595126385E+02 -0.55416923707E+02 -0.12969322356E+03  0.15512542675E+03  0.00000000000E+00 0. -1.
        -12    1    3    3    0    0 -0.24159189635E+02 -0.33425867381E+02 -0.69016158774E+02  0.80400156878E+02  0.00000000000E+00 0.  1.
        -11    1    4    4    0    0  0.20067914837E+02  0.10975447209E+03 -0.38588759261E+03  0.40169391267E+03  0.00000000000E+00 0.  1.
         11    1    4    4    0    0 -0.27084142548E+02 -0.45262390969E+01 -0.88469813594E+02  0.92633393198E+02  0.00000000000E+00 0. -1.
          2    1    1    2  501    0 -0.33419709040E+02 -0.16385441909E+02  0.45845022307E+01  0.37501697556E+02  0.00000000000E+00 0. -1.
<scales pt_clust_5="13000.00000" pt_clust_6="13000.00000" pt_clust_7="13000.00000" pt_clust_8="13000.00000" pt_clust_9="37.22044"></scales>
<clustering>
<clus scale="   37.220">  2  9  1 -1</clus>
<clus scale="   80.367">  5  6 -1 -1</clus>
<clus scale="   90.677">  7  8 -1 -1</clus>
<clus scale="  127.217">  1  5  2 -1</clus>
<clus scale="   37.220">  2  5  1 -1</clus>
</clustering>
</event>
<event>
 9    1  0.9171696E-005  0.1619856E+03  0.7546771E-02  0.1188151E+00
          1   -1    0    0  502    0 -0.00000000000E+00  0.00000000000E+00  0.49930813807E+03  0.49930813807E+03  0.00000000000E+00 0. -1.
         21   -1    0    0  501  502  0.00000000000E+00 -0.00000000000E+00 -0.12095196182E+03  0.12095196182E+03  0.00000000000E+00 0. -1.
        -24    2    1    2    0    0  0.10613306458E+02  0.15454175256E+03  0.37339319256E+03  0.41139916394E+03  0.76360986648E+02 0.  0.
         23    2    1    2    0    0 -0.42154513821E+02 -0.74413226131E+02  0.60162575013E+01  0.12274161237E+03  0.87834940621E+02 0.  0.
         11    1    3    3    0    0  0.40536521112E+02  0.10335217578E+03  0.27439308343E+03  0.29600075341E+03  0.00000000000E+00 0. -1.
        -12    1    3    3    0    0 -0.29923214654E+02  0.51189576778E+02  0.99000109130E+02  0.11539841053E+03  0.00000000000E+00 0.  1.
        -13    1    4    4    0    0 -0.53508576830E+02 -0.22216958042E+02 -0.22543799436E+02  0.62168994780E+02  0.00000000000E+00 0. -1.
         13    1    4    4    0    0  0.11354063010E+02 -0.52196268089E+02  0.28560056937E+02  0.60572617588E+02  0.00000000000E+00 0.  1.
          2    1    1    2  501    0  0.31541207363E+02 -0.80128526425E+02 -0.10532738192E+01  0.86119323585E+02  0.00000000000E+00 0. -1.
<scales pt_clust_5="13000.00000" pt_clust_6="13000.00000" pt_clust_7="13000.00000" pt_clust_8="13000.00000" pt_clust_9="86.11288"></scales>
<clustering>
<clus scale="   76.361">  5  6 -1 -1</clus>
<clus scale="   86.113">  2  9  1 -1</clus>
<clus scale="   87.835">  7  8 -1 -1</clus>
<clus scale="  156.062">  1  5  2 -1</clus>
<clus scale="   86.113">  2  5  1 -1</clus>
</clustering>
</event>
<event>
 9    1  0.9171696E-005  0.9607294E+02  0.7546771E-02  0.1299052E+00
         21   -1    0    0  501  502  0.00000000000E+00  0.00000000000E+00  0.18191007535E+03  0.18191007535E+03  0.00000000000E+00 0. -1.
          3   -1    0    0  502    0 -0.00000000000E+00 -0.00000000000E+00 -0.10274845401E+03  0.10274845401E+03  0.00000000000E+00 0. -1.
        -24    2    1    2    0    0 -0.34555027619E+02 -0.60032520345E+01 -0.21388562730E+02  0.84937868059E+02  0.74343001325E+02 0.  0.
         23    2    1    2    0    0 -0.10965341057E+01 -0.22468783989E+02  0.11762573036E+03  0.15100449386E+03  0.91980954999E+02 0.  0.
         11    1    3    3    0    0  0.13708683887E+02 -0.20308333889E+02 -0.24307924880E+02  0.34514223897E+02  0.00000000000E+00 0. -1.
        -12    1    3    3    0    0 -0.48263711506E+02  0.14305081855E+02  0.29193621504E+01  0.50423644162E+02  0.00000000000E+00 0.  1.
        -13    1    4    4    0    0 -0.17135339477E+02  0.20919528658E+02  0.27694297513E+01  0.27183014539E+02  0.00000000000E+00 0.  1.
         13    1    4    4    0    0  0.16038805372E+02 -0.43388312646E+02  0.11485630061E+03  0.12382147932E+03  0.00000000000E+00 0. -1.
          4    1    1    2  501    0  0.35651561724E+02  0.28472036023E+02 -0.17075546292E+02  0.48716167438E+02  0.00000000000E+00 0. -1.
<scales pt_clust_5="13000.00000" pt_clust_6="13000.00000" pt_clust_7="13000.00000" pt_clust_8="13000.00000" pt_clust_9="45.62557"></scales>
<clustering>
<clus scale="   45.626">  1  9  2 -1</clus>
<clus scale="   74.343">  5  6 -1 -1</clus>
<clus scale="   79.350">  2  5  1 -1</clus>
<clus scale="   91.981">  7  8 -1 -1</clus>
<clus scale="   45.626">  1  5  2 -1</clus>
</clustering>
</event>
<event>
 9    1  0.9171696E-005  0.1087554E+03  0.7546771E-02  0.1267249E+00
         21   -1    0    0  501  502  0.00000000000E+00  0.00000000000E+00  0.37595204605E+03  0.37595204605E+03  0.00000000000E+00 0. -1.
          1   -1    0    0  502    0 -0.00000000000E+00 -0.00000000000E+00 -0.75561737911E+02  0.75561737911E+02  0.00000000000E+00 0. -1.
        -24    2    1    2    0    0  0.71964299168E+02  0.41533393165E+02  0.39066791988E+02  0.12339210764E+03  0.82434913052E+02 0.  0.
         23    2    1    2    0    0  0.63252410078E+01  0.74232255396E+01  0.18892347935E+03  0.21078554401E+03  0.92969627095E+02 0.  0.
         13    1    3    3    0    0  0.71691717293E+02  0.26205503704E+02 -0.52374258152E+01  0.76510531184E+02  0.00000000000E+00 0. -1.
        -14    1    3    3    0    0  0.27258187471E+00  0.15327889461E+02  0.44304217803E+02  0.46881576460E+02  0.00000000000E+00 0.  1.
        -11    1    4    4    0    0 -0.40332541305E+02  0.14965968999E+02  0.11761686664E+03  0.12523746019E+03  0.00000000000E+00 0. -1.
         11    1    4    4    0    0  0.46657782313E+02 -0.75427434596E+01  0.71306612717E+02  0.85548083827E+02  0.00000000000E+00 0.  1.
          2    1    1    2  501    0 -0.78289540176E+02 -0.48956618704E+02  0.72400036796E+02  0.11733613230E+03  0.00000000000E+00 0. -1.
<scales pt_clust_5="13000.00000" pt_clust_6="13000.00000" pt_clust_7="13000.00000" pt_clust_8="13000.00000" pt_clust_9="92.33640"></scales>
<clustering>
<clus scale="   82.435">  5  6 -1 -1</clus>
<clus scale="   92.336">  1  9  2 -1</clus>
<clus scale="   92.970">  7  8 -1 -1</clus>
<clus scale="   99.899">  2  5  1 -1</clus>
<clus scale="   92.336">  1  5  2 -1</clus>
</clustering>
</event>
<event>
 9    1  0.9171696E-005  0.2518259E+03  0.7546771E-02  0.1126262E+00
         -4   -1    0    0    0  501 -0.00000000000E+00  0.00000000000E+00  0.48696644648E+03  0.48696644648E+03  0.00000000000E+00 0.  1.
         21   -1    0    0  501  502  0.00000000000E+00 -0.00000000000E+00 -0.37611692684E+03  0.37611692684E+03  0.00000000000E+00 0. -1.
        -24    2    1    2    0    0  0.13479242532E+03 -0.73600142697E+02 -0.85970438204E+02  0.19666216285E+03  0.87744578875E+02 0.  0.
         23    2    1    2    0    0  0.89928594417E+02  0.21837346671E+03 -0.95321687286E+02  0.27043435100E+03  0.90963679986E+02 0.  0.
         13    1    3    3    0    0  0.14157504126E+03 -0.73083893303E+02 -0.60707878511E+02  0.17049983660E+03  0.00000000000E+00 0. -1.
        -14    1    3    3    0    0 -0.67826159374E+01 -0.51624939399E+00 -0.25262559693E+02  0.26162326247E+02  0.00000000000E+00 0.  1.
        -13    1    4    4    0    0  0.97370339190E+02  0.12050551148E+03 -0.58368340589E+02  0.16555791867E+03  0.00000000000E+00 0.  1.
         13    1    4    4    0    0 -0.74417447731E+01  0.97867955228E+02 -0.36953346697E+02  0.10487643233E+03  0.00000000000E+00 0. -1.
         -3    1    1    2    0  502 -0.22472101974E+03 -0.14477332401E+03  0.29214164513E+03  0.39598685947E+03  0.00000000000E+00 0.  1.
<scales pt_clust_5="13000.00000" pt_clust_6="13000.00000" pt_clust_7="13000.00000" pt_clust_8="13000.00000" pt_clust_9="234.82320"></scales>
<clustering>
<clus scale="   87.745">  5  6 -1 -1</clus>
<clus scale="   90.964">  7  8 -1 -1</clus>
<clus scale="  176.876">  1  5  2 -1</clus>
<clus scale="  234.823">  2  9  1 -1</clus>
<clus scale="  234.823">  2  5  1 -1</clus>
</clustering>
</event>
<event>
 9    1  0.9171696E-005  0.1389611E+03  0.7546771E-02  0.1216882E+00
          1   -1    0    0  502    0 -0.00000000000E+00  0.00000000000E+00  0.52165517404E+03  0.52165517404E+03  0.00000000000E+00 0. -1.
         21   -1    0    0  501  502  0.00000000000E+00 -0.00000000000E+00 -0.61116879979E+02  0.61116879979E+02  0.00000000000E+00 0. -1.
        -24    2    1    2    0    0  0.24734681982E+02  0.12355357126E+03  0.26156622255E+03  0.30140802123E+03  0.80948236680E+02 0.  0.
         23    2    1    2    0    0 -0.62537937067E+02 -0.63441049240E+02  0.13939730582E+03  0.18867231738E+03  0.90718653931E+02 0.  0.
         13    1    3    3    0    0 -0.38205640027E+01  0.12086458245E+03  0.20576817198E+03  0.23867003289E+03  0.00000000000E+00 0. -1.
        -14    1    3    3    0    0  0.28555245985E+02  0.26889888116E+01  0.55798050571E+02  0.62737988345E+02  0.00000000000E+00 0.  1.
        -11    1    4    4    0    0 -0.37959352318E+02 -0.13513537155E+02  0.12479554039E+03  0.13113906747E+03  0.00000000000E+00 0.  1.
         11    1    4    4    0    0 -0.24578584748E+02 -0.49927512086E+02  0.14601765436E+02  0.57533249910E+02  0.00000000000E+00 0. -1.
          2    1    1    2  501    0  0.37803255085E+02 -0.60112522021E+02  0.59574765687E+02  0.92691715409E+02  0.00000000000E+00 0. -1.
<scales pt_clust_5="13000.00000" pt_clust_6="13000.00000" pt_clust_7="13000.00000" pt_clust_8="13000.00000" pt_clust_9="71.01128"></scales>
<clustering>
<clus scale="   71.011">  2  9  1 -1</clus>
<clus scale="   80.948">  5  6 -1 -1</clus>
<clus scale="   90.719">  7  8 -1 -1</clus>
<clus scale="  132.789">  1  5  2 -1</clus>
<clus scale="   71.011">  2  5  1 -1</clus>
</clustering>
</event>
<event>
 9    1  0.9171696E-005  0.1078569E+03  0.7546771E-02  0.1269006E+00
          1   -1    0    0  502    0 -0.00000000000E+00  0.00000000000E+00  0.36887824180E+02  0.36887824180E+02  0.00000000000E+00 0. -1.
         21   -1    0    0  501  502  0.00000000000E+00 -0.00000000000E+00 -0.49960425975E+03  0.49960425975E+03  0.00000000000E+00 0. -1.
         23    2    1    2    0    0  0.12206999712E+02 -0.26875268666E+02 -0.20597822734E+03  0.22724465467E+03  0.91333520852E+02 0.  0.
        -24    2    1    2    0    0 -0.12916044736E+02  0.82703314666E+02 -0.18198953275E+03  0.21594878001E+03  0.80666121078E+02 0.  0.
         13    1    4    4    0    0 -0.41714605915E+02  0.18720746120E+02 -0.80229573952E+02  0.92343701564E+02  0.00000000000E+00 0. -1.
        -14    1    4    4    0    0  0.28798561179E+02  0.63982568546E+02 -0.10175995880E+03  0.12360507845E+03  0.00000000000E+00 0.  1.
        -13    1    3    3    0    0 -0.34860323912E+02 -0.30096930908E+02 -0.12883204351E+03  0.13681652996E+03  0.00000000000E+00 0.  1.
         13    1    3    3    0    0  0.47067323624E+02  0.32216622421E+01 -0.77146183826E+02  0.90428124716E+02  0.00000000000E+00 0. -1.
          2    1    1    2  501    0  0.70904502426E+00 -0.55828046001E+02 -0.74748675480E+02  0.93298649246E+02  0.00000000000E+00 0. -1.
<scales pt_clust_5="13000.00000" pt_clust_6="13000.00000" pt_clust_7="13000.00000" pt_clust_8="13000.00000" pt_clust_9="55.83258"></scales>
<clustering>
<clus scale="   55.833">  2  9  1 -1</clus>
<clus scale="   80.666">  5  6 -1 -1</clus>
<clus scale="   91.334">  7  8 -1 -1</clus>
<clus scale="   98.986">  2  5  1 -1</clus>
<clus scale="   55.833">  2  5  1 -1</clus>
</clustering>
</event>
<event>
 9    1  0.9171696E-005  0.1091046E+03  0.7546771E-02  0.1266122E+00
         21   -1    0    0  501  502  0.00000000000E+00  0.00000000000E+00  0.11119015903E+03  0.11119015903E+03  0.00000000000E+00 0. -1.
          1   -1    0    0  502    0 -0.00000000000E+00 -0.00000000000E+00 -0.20053613107E+03  0.20053613107E+03  0.00000000000E+00 0. -1.
         23    2    1    2    0    0 -0.20246580312E+02 -0.46628112726E+02 -0.68108818015E+02  0.12446789057E+03  0.90935910290E+02 0.  0.
        -24    2    1    2    0    0  0.37464146041E+02  0.77819281897E+02  0.32374877338E+02  0.12288772678E+03  0.81202572846E+02 0.  0.
         13    1    4    4    0    0  0.10897155407E+02  0.73589017610E+02  0.50976225466E+02  0.90181301119E+02  0.00000000000E+00 0. -1.
        -14    1    4    4    0    0  0.26566990634E+02  0.42302642869E+01 -0.18601348128E+02  0.32706425660E+02  0.00000000000E+00 0.  1.
        -11    1    3    3    0    0 -0.10580521408E+02  0.23955140180E+02 -0.41147559497E+00  0.26190942832E+02  0.00000000000E+00 0. -1.
         11    1    3    3    0    0 -0.96660589040E+01 -0.70583252905E+02 -0.67697342420E+02  0.98276947735E+02  0.00000000000E+00 0.  1.
          2    1    1    2  501    0 -0.17217565730E+02 -0.31191169171E+02 -0.53612031365E+02  0.64370672756E+02  0.00000000000E+00 0. -1.
<scales pt_clust_5="13000.00000" pt_clust_6="13000.00000" pt_clust_7="13000.00000" pt_clust_8="13000.00000" pt_clust_9="35.62773"></scales>
<clustering>
<clus scale="   35.628">  1  9  2 -1</clus>
<clus scale="   81.203">  5  6 -1 -1</clus>
<clus scale="   90.936">  7  8 -1 -1</clus>
<clus scale="  101.135">  1  5  2 -1</clus>
<clus scale="   35.628">  1  5  2 -1</clus>
</clustering>
</event>
<event>
 9    1  0.9171696E-005  0.1375569E+03  0.7546771E-02  0.1218942E+00
         21   -1    0    0  501  502  0.00000000000E+00  0.00000000000E+00  0.44485822616E+02  0.44485822616E+02  0.00000000000E+00 0.  1.
         -4   -1    0    0    0  501 -0.00000000000E+00 -0.00000000000E+00 -0.63722163997E+03  0.63722163997E+03  0.00000000000E+00 0.  1.
         23    2    1    2    0    0  0.94919780471E+02 -0.79096528726E+02 -0.26700577192E+03  0.30752592608E+03  0.89521435394E+02 0.  0.
        -24    2    1    2    0    0 -0.75447091902E+02  0.39431213237E+02 -0.13397908769E+03  0.17740513383E+03  0.79215537091E+02 0.  0.
         11    1    4    4    0    0 -0.90623652837E+02  0.22602114865E+02 -0.10329744804E+03  0.13926185702E+03  0.00000000000E+00 0. -1.
        -12    1    4    4    0    0  0.15176560935E+02  0.16829098372E+02 -0.30681639650E+02  0.38143276806E+02  0.00000000000E+00 0.  1.
        -11    1    3    3    0    0  0.19302915909E+02 -0.54581956149E+02 -0.50274179643E+02  0.76676499910E+02  0.00000000000E+00 0.  1.
         11    1    3    3    0    0  0.75616864561E+02 -0.24514572577E+02 -0.21673159227E+03  0.23084942617E+03  0.00000000000E+00 0. -1.
         -3    1    1    2    0  502 -0.19472688569E+02  0.39665315488E+02 -0.19175095775E+03  0.19677640268E+03  0.00000000000E+00 0.  1.
<scales pt_clust_5="13000.00000" pt_clust_6="13000.00000" pt_clust_7="13000.00000" pt_clust_8="13000.00000" pt_clust_9="44.18738"></scales>
<clustering>
<clus scale="   44.187">  1  9  2 -1</clus>
<clus scale="   79.216">  5  6 -1 -1</clus>
<clus scale="   89.521">  7  8 -1 -1</clus>
<clus scale="  131.084">  1  5  2 -1</clus>
<clus scale="   44.187">  1  5  2 -1</clus>
</clustering>
</event>
<event>
 9    1  0.9171696E-005  0.1128669E+03  0.7546771E-02  0.1258048E+00
         -4   -1    0    0    0  501 -0.00000000000E+00  0.00000000000E+00  0.30252805346E+03  0.30252805346E+03  0.00000000000E+00 0.  1.
         21   -1    0    0  501  502  0.00000000000E+00 -0.00000000000E+00 -0.86508149264E+02  0.86508149264E+02  0.00000000000E+00 0.  1.
        -24    2    1    2    0    0  0.32115175400E+02 -0.42349178138E+02  0.12009859993E+03  0.15396286380E+03  0.80349563422E+02 0.  0.
         23    2    1    2    0    0 -0.82874862037E+02  0.67226726684E+02  0.11010834654E+03  0.17679203508E+03  0.87999432680E+02 0.  0.
         13    1    3    3    0    0  0.51738341118E+02 -0.79898377199E+01  0.90492681219E+02  0.10454481720E+03  0.00000000000E+00 0. -1.
        -14    1    3    3    0    0 -0.19623165718E+02 -0.34359340418E+02  0.29605918715E+02  0.49418046599E+02  0.00000000000E+00 0.  1.
        -13    1    4    4    0    0 -0.55089134857E+01  0.58162291106E+02  0.32589856664E+02  0.66897675534E+02  0.00000000000E+00 0.  1.
         13    1    4    4    0    0 -0.77365948552E+02  0.90644355783E+01  0.77518489876E+02  0.10989435955E+03  0.00000000000E+00 0. -1.
         -3    1    1    2    0  502  0.50759686637E+02 -0.24877548547E+02 -0.14187042280E+02  0.58281303845E+02  0.00000000000E+00 0.  1.
<scales pt_clust_5="13000.00000" pt_clust_6="13000.00000" pt_clust_7="13000.00000" pt_clust_8="13000.00000" pt_clust_9="56.52821"></scales>
<clustering>
<clus scale="   56.528">  2  9  1 -1</clus>
<clus scale="   80.350">  5  6 -1 -1</clus>
<clus scale="   87.999">  7  8 -1 -1</clus>
<clus scale="  107.010">  1  5  2 -1</clus>
<clus scale="   56.528">  2  5  1 -1</clus>
</clustering>
</event>
<event>
 9    1  0.9171696E-005  0.1436772E+03  0.7546771E-02  0.1227389E+00
         21   -1    0    0  501  502  0.00000000000E+00  0.00000000000E+00  0.62331359198E+03  0.62331359198E+03  0.00000000000E+00 0.  1.
         -4   -1    0    0    0  501 -0.00000000000E+00 -0.00000000000E+00 -0.40927158217E+03  0.40927158217E+03  0.00000000000E+00 0.  1.
        -24    2    1    2    0    0  0.42594169064E+02  0.36650410418E+02 -0.25103176606E+03  0.26891592820E+03  0.78366530145E+02 0.  0.
         23    2    1    2    0    0  0.87990815612E+00  0.66181635172E+02 -0.12155216942E+03  0.16651396910E+03  0.92580715831E+02 0.  0.
         13    1    3    3    0    0  0.62426912629E+00 -0.23097886615E+02 -0.69950064584E+02  0.73667588622E+02  0.00000000000E+00 0. -1.
        -14    1    3    3    0    0  0.41969899937E+02  0.59748297032E+02 -0.18108170147E+03  0.19524833957E+03  0.00000000000E+00 0.  1.
        -13    1    4    4    0    0  0.20964900744E+00  0.89844015526E+02 -0.10086136403E+03  0.13507407536E+03  0.00000000000E+00 0.  1.
         13    1    4    4    0    0  0.67025914867E+00 -0.23662380354E+02 -0.20690805385E+02  0.31439893747E+02  0.00000000000E+00 0. -1.
         -3    1    1    2    0  502 -0.43474077220E+02 -0.10283204559E+03  0.58662594529E+03  0.59715527685E+03  0.00000000000E+00 0.  1.
<scales pt_clust_5="13000.00000" pt_clust_6="13000.00000" pt_clust_7="13000.00000" pt_clust_8="13000.00000" pt_clust_9="109.87245"></scales>
<clustering>
<clus scale="   78.367">  5  6 -1 -1</clus>
<clus scale="   92.581">  7  8 -1 -1</clus>
<clus scale="   96.430">  2  5  1 -1</clus>
<clus scale="  109.872">  1  9  2 -1</clus>
<clus scale="  109.872">  1  5  2 -1</clus>
</clustering>
</event>
<event>
 9    1  0.9171696E-005  0.1606210E+03  0.7546771E-02  0.1189546E+00
         21   -1    0    0  501  502  0.00000000000E+00  0.00000000000E+00  0.86702388320E+02  0.86702388320E+02  0.00000000000E+00 0.  1.
          1   -1    0    0  502    0 -0.00000000000E+00 -0.00000000000E+00 -0.42331062617E+03  0.42331062617E+03  0.00000000000E+00 0. -1.
         23    2    1    2    0    0 -0.14240934375E+03 -0.56198666654E+00 -0.19262671627E+03  0.25636267679E+03  0.91301879587E+02 0.  0.
        -24    2    1    2    0    0  0.11496586342E+03 -0.16274715045E+02 -0.43789131861E+02  0.14841187470E+03  0.81403810593E+02 0.  0.
         13    1    4    4    0    0  0.56270056062E+02  0.30630434522E+02 -0.34326423685E+02  0.72683189881E+02  0.00000000000E+00 0. -1.
        -14    1    4    4    0    0  0.58695807362E+02 -0.46905149568E+02 -0.94627081756E+01  0.75728684815E+02  0.00000000000E+00 0.  1.
        -11    1    3    3    0    0 -0.10602990952E+03  0.28691587202E+02 -0.84486751650E+02  0.13857691039E+03  0.00000000000E+00 0. -1.
         11    1    3    3    0    0 -0.36379434226E+02 -0.29253573869E+02 -0.10813996462E+03  0.11778576640E+03  0.00000000000E+00 0.  1.
          2    1    1    2  501    0  0.27443480325E+02  0.16836701712E+02 -0.10019238972E+03  0.10523846300E+03  0.00000000000E+00 0. -1.
<scales pt_clust_5="13000.00000" pt_clust_6="13000.00000" pt_clust_7="13000.00000" pt_clust_8="13000.00000" pt_clust_9="32.19659"></scales>
<clustering>
<clus scale="   32.197">  1  9  2 -1</clus>
<clus scale="   81.404">  5  6 -1 -1</clus>
<clus scale="   91.302">  7  8 -1 -1</clus>
<clus scale="  155.208">  1  5  2 -1</clus>
<clus scale="   32.197">  1  5  2 -1</clus>
</clustering>
</event>
<event>
 9    1  0.9171696E-005  0.9182768E+02  0.7546771E-02  0.1304035E+00
         21   -1    0    0  501  502  0.00000000000E+00  0.00000000000E+00  0.15441149684E+03  0.15441149684E+03  0.00000000000E+00 0.  1.
          1   -1    0    0  502    0 -0.00000000000E+00 -0.00000000000E+00 -0.41150830808E+03  0.41150830808E+03  0.00000000000E+00 0. -1.
        -24    2    1    2    0    0 -0.14918615075E+02  0.66612562563E+01 -0.33137391272E+03  0.34157153737E+03  0.81212731136E+02 0.  0.
         23    2    1    2    0    0  0.37191766610E+02  0.19342763731E+02  0.12707109832E+03  0.16142364251E+03  0.90294841039E+02 0.  0.
         11    1    3    3    0    0 -0.12957646623E+02  0.40140123347E+02 -0.25039845612E+03  0.25392620372E+03  0.00000000000E+00 0. -1.
        -12    1    3    3    0    0 -0.19609684525E+01 -0.33478867091E+02 -0.80975456606E+02  0.87645333655E+02  0.00000000000E+00 0.  1.
        -13    1    4    4    0    0 -0.29480570799E+02 -0.67637995068E+00  0.45061042170E+02  0.53852196482E+02  0.00000000000E+00 0. -1.
         13    1    4    4    0    0  0.66672337409E+02  0.20019143681E+02  0.82010056154E+02  0.10757144602E+03  0.00000000000E+00 0.  1.
          2    1    1    2  501    0 -0.22273151535E+02 -0.26004019987E+02 -0.52793996833E+02  0.62924625040E+02  0.00000000000E+00 0. -1.
<scales pt_clust_5="13000.00000" pt_clust_6="13000.00000" pt_clust_7="13000.00000" pt_clust_8="13000.00000" pt_clust_9="34.23892"></scales>
<clustering>
<clus scale="   34.239">  1  9  2 -1</clus>
<clus scale="   81.213">  5  6 -1 -1</clus>
<clus scale="   82.914">  2  5  1 -1</clus>
<clus scale="   90.295">  7  8 -1 -1</clus>
<clus scale="   34.239">  1  5  2 -1</clus>
</clustering>
</event>
<event>
 9    1  0.9171696E-005  0.2365030E+03  0.7546771E-02  0.1123044E+00
          1   -1    0    0  502    0 -0.00000000000E+00  0.00000000000E+00  0.15019914647E+04  0.15019914647E+04  0.00000000000E+00 0. -1.
         21   -1    0    0  501  502  0.00000000000E+00 -0.00000000000E+00 -0.66374133108E+02  0.66374133108E+02  0.00000000000E+00 0. -1.
        -24    2    1    2    0    0  0.44771583899E+02 -0.22409503275E+03  0.86607356333E+03  0.89935282500E+03  0.80802279064E+02 0.  0.
         23    2    1    2    0    0 -0.14696529276E+03  0.17536091521E+03  0.39678075923E+03  0.46245618096E+03  0.63878795842E+02 0.  0.
         11    1    3    3    0    0  0.67528336378E+02 -0.18316949183E+03  0.67893530818E+03  0.70644482562E+03  0.00000000000E+00 0. -1.
        -12    1    3    3    0    0 -0.22756752479E+02 -0.40925540918E+02  0.18713825515E+03  0.19290799938E+03  0.00000000000E+00 0.  1.
        -13    1    4    4    0    0 -0.13703125741E+03  0.14942240688E+03  0.30241190760E+03  0.36408458226E+03  0.00000000000E+00 0. -1.
         13    1    4    4    0    0 -0.99340353478E+01  0.25938508335E+02  0.94368851631E+02  0.98371598701E+02  0.00000000000E+00 0.  1.
          2    1    1    2  501    0  0.10219370886E+03  0.48734117537E+02  0.17276300899E+03  0.20655659180E+03  0.00000000000E+00 0. -1.
<scales pt_clust_5="13000.00000" pt_clust_6="13000.00000" pt_clust_7="13000.00000" pt_clust_8="13000.00000" pt_clust_9="113.21912"></scales>
<clustering>
<clus scale="   63.879">  7  8 -1 -1</clus>
<clus scale="   80.802">  5  6 -1 -1</clus>
<clus scale="  113.219">  2  9  1 -1</clus>
<clus scale="  231.269">  2  7  1 -1</clus>
<clus scale="  113.219">  2  5  1 -1</clus>
</clustering>
</event>
<event>
 9    1  0.9171696E-005  0.9713621E+02  0.7546771E-02  0.1293399E+00
         21   -1    0    0  501  502  0.00000000000E+00  0.00000000000E+00  0.16653160980E+03  0.16653160980E+03  0.00000000000E+00 0. -1.
          3   -1    0    0  502    0 -0.00000000000E+00 -0.00000000000E+00 -0.21410182668E+03  0.21410182668E+03  0.00000000000E+00 0. -1.
        -24    2    1    2    0    0 -0.94883769657E+01 -0.26663037236E+02 -0.25300275212E+02  0.89228470629E+02  0.80750660634E+02 0.  0.
         23    2    1    2    0    0  0.39538315971E+02  0.60566644654E+01  0.11269077019E+03  0.15161220790E+03  0.93204561495E+02 0.  0.
         13    1    3    3    0    0  0.17956134536E+02  0.22357807774E+02 -0.14049751694E+02  0.31932583024E+02  0.00000000000E+00 0. -1.
        -14    1    3    3    0    0 -0.27444511501E+02 -0.49020845010E+02 -0.11250523519E+02  0.57295887605E+02  0.00000000000E+00 0.  1.
        -11    1    4    4    0    0  0.32337599301E+01  0.46727522631E+02  0.54860194218E+02  0.72135701869E+02  0.00000000000E+00 0.  1.
         11    1    4    4    0    0  0.36304556041E+02 -0.40670858166E+02  0.57830575971E+02  0.79476506028E+02  0.00000000000E+00 0. -1.
          4    1    1    2  501    0 -0.30049939005E+02  0.20606372771E+02 -0.13496071186E+03  0.13979275796E+03  0.00000000000E+00 0. -1.
<scales pt_clust_5="13000.00000" pt_clust_6="13000.00000" pt_clust_7="13000.00000" pt_clust_8="13000.00000" pt_clust_9="36.43656"></scales>
<clustering>
<clus scale="   36.437">  1  9  2 -1</clus>
<clus scale="   80.751">  5  6 -1 -1</clus>
<clus scale="   85.259">  2  5  1 -1</clus>
<clus scale="   93.205">  7  8 -1 -1</clus>
<clus scale="   36.437">  1  5  2 -1</clus>
</clustering>
</event>
<event>
 9    1  0.9171696E-005  0.9940499E+02  0.7546771E-02  0.1286251E+00
         -2   -1    0    0    0  501 -0.00000000000E+00  0.00000000000E+00  0.74760085829E+02  0.74760085829E+02  0.00000000000E+00 0.  1.
         21   -1    0    0  501  502  0.00000000000E+00 -0.00000000000E+00 -0.35548905882E+03  0.35548905882E+03  0.00000000000E+00 0.  1.
        -24    2    1    2    0    0 -0.63751679673E+02  0.85351967930E+01 -0.41826341897E+02  0.11208415005E+03  0.81708552614E+02 0.  0.
         23    2    1    2    0    0 -0.25457313372E+02  0.51943280299E+01 -0.19718921997E+03  0.21873284205E+03  0.91024237834E+02 0.  0.
         13    1    3    3    0    0 -0.34843266912E+02 -0.36505958144E+02 -0.20666458547E+02  0.54532932600E+02  0.00000000000E+00 0. -1.
        -14    1    3    3    0    0 -0.28908412761E+02  0.45041154937E+02 -0.21159883350E+02  0.57551217449E+02  0.00000000000E+00 0.  1.
        -13    1    4    4    0    0 -0.89150170606E+01  0.45758577063E+02 -0.69066057801E+02  0.83327337916E+02  0.00000000000E+00 0. -1.
         13    1    4    4    0    0 -0.16542296312E+02 -0.40564249033E+02 -0.12812316217E+03  0.13540550414E+03  0.00000000000E+00 0.  1.
         -1    1    1    2    0  502  0.89208993045E+02 -0.13729524823E+02 -0.41713411123E+02  0.99432152544E+02  0.00000000000E+00 0.  1.
<scales pt_clust_5="13000.00000" pt_clust_6="13000.00000" pt_clust_7="13000.00000" pt_clust_8="13000.00000" pt_clust_9="90.25936"></scales>
<clustering>
<clus scale="   81.709">  5  6 -1 -1</clus>
<clus scale="   90.259">  2  9  1 -1</clus>
<clus scale="   90.952">  1  5  2 -1</clus>
<clus scale="   91.024">  7  8 -1 -1</clus>
<clus scale="   90.259">  2  5  1 -1</clus>
</clustering>
</event>
<event>
 9    1  0.9171696E-005  0.4680293E+03  0.7546771E-02  0.1062014E+00
          1   -1    0    0  502    0 -0.00000000000E+00  0.00000000000E+00  0.23828759858E+04  0.23828759858E+04  0.00000000000E+00 0. -1.
         21   -1    0    0  501  502  0.00000000000E+00 -0.00000000000E+00 -0.13401793747E+03  0.13401793747E+03  0.00000000000E+00 0. -1.
        -24    2    1    2    0    0  0.12999594413E+03  0.20285276724E+02  0.35207308010E+03  0.38224252966E+03  0.69594969723E+02 0.  0.
         23    2    1    2    0    0  0.29848724013E+03 -0.30904692268E+03  0.64952481822E+03  0.78459990970E+03  0.95445774572E+02 0.  0.
         13    1    3    3    0    0  0.13325235124E+03  0.26344382755E+02  0.29515477996E+03  0.32491007948E+03  0.00000000000E+00 0. -1.
        -14    1    3    3    0    0 -0.32564071142E+01 -0.60591060316E+01  0.56918300139E+02  0.57332450182E+02  0.00000000000E+00 0.  1.
        -11    1    4    4    0    0  0.11973720660E+03 -0.79541362336E+02  0.15938016931E+03  0.21462960032E+03  0.00000000000E+00 0.  1.
         11    1    4    4    0    0  0.17875003353E+03 -0.22950556035E+03  0.49014464891E+03  0.56997030938E+03  0.00000000000E+00 0. -1.
          2    1    1    2  501    0 -0.42848318426E+03  0.28876164596E+03  0.12472601500E+04  0.13500514839E+04  0.00000000000E+00 0. -1.
<scales pt_clust_5="13000.00000" pt_clust_6="13000.00000" pt_clust_7="13000.00000" pt_clust_8="13000.00000" pt_clust_9="458.19400"></scales>
<clustering>
<clus scale="   69.595">  5  6 -1 -1</clus>
<clus scale="   95.446">  7  8 -1 -1</clus>
<clus scale="  148.842">  1  5  2 -1</clus>
<clus scale="  458.194">  2  9  1 -1</clus>
<clus scale="  458.194">  2  5  1 -1</clus>
</clustering>
</event>
<event>
 9    1  0.9171696E-005  0.1117730E+03  0.7546771E-02  0.1259181E+00
          1   -1    0    0  502    0 -0.00000000000E+00  0.00000000000E+00  0.62711604502E+03  0.62711604502E+03  0.00000000000E+00 0. -1.
         21   -1    0    0  501  502  0.00000000000E+00 -0.00000000000E+00 -0.37826230893E+02  0.37826230893E+02  0.00000000000E+00 0.  1.
         23    2    1    2    0    0 -0.17071118838E+02 -0.72383515347E+02  0.46685034074E+03  0.48058982592E+03  0.86524815754E+02 0.  0.
        -24    2    1    2    0    0  0.40233263614E+02  0.50455010022E+02  0.10650105404E+03  0.14869606896E+03  0.81262678250E+02 0.  0.
         13    1    4    4    0    0  0.42192057973E+02  0.60656858846E+02  0.11402334603E+03  0.13587033422E+03  0.00000000000E+00 0. -1.
        -14    1    4    4    0    0 -0.19587943591E+01 -0.10201848824E+02 -0.75222919958E+01  0.12825734740E+02  0.00000000000E+00 0.  1.
        -13    1    3    3    0    0  0.30206709174E+02 -0.36272920471E+02  0.12528563810E+03  0.13388301294E+03  0.00000000000E+00 0.  1.
         13    1    3    3    0    0 -0.47277828011E+02 -0.36110594876E+02  0.34156470263E+03  0.34670681298E+03  0.00000000000E+00 0. -1.
          2    1    1    2  501    0 -0.23162144776E+02  0.21928505325E+02  0.15938419349E+02  0.35656381024E+02  0.00000000000E+00 0. -1.
<scales pt_clust_5="13000.00000" pt_clust_6="13000.00000" pt_clust_7="13000.00000" pt_clust_8="13000.00000" pt_clust_9="31.89584"></scales>
<clustering>
<clus scale="   31.896">  2  9  1 -1</clus>
<clus scale="   81.263">  5  6 -1 -1</clus>
<clus scale="   86.525">  7  8 -1 -1</clus>
<clus scale="  107.751">  2  5  1 -1</clus>
<clus scale="   31.896">  2  5  1 -1</clus>
</clustering>
</event>
<event>
 9    1  0.9171696E-005  0.1128382E+03  0.7546771E-02  0.1260374E+00
         -2   -1    0    0    0  501 -0.00000000000E+00  0.00000000000E+00  0.20139266225E+03  0.20139266225E+03  0.00000000000E+00 0.  1.
         21   -1    0    0  501  502  0.00000000000E+00 -0.00000000000E+00 -0.84721964939E+02  0.84721964939E+02  0.00000000000E+00 0.  1.
         23    2    1    2    0    0 -0.74217274036E+01  0.52399364456E+02  0.61662516299E+02  0.12316459311E+03  0.92555257256E+02 0.  0.
        -24    2    1    2    0    0  0.38417477085E+02 -0.73653268520E+02  0.33627267340E+02  0.11971106548E+03  0.79367748994E+02 0.  0.
         13    1    4    4    0    0  0.32240387245E+02 -0.38689216547E+02  0.57872520287E+02  0.76717186152E+02  0.00000000000E+00 0. -1.
        -14    1    4    4    0    0  0.61770898398E+01 -0.34964051974E+02 -0.24245252946E+02  0.42993879329E+02  0.00000000000E+00 0.  1.
        -13    1    3    3    0    0  0.14824967584E+02  0.62217027608E+02  0.82646639688E+01  0.64490641637E+02  0.00000000000E+00 0.  1.
         13    1    3    3    0    0 -0.22246694988E+02 -0.98176631515E+01  0.53397852331E+02  0.58673951470E+02  0.00000000000E+00 0. -1.
         -1    1    1    2    0  502 -0.30995749681E+02  0.21253904064E+02  0.21380913670E+02  0.43238968600E+02  0.00000000000E+00 0.  1.
<scales pt_clust_5="13000.00000" pt_clust_6="13000.00000" pt_clust_7="13000.00000" pt_clust_8="13000.00000" pt_clust_9="37.58279"></scales>
<clustering>
<clus scale="   37.583">  2  9  1 -1</clus>
<clus scale="   79.368">  5  6 -1 -1</clus>
<clus scale="   92.555">  7  8 -1 -1</clus>
<clus scale="  102.300">  2  5  1 -1</clus>
<clus scale="   37.583">  2  5  1 -1</clus>
</clustering>
</event>
<event>
 9    1  0.9171696E-005  0.1385637E+03  0.7546771E-02  0.1240093E+00
          1   -1    0    0  502    0 -0.00000000000E+00  0.00000000000E+00  0.84265346651E+03  0.84265346651E+03  0.00000000000E+00 0. -1.
         21   -1    0    0  501  502  0.00000000000E+00 -0.00000000000E+00 -0.35106343393E+02  0.35106343393E+02  0.00000000000E+00 0. -1.
        -24    2    1    2    0    0 -0.11326778508E+01 -0.24555004632E+02  0.14110917303E+03  0.16362462554E+03  0.79101126165E+02 0.  0.
         23    2    1    2    0    0  0.86935843934E+02 -0.40297781261E+02  0.25466263601E+03  0.28854503359E+03  0.96038669778E+02 0.  0.
         11    1    3    3    0    0  0.38002135347E+02 -0.69653946165E+01  0.81343585907E+02  0.90052529011E+02  0.00000000000E+00 0. -1.
        -12    1    3    3    0    0 -0.39134813198E+02 -0.17589610016E+02  0.59765587119E+02  0.73572096532E+02  0.00000000000E+00 0.  1.
        -13    1    4    4    0    0  0.81956911896E+02 -0.10927792299E+00  0.10332232686E+03  0.13188044047E+03  0.00000000000E+00 0.  1.
         13    1    4    4    0    0  0.49789320379E+01 -0.40188503338E+02  0.15134030915E+03  0.15666459312E+03  0.00000000000E+00 0. -1.
          2    1    1    2  501    0 -0.85803166083E+02  0.64852785894E+02  0.41177531408E+03  0.42559015077E+03  0.00000000000E+00 0. -1.
<scales pt_clust_5="13000.00000" pt_clust_6="13000.00000" pt_clust_7="13000.00000" pt_clust_8="13000.00000" pt_clust_9="99.88240"></scales>
<clustering>
<clus scale="   79.101">  5  6 -1 -1</clus>
<clus scale="   82.833">  1  5  2 -1</clus>
<clus scale="   96.039">  7  8 -1 -1</clus>
<clus scale="   99.882">  2  9  1 -1</clus>
<clus scale="   99.882">  2  5  1 -1</clus>
</clustering>
</event>
<event>
 9    1  0.9171696E-005  0.1777487E+03  0.7546771E-02  0.1171378E+00
         21   -1    0    0  501  502  0.00000000000E+00  0.00000000000E+00  0.11931727346E+04  0.11931727346E+04  0.00000000000E+00 0. -1.
          1   -1    0    0  502    0 -0.00000000000E+00 -0.00000000000E+00 -0.28814804637E+03  0.28814804637E+03  0.00000000000E+00 0. -1.
        -24    2    1    2    0    0  0.30706080448E+02 -0.14232882108E+03 -0.17395966997E+03  0.24057847636E+03  0.80097938965E+02 0.  0.
         23    2    1    2    0    0 -0.18227874501E+03  0.15303742323E+03  0.14259096380E+03  0.29210036169E+03  0.91347931307E+02 0.  0.
         13    1    3    3    0    0  0.17070749503E+02 -0.13374019455E+03 -0.17863033236E+03  0.22380045970E+03  0.00000000000E+00 0. -1.
        -14    1    3    3    0    0  0.13635330945E+02 -0.85886265321E+01  0.46706623908E+01  0.16778016655E+02  0.00000000000E+00 0.  1.
        -11    1    4    4    0    0 -0.65823276665E+02  0.10376940999E+03  0.10075771459E+03  0.15891164605E+03  0.00000000000E+00 0.  1.
         11    1    4    4    0    0 -0.11645546834E+03  0.49268013236E+02  0.41833249210E+02  0.13318871564E+03  0.00000000000E+00 0. -1.
          2    1    1    2  501    0  0.15157266456E+03 -0.10708602153E+02  0.93639339437E+03  0.94864194290E+03  0.00000000000E+00 0. -1.
<scales pt_clust_5="13000.00000" pt_clust_6="13000.00000" pt_clust_7="13000.00000" pt_clust_8="13000.00000" pt_clust_9="151.95047"></scales>
<clustering>
<clus scale="   80.098">  5  6 -1 -1</clus>
<clus scale="   91.348">  7  8 -1 -1</clus>
<clus scale="  151.950">  1  9  2 -1</clus>
<clus scale="  172.238">  2  5  1 -1</clus>
<clus scale="  151.950">  1  5  2 -1</clus>
</clustering>
</event>
<event>
 9    1  0.9171696E-005  0.4179754E+03  0.7546771E-02  0.1051623E+00
         21   -1    0    0  501  502  0.00000000000E+00  0.00000000000E+00  0.42088473797E+03  0.42088473797E+03  0.00000000000E+00 0. -1.
          1   -1    0    0  502    0 -0.00000000000E+00 -0.00000000000E+00 -0.80770132920E+03  0.80770132920E+03  0.00000000000E+00 0. -1.
         23    2    1    2    0    0 -0.68083898171E+02 -0.25560405253E+03 -0.81035656301E+02  0.29149169118E+03  0.91824722032E+02 0.  0.
        -24    2    1    2    0    0 -0.34995265982E+03  0.27768099818E+03 -0.23927017988E+03  0.51322454233E+03  0.81090141233E+02 0.  0.
         11    1    4    4    0    0 -0.23717837611E+03  0.22792001383E+03 -0.19414313179E+03  0.38195899049E+03  0.00000000000E+00 0. -1.
        -12    1    4    4    0    0 -0.11277428371E+03  0.49760984357E+02 -0.45127048097E+02  0.13126555185E+03  0.00000000000E+00 0.  1.
        -11    1    3    3    0    0 -0.32523613372E+02 -0.15498914946E+02 -0.20017819575E+02  0.41215469084E+02  0.00000000000E+00 0.  1.
         11    1    3    3    0    0 -0.35560284799E+02 -0.24010513758E+03 -0.61017836726E+02  0.25027622210E+03  0.00000000000E+00 0. -1.
          2    1    1    2  501    0  0.41803655799E+03 -0.22076945654E+02 -0.66510755050E+02  0.42386983366E+03  0.00000000000E+00 0. -1.
<scales pt_clust_5="13000.00000" pt_clust_6="13000.00000" pt_clust_7="13000.00000" pt_clust_8="13000.00000" pt_clust_9="410.03397"></scales>
<clustering>
<clus scale="   81.090">  5  6 -1 -1</clus>
<clus scale="   91.825">  7  8 -1 -1</clus>
<clus scale="  280.001">  2  7  1 -1</clus>
<clus scale="  410.034">  1  9  2 -1</clus>
<clus scale="  410.034">  1  5  2 -1</clus>
</clustering>
</event>
<event>
 9    1  0.9171696E-005  0.1341637E+03  0.7546771E-02  0.1223990E+00
         21   -1    0    0  501  502  0.00000000000E+00  0.00000000000E+00  0.64017440861E+02  0.64017440861E+02  0.00000000000E+00 0.  1.
          1   -1    0    0  502    0 -0.00000000000E+00 -0.00000000000E+00 -0.60695130247E+03  0.60695130247E+03  0.00000000000E+00 0. -1.
         23    2    1    2    0    0  0.10199213954E+03  0.13181068944E+02 -0.41995940713E+03  0.44179629339E+03  0.90785043383E+02 0.  0.
        -24    2    1    2    0    0 -0.77279787657E+02 -0.22168587321E+02 -0.10760606220E+02  0.11391871438E+03  0.79987942810E+02 0.  0.
         13    1    4    4    0    0 -0.88887257925E+02 -0.65057442735E+01 -0.21471632850E+02  0.91674971215E+02  0.00000000000E+00 0. -1.
        -14    1    4    4    0    0  0.11607470268E+02 -0.15662843048E+02  0.10711026630E+02  0.22243743162E+02  0.00000000000E+00 0.  1.
        -13    1    3    3    0    0  0.52334799861E+00  0.31724011960E+02 -0.68088564997E+02  0.75118170314E+02  0.00000000000E+00 0.  1.
         13    1    3    3    0    0  0.10146879154E+03 -0.18542943016E+02 -0.35187084214E+03  0.36667812307E+03  0.00000000000E+00 0. -1.
          2    1    1    2  501    0 -0.24712351886E+02  0.89875183778E+01 -0.11221384825E+03  0.11525373557E+03  0.00000000000E+00 0. -1.
<scales pt_clust_5="13000.00000" pt_clust_6="13000.00000" pt_clust_7="13000.00000" pt_clust_8="13000.00000" pt_clust_9="26.29594"></scales>
<clustering>
<clus scale="   26.296">  1  9  2 -1</clus>
<clus scale="   79.988">  5  6 -1 -1</clus>
<clus scale="   90.785">  7  8 -1 -1</clus>
<clus scale="  127.106">  1  5  2 -1</clus>
<clus scale="   26.296">  1  5  2 -1</clus>
</clustering>
</event>
<event>
 9    1  0.9171696E-005  0.1964140E+03  0.7546771E-02  0.1184684E+00
          1   -1    0    0  502    0 -0.00000000000E+00  0.00000000000E+00  0.59602456108E+03  0.59602456108E+03  0.00000000000E+00 0. -1.
         21   -1    0    0  501  502  0.00000000000E+00 -0.00000000000E+00 -0.31839652506E+03  0.31839652506E+03  0.00000000000E+00 0. -1.
        -24    2    1    2    0    0  0.43200643539E+00 -0.48332957593E+02 -0.46659694966E+02  0.10544177848E+03  0.81268567694E+02 0.  0.
         23    2    1    2    0    0 -0.11329821203E+03 -0.89402401947E+02  0.51861783076E+03  0.54540010265E+03  0.87564509179E+02 0.  0.
         11    1    3    3    0    0  0.34842569052E+02 -0.23158434717E+02 -0.46842044429E+02  0.62805213501E+02  0.00000000000E+00 0. -1.
        -12    1    3    3    0    0 -0.34410562617E+02 -0.25174522876E+02  0.18234946307E+00  0.42636564976E+02  0.00000000000E+00 0.  1.
        -13    1    4    4    0    0 -0.21256611844E+02 -0.68767826882E+02  0.27188745475E+03  0.28125370328E+03  0.00000000000E+00 0. -1.
         13    1    4    4    0    0 -0.92041600183E+02 -0.20634575065E+02  0.24673037602E+03  0.26414639937E+03  0.00000000000E+00 0.  1.
          2    1    1    2  501    0  0.11286620559E+03  0.13773535954E+03 -0.19433009978E+03  0.26357920501E+03  0.00000000000E+00 0. -1.
<scales pt_clust_5="13000.00000" pt_clust_6="13000.00000" pt_clust_7="13000.00000" pt_clust_8="13000.00000" pt_clust_9="175.81499"></scales>
<clustering>
<clus scale="   81.269">  5  6 -1 -1</clus>
<clus scale="   87.565">  7  8 -1 -1</clus>
<clus scale="   94.556">  1  5  2 -1</clus>
<clus scale="  175.815">  2  9  1 -1</clus>
<clus scale="  175.815">  2  5  1 -1</clus>
</clustering>
</event>
<event>
 9    1  0.9171696E-005  0.1851147E+03  0.7546771E-02  0.1196596E+00
          1   -1    0    0  502    0 -0.00000000000E+00  0.00000000000E+00  0.48194628789E+03  0.48194628789E+03  0.00000000000E+00 0. -1.
         21   -1    0    0  501  502  0.00000000000E+00 -0.00000000000E+00 -0.28012661401E+03  0.28012661401E+03  0.00000000000E+00 0. -1.
        -24    2    1    2    0    0 -0.19166259620E+02  0.30177438814E+02  0.36032858634E+03  0.37064436642E+03  0.79136166833E+02 0.  0.
         23    2    1    2    0    0 -0.10075221831E+03 -0.13153218920E+03 -0.13581173364E+03  0.23278305428E+03  0.91057108867E+02 0.  0.
         13    1    3    3    0    0  0.20620809314E+02  0.63670172301E+01  0.29332538793E+02  0.36416404507E+02  0.00000000000E+00 0. -1.
        -14    1    3    3    0    0 -0.39787068934E+02  0.23810421583E+02  0.33099604755E+03  0.33422796191E+03  0.00000000000E+00 0.  1.
        -11    1    4    4    0    0 -0.86034263261E+02 -0.38831590677E+02 -0.57365113630E+02  0.11045606887E+03  0.00000000000E+00 0.  1.
         11    1    4    4    0    0 -0.14717955051E+02 -0.92700598527E+02 -0.78446620011E+02  0.12232698541E+03  0.00000000000E+00 0. -1.
          2    1    1    2  501    0  0.11991847793E+03  0.10135475039E+03 -0.22697178828E+02  0.15864548119E+03  0.00000000000E+00 0. -1.
<scales pt_clust_5="13000.00000" pt_clust_6="13000.00000" pt_clust_7="13000.00000" pt_clust_8="13000.00000" pt_clust_9="161.17101"></scales>
<clustering>
<clus scale="   79.136">  5  6 -1 -1</clus>
<clus scale="   86.836">  1  5  2 -1</clus>
<clus scale="   91.057">  7  8 -1 -1</clus>
<clus scale="  161.171">  2  9  1 -1</clus>
<clus scale="  161.171">  2  5  1 -1</clus>
</clustering>
</event>
<event>
 9    1  0.9171696E-005  0.3212110E+03  0.7546771E-02  0.1096711E+00
         21   -1    0    0  501  502  0.00000000000E+00  0.00000000000E+00  0.18290113601E+04  0.18290113601E+04  0.00000000000E+00 0. -1.
          1   -1    0    0  502    0 -0.00000000000E+00 -0.00000000000E+00 -0.11445849676E+03  0.11445849676E+03  0.00000000000E+00 0. -1.
         23    2    1    2    0    0  0.65903884511E+02 -0.14093140566E+03  0.77741517515E+03  0.79811224838E+03  0.91672369737E+02 0.  0.
        -24    2    1    2    0    0  0.50705765359E+02 -0.23806455501E+03  0.35298684037E+03  0.43933497311E+03  0.95758561649E+02 0.  0.
         13    1    4    4    0    0  0.16155196080E+02 -0.21401510151E+03  0.32237792428E+03  0.38728668980E+03  0.00000000000E+00 0. -1.
        -14    1    4    4    0    0  0.34550569279E+02 -0.24049453499E+02  0.30608916098E+02  0.52048283313E+02  0.00000000000E+00 0.  1.
        -11    1    3    3    0    0  0.19813764553E+02  0.94349125710E+01  0.67215224763E+02  0.70707066697E+02  0.00000000000E+00 0.  1.
         11    1    3    3    0    0  0.46090119958E+02 -0.15036631823E+03  0.71019995038E+03  0.72740518168E+03  0.00000000000E+00 0. -1.
          2    1    1    2  501    0 -0.11660964987E+03  0.37899596066E+03  0.58415084778E+03  0.70602263534E+03  0.00000000000E+00 0. -1.
<scales pt_clust_5="13000.00000" pt_clust_6="13000.00000" pt_clust_7="13000.00000" pt_clust_8="13000.00000" pt_clust_9="306.60545"></scales>
<clustering>
<clus scale="   91.672">  7  8 -1 -1</clus>
<clus scale="   95.759">  5  6 -1 -1</clus>
<clus scale="  180.579">  2  7  1 -1</clus>
<clus scale="  306.605">  1  9  2 -1</clus>
<clus scale="  306.605">  1  5  2 -1</clus>
</clustering>
</event>
<event>
 9    1  0.9171696E-005  0.1776622E+03  0.7546771E-02  0.1171548E+00
         21   -1    0    0  501  502  0.00000000000E+00  0.00000000000E+00  0.13383607727E+03  0.13383607727E+03  0.00000000000E+00 0. -1.
          1   -1    0    0  502    0 -0.00000000000E+00 -0.00000000000E+00 -0.36916624025E+03  0.36916624025E+03  0.00000000000E+00 0. -1.
        -24    2    1    2    0    0 -0.11710075499E+03  0.54540536579E+02 -0.29077749138E+02  0.15362333207E+03  0.77893232769E+02 0.  0.
         23    2    1    2    0    0  0.16226667003E+03 -0.75190610703E+02 -0.83468909351E+02  0.21693211151E+03  0.90046554823E+02 0.  0.
         11    1    3    3    0    0 -0.93578362127E+02  0.66205984230E+02 -0.44738335404E+02  0.12305145615E+03  0.00000000000E+00 0. -1.
        -12    1    3    3    0    0 -0.23522392861E+02 -0.11665447651E+02  0.15660586265E+02  0.30571875915E+02  0.00000000000E+00 0.  1.
        -13    1    4    4    0    0  0.58710089157E+02  0.16357360427E+02 -0.36015743385E+02  0.70792454263E+02  0.00000000000E+00 0.  1.
         13    1    4    4    0    0  0.10355658087E+03 -0.91547971130E+02 -0.47453165966E+02  0.14613965725E+03  0.00000000000E+00 0. -1.
          2    1    1    2  501    0 -0.45165915043E+02  0.20650074124E+02 -0.12278350449E+03  0.13244687394E+03  0.00000000000E+00 0. -1.
<scales pt_clust_5="13000.00000" pt_clust_6="13000.00000" pt_clust_7="13000.00000" pt_clust_8="13000.00000" pt_clust_9="49.66274"></scales>
<clustering>
<clus scale="   49.663">  1  9  2 -1</clus>
<clus scale="   77.893">  5  6 -1 -1</clus>
<clus scale="   90.047">  7  8 -1 -1</clus>
<clus scale="  171.822">  2  5  1 -1</clus>
<clus scale="   49.663">  1  5  2 -1</clus>
</clustering>
</event>
<event>
 9    1  0.9171696E-005  0.9752504E+02  0.7546771E-02  0.1292613E+00
         -4   -1    0    0    0  501 -0.00000000000E+00  0.00000000000E+00  0.18620220337E+02  0.18620220337E+02  0.00000000000E+00 0.  1.
         21   -1    0    0  501  502  0.00000000000E+00 -0.00000000000E+00 -0.66625660971E+03  0.66625660971E+03  0.00000000000E+00 0.  1.
         23    2    1    2    0    0  0.15334168281E+01 -0.16025452631E+02 -0.20385139024E+03  0.22519104894E+03  0.94321008899E+02 0.  0.
        -24    2    1    2    0    0 -0.21528304935E+02  0.31964585361E+02 -0.28949977081E+03  0.30329593751E+03  0.81811403731E+02 0.  0.
         11    1    4    4    0    0  0.22117553583E+02  0.39232355592E+02 -0.12189463473E+03  0.12994870480E+03  0.00000000000E+00 0. -1.
        -12    1    4    4    0    0 -0.43645858517E+02 -0.72677702311E+01 -0.16760513607E+03  0.17334723271E+03  0.00000000000E+00 0.  1.
        -11    1    3    3    0    0 -0.42132739641E+02 -0.55474547638E+01 -0.53771400167E+02  0.68536891379E+02  0.00000000000E+00 0.  1.
         11    1    3    3    0    0  0.43666156469E+02 -0.10477997867E+02 -0.15007999008E+03  0.15665415756E+03  0.00000000000E+00 0. -1.
         -3    1    1    2    0  502  0.19994888107E+02 -0.15939132730E+02 -0.15428522833E+03  0.15638984360E+03  0.00000000000E+00 0.  1.
<scales pt_clust_5="13000.00000" pt_clust_6="13000.00000" pt_clust_7="13000.00000" pt_clust_8="13000.00000" pt_clust_9="25.57052"></scales>
<clustering>
<clus scale="   25.571">  2  9  1 -1</clus>
<clus scale="   81.811">  5  6 -1 -1</clus>
<clus scale="   85.486">  2  5  1 -1</clus>
<clus scale="   94.321">  7  8 -1 -1</clus>
<clus scale="   25.571">  2  5  1 -1</clus>
</clustering>
</event>
<event>
 9    1  0.9304610E-005  0.1439134E+03  0.7546771E-02  0.1211349E+00
         21   -1    0    0  501  502  0.00000000000E+00  0.00000000000E+00  0.29641734098E+03  0.29641734098E+03  0.00000000000E+00 0.  1.
          1   -1    0    0  502    0 -0.00000000000E+00 -0.00000000000E+00 -0.28690116916E+03  0.28690116916E+03  0.00000000000E+00 0. -1.
        -24    2    1    2    0    0  0.46981030131E+02  0.88003222352E+02 -0.93688055841E+02  0.15852445636E+03  0.80004794366E+02 0.  0.
         23    2    1    2    0    0 -0.11703383857E+03 -0.13126107221E+03  0.21000237357E+03  0.28994420576E+03  0.95080266617E+02 0.  0.
         11    1    3    3    0    0  0.22269177884E+01  0.81428568449E+02 -0.70309574804E+02  0.10760579553E+03  0.00000000000E+00 0. -1.
        -12    1    3    3    0    0  0.44754112342E+02  0.65746539028E+01 -0.23378481037E+02  0.50918660834E+02  0.00000000000E+00 0.  1.
        -11    1    4    4    0    0 -0.24505656286E+02  0.88096843995E+01  0.78958990137E+01  0.27211816376E+02  0.00000000000E+00 0. -1.
         11    1    4    4    0    0 -0.92528182288E+02 -0.14007075661E+03  0.20210647455E+03  0.26273238938E+03  0.00000000000E+00 0.  1.
          2    1    1    2  501    0  0.70052808443E+02  0.43257849855E+02 -0.10679814590E+03  0.13484984802E+03  0.00000000000E+00 0. -1.
<scales pt_clust_5="13000.00000" pt_clust_6="13000.00000" pt_clust_7="13000.00000" pt_clust_8="13000.00000" pt_clust_9="82.33252"></scales>
<clustering>
<clus scale="   80.005">  5  6 -1 -1</clus>
<clus scale="   82.333">  1  9  2 -1</clus>
<clus scale="   95.080">  7  8 -1 -1</clus>
<clus scale="  134.431">  2  5  1 -1</clus>
<clus scale="   82.333">  1  5  2 -1</clus>
</clustering>
</event>
<event>
 9    1  0.9171696E-005  0.1309037E+03  0.7546771E-02  0.1249481E+00
         21   -1    0    0  501  502  0.00000000000E+00  0.00000000000E+00  0.11006619070E+03  0.11006619070E+03  0.00000000000E+00 0. -1.
          1   -1    0    0  502    0 -0.00000000000E+00 -0.00000000000E+00 -0.22905020872E+03  0.22905020872E+03  0.00000000000E+00 0. -1.
        -24    2    1    2    0    0  0.88835459887E+01 -0.14327414286E+02 -0.28440110110E+01  0.81358917825E+02  0.79542397007E+02 0.  0.
         23    2    1    2    0    0 -0.17136429147E+02  0.10050943024E+03 -0.39234699644E+02  0.14195646150E+03  0.90644760110E+02 0.  0.
         13    1    3    3    0    0  0.28334018703E+02 -0.97170312392E+00  0.29766953941E+02  0.41107570711E+02  0.00000000000E+00 0. -1.
        -14    1    3    3    0    0 -0.19450472715E+02 -0.13355711162E+02 -0.32610964952E+02  0.40251347115E+02  0.00000000000E+00 0.  1.
        -11    1    4    4    0    0 -0.48246985562E+02  0.54943499889E+02 -0.45974878195E+02  0.86372734245E+02  0.00000000000E+00 0. -1.
         11    1    4    4    0    0  0.31110556414E+02  0.45565930349E+02  0.67401785511E+01  0.55583727258E+02  0.00000000000E+00 0.  1.
          2    1    1    2  501    0  0.82528831588E+01 -0.86182015952E+02 -0.76905307363E+02  0.11580102009E+03  0.00000000000E+00 0. -1.
<scales pt_clust_5="13000.00000" pt_clust_6="13000.00000" pt_clust_7="13000.00000" pt_clust_8="13000.00000" pt_clust_9="94.44213"></scales>
<clustering>
<clus scale="   79.542">  5  6 -1 -1</clus>
<clus scale="   81.309">  2  5  1 -1</clus>
<clus scale="   90.645">  7  8 -1 -1</clus>
<clus scale="   94.442">  1  9  2 -1</clus>
<clus scale="   94.442">  1  5  2 -1</clus>
</clustering>
</event>
<event>
 9    1  0.9171696E-005  0.9155408E+02  0.7546771E-02  0.1299885E+00
         21   -1    0    0  501  502  0.00000000000E+00  0.00000000000E+00  0.89438409302E+02  0.89438409302E+02  0.00000000000E+00 0. -1.
         -2   -1    0    0    0  501 -0.00000000000E+00 -0.00000000000E+00 -0.44734855629E+03  0.44734855629E+03  0.00000000000E+00 0.  1.
         23    2    1    2    0    0 -0.15162101334E+02  0.96331494074E+01 -0.17786925407E+03  0.20042868406E+03  0.90617321553E+02 0.  0.
        -24    2    1    2    0    0 -0.75194362477E+02  0.86740377141E+01  0.23487056870E+02  0.11292357072E+03  0.80440412137E+02 0.  0.
         11    1    4    4    0    0 -0.60919459090E+02  0.36823294006E+02  0.35005660269E+02  0.79325479690E+02  0.00000000000E+00 0. -1.
        -12    1    4    4    0    0 -0.14274903387E+02 -0.28149256291E+02 -0.11518603398E+02  0.33598091028E+02  0.00000000000E+00 0.  1.
        -11    1    3    3    0    0 -0.43136881124E+02 -0.44885583023E+01 -0.15675043849E+03  0.16263959430E+03  0.00000000000E+00 0.  1.
         11    1    3    3    0    0  0.27974779790E+02  0.14121707710E+02 -0.21118815582E+02  0.37789089755E+02  0.00000000000E+00 0. -1.
         -1    1    1    2    0  502  0.90356463811E+02 -0.18307187122E+02 -0.20352794979E+03  0.22343471082E+03  0.00000000000E+00 0.  1.
<scales pt_clust_5="13000.00000" pt_clust_6="13000.00000" pt_clust_7="13000.00000" pt_clust_8="13000.00000" pt_clust_9="92.19247"></scales>
<clustering>
<clus scale="   80.440">  5  6 -1 -1</clus>
<clus scale="   90.617">  7  8 -1 -1</clus>
<clus scale="   92.192">  1  9  2 -1</clus>
<clus scale="   92.192">  1  5  2 -1</clus>
<clus scale="   91.554">  1  5  2 -1</clus>
</clustering>
</event>
<event>
 9    1  0.9171696E-005  0.1396290E+03  0.7546771E-02  0.1233603E+00
         21   -1    0    0  501  502  0.00000000000E+00  0.00000000000E+00  0.26662321411E+03  0.26662321411E+03  0.00000000000E+00 0.  1.
          1   -1    0    0  502    0 -0.00000000000E+00 -0.00000000000E+00 -0.26571946409E+03  0.26571946409E+03  0.00000000000E+00 0. -1.
         23    2    1    2    0    0 -0.19268218710E+02 -0.19814610108E+01 -0.36226338777E+02  0.99267113752E+02  0.90368256659E+02 0.  0.
        -24    2    1    2    0    0 -0.63345103380E+02  0.93700792072E+02  0.19082693105E+03  0.23594587111E+03  0.80393382336E+02 0.  0.
         11    1    4    4    0    0  0.11795792198E+02  0.34677723768E+02  0.24309795796E+02  0.43961931384E+02  0.00000000000E+00 0. -1.
        -12    1    4    4    0    0 -0.75140895578E+02  0.59023068304E+02  0.16651713525E+03  0.19198393973E+03  0.00000000000E+00 0.  1.
        -13    1    3    3    0    0  0.20362884268E+02  0.33236252073E+01  0.21010515622E+02  0.29447161271E+02  0.00000000000E+00 0.  1.
         13    1    3    3    0    0 -0.39631102977E+02 -0.53050862182E+01 -0.57236854399E+02  0.69819952481E+02  0.00000000000E+00 0. -1.
          2    1    1    2  501    0  0.82613322090E+02 -0.91719331061E+02 -0.15369684225E+03  0.19712969333E+03  0.00000000000E+00 0. -1.
<scales pt_clust_5="13000.00000" pt_clust_6="13000.00000" pt_clust_7="13000.00000" pt_clust_8="13000.00000" pt_clust_9="114.16295"></scales>
<clustering>
<clus scale="   80.393">  5  6 -1 -1</clus>
<clus scale="   90.368">  7  8 -1 -1</clus>
<clus scale="   92.421">  2  7  1 -1</clus>
<clus scale="  114.163">  1  9  2 -1</clus>
<clus scale="  114.163">  1  5  2 -1</clus>
</clustering>
</event>
<event>
 9    1  0.9171696E-005  0.1433814E+03  0.7546771E-02  0.1214820E+00
          1   -1    0    0  502    0 -0.00000000000E+00  0.00000000000E+00  0.12604506896E+04  0.12604506896E+04  0.00000000000E+00 0. -1.
         21   -1    0    0  501  502  0.00000000000E+00 -0.00000000000E+00 -0.40637433805E+02  0.40637433805E+02  0.00000000000E+00 0. -1.
         23    2    1    2    0    0  0.74775200466E+02 -0.44370616785E+02  0.17884626025E+03  0.21892901357E+03  0.91563343858E+02 0.  0.
        -24    2    1    2    0    0 -0.73163657060E+02 -0.95518259867E+02  0.70518122222E+03  0.71839602697E+03  0.65845552026E+02 0.  0.
         13    1    4    4    0    0 -0.71944089027E+02 -0.10516290380E+03  0.65203060205E+03  0.66436367623E+03  0.00000000000E+00 0. -1.
        -14    1    4    4    0    0 -0.12195680333E+01  0.96446439379E+01  0.53150620164E+02  0.54032350742E+02  0.00000000000E+00 0.  1.
        -11    1    3    3    0    0  0.80434575792E+02 -0.64094443194E+02  0.12869956380E+03  0.16474646082E+03  0.00000000000E+00 0. -1.
         11    1    3    3    0    0 -0.56593753261E+01  0.19723826409E+02  0.50146696452E+02  0.54182552748E+02  0.00000000000E+00 0.  1.
          2    1    1    2  501    0 -0.16115434061E+01  0.13988887665E+03  0.33578577333E+03  0.36376308286E+03  0.00000000000E+00 0. -1.
<scales pt_clust_5="13000.00000" pt_clust_6="13000.00000" pt_clust_7="13000.00000" pt_clust_8="13000.00000" pt_clust_9="127.36788"></scales>
<clustering>
<clus scale="   65.846">  5  6 -1 -1</clus>
<clus scale="   91.563">  7  8 -1 -1</clus>
<clus scale="  126.269">  1  7  2 -1</clus>
<clus scale="  127.368">  2  9  1 -1</clus>
<clus scale="  127.368">  2  5  1 -1</clus>
</clustering>
</event>
<event>
 9    1  0.9171696E-005  0.1098876E+03  0.7546771E-02  0.1265121E+00
         21   -1    0    0  501  502  0.00000000000E+00  0.00000000000E+00  0.33138989509E+03  0.33138989509E+03  0.00000000000E+00 0. -1.
          3   -1    0    0  502    0 -0.00000000000E+00 -0.00000000000E+00 -0.78352944503E+02  0.78352944503E+02  0.00000000000E+00 0. -1.
         23    2    1    2    0    0 -0.60933888724E+02 -0.43053697462E+02  0.10751988300E+02  0.11815636255E+03  0.90987697514E+02 0.  0.
        -24    2    1    2    0    0  0.49061636919E+02 -0.56874139021E+01  0.85783487076E+02  0.12724123664E+03  0.79950827088E+02 0.  0.
         11    1    4    4    0    0  0.59072392266E+02 -0.11715925505E+02  0.94916565293E+02  0.11240980743E+03  0.00000000000E+00 0. -1.
        -12    1    4    4    0    0 -0.10010755347E+02  0.60285116024E+01 -0.91330782171E+01  0.14831429212E+02  0.00000000000E+00 0.  1.
        -11    1    3    3    0    0 -0.51465157434E+02  0.16586555566E+02 -0.85837763501E+01  0.54749040829E+02  0.00000000000E+00 0.  1.
         11    1    3    3    0    0 -0.94687312907E+01 -0.59640253028E+02  0.19335764650E+02  0.63407321723E+02  0.00000000000E+00 0. -1.
          4    1    1    2  501    0  0.11872251805E+02  0.48741111364E+02  0.15650147521E+03  0.16434524040E+03  0.00000000000E+00 0. -1.
<scales pt_clust_5="13000.00000" pt_clust_6="13000.00000" pt_clust_7="13000.00000" pt_clust_8="13000.00000" pt_clust_9="50.16619"></scales>
<clustering>
<clus scale="   50.166">  1  9  2 -1</clus>
<clus scale="   79.951">  5  6 -1 -1</clus>
<clus scale="   90.988">  7  8 -1 -1</clus>
<clus scale="  100.939">  1  5  2 -1</clus>
<clus scale="   50.166">  1  5  2 -1</clus>
</clustering>
</event>
<event>
 9    1  0.9171696E-005  0.1107704E+03  0.7546771E-02  0.1265622E+00
         21   -1    0    0  501  502  0.00000000000E+00  0.00000000000E+00  0.10109024461E+03  0.10109024461E+03  0.00000000000E+00 0.  1.
         -4   -1    0    0    0  501 -0.00000000000E+00 -0.00000000000E+00 -0.75771351969E+03  0.75771351969E+03  0.00000000000E+00 0.  1.
        -24    2    1    2    0    0 -0.87699117263E+01  0.49792697165E+02 -0.44204904615E+03  0.45149038094E+03  0.76681033047E+02 0.  0.
         23    2    1    2    0    0  0.60973217182E+02 -0.78920957805E+02 -0.28441560430E+03  0.31538156959E+03  0.92881901757E+02 0.  0.
         13    1    3    3    0    0 -0.16219247717E+02  0.67051473956E+02 -0.28082046230E+03  0.28916966681E+03  0.00000000000E+00 0. -1.
        -14    1    3    3    0    0  0.74493359903E+01 -0.17258776790E+02 -0.16122858385E+03  0.16232071413E+03  0.00000000000E+00 0.  1.
        -13    1    4    4    0    0  0.49395706971E+02 -0.99302852485E+02 -0.21188696924E+03  0.23915911045E+03  0.00000000000E+00 0.  1.
         13    1    4    4    0    0  0.11577510211E+02  0.20381894680E+02 -0.72528635062E+02  0.76222459140E+02  0.00000000000E+00 0. -1.
         -3    1    1    2    0  502 -0.52203305455E+02  0.29128260640E+02  0.69841375380E+02  0.91931813772E+02  0.00000000000E+00 0.  1.
<scales pt_clust_5="13000.00000" pt_clust_6="13000.00000" pt_clust_7="13000.00000" pt_clust_8="13000.00000" pt_clust_9="59.77994"></scales>
<clustering>
<clus scale="   59.780">  1  9  2 -1</clus>
<clus scale="   76.681">  5  6 -1 -1</clus>
<clus scale="   92.882">  7  8 -1 -1</clus>
<clus scale="   97.586">  2  5  1 -1</clus>
<clus scale="   59.780">  1  5  2 -1</clus>
</clustering>
</event>
<event>
 9    1  0.9171696E-005  0.1531769E+03  0.7546771E-02  0.1206776E+00
          1   -1    0    0  502    0 -0.00000000000E+00  0.00000000000E+00  0.25465770991E+03  0.25465770991E+03  0.00000000000E+00 0. -1.
         21   -1    0    0  501  502  0.00000000000E+00 -0.00000000000E+00 -0.24135831665E+03  0.24135831665E+03  0.00000000000E+00 0. -1.
        -24    2    1    2    0    0  0.10240381107E+03 -0.13559779991E+02  0.99531127454E+02  0.16409417451E+03  0.79687167234E+02 0.  0.
         23    2    1    2    0    0 -0.65543725734E+02  0.61686165332E+02  0.68449813139E+02  0.16578577547E+03  0.12123688981E+03 0.  0.
         11    1    3    3    0    0  0.36619793617E+02  0.25411065922E+02  0.87849770169E+01  0.45430247380E+02  0.00000000000E+00 0. -1.
        -12    1    3    3    0    0  0.65784017449E+02 -0.38970845912E+02  0.90746150437E+02  0.11866392713E+03  0.00000000000E+00 0.  1.
        -13    1    4    4    0    0 -0.57162433138E+02 -0.19126436339E+02  0.11537044388E+01  0.60288434738E+02  0.00000000000E+00 0.  1.
         13    1    4    4    0    0 -0.83812925958E+01  0.80812601672E+02  0.67296108700E+02  0.10549734073E+03  0.00000000000E+00 0. -1.
          2    1    1    2  501    0 -0.36860085333E+02 -0.48126385342E+02 -0.15468154733E+03  0.16613607658E+03  0.00000000000E+00 0. -1.
<scales pt_clust_5="13000.00000" pt_clust_6="13000.00000" pt_clust_7="13000.00000" pt_clust_8="13000.00000" pt_clust_9="60.62025"></scales>
<clustering>
<clus scale="   60.620">  2  9  1 -1</clus>
<clus scale="   79.687">  5  6 -1 -1</clus>
<clus scale="  121.237">  7  8 -1 -1</clus>
<clus scale="  122.942">  1  5  2 -1</clus>
<clus scale="   60.620">  2  5  1 -1</clus>
</clustering>
</event>
<event>
 9    1  0.9171696E-005  0.1007246E+03  0.7546771E-02  0.1284749E+00
         21   -1    0    0  501  502  0.00000000000E+00  0.00000000000E+00  0.23629639004E+03  0.23629639004E+03  0.00000000000E+00 0. -1.
          1   -1    0    0  502    0 -0.00000000000E+00 -0.00000000000E+00 -0.10446156222E+03  0.10446156222E+03  0.00000000000E+00 0. -1.
         23    2    1    2    0    0 -0.76813598023E+01 -0.85036477440E+01 -0.39493167477E+02  0.98565264935E+02  0.89577261964E+02 0.  0.
        -24    2    1    2    0    0  0.92951941718E+01 -0.49339617140E+02  0.12548007406E+03  0.16836532360E+03  0.10040336024E+03 0.  0.
         11    1    4    4    0    0  0.36739002289E+02 -0.58113424420E+02  0.12105331741E+03  0.13921504962E+03  0.00000000000E+00 0. -1.
        -12    1    4    4    0    0 -0.27443808117E+02  0.87738072795E+01  0.44267566591E+01  0.29150273972E+02  0.00000000000E+00 0.  1.
        -13    1    3    3    0    0  0.29636852274E+02  0.20596469457E+02 -0.36216176737E+02  0.51128945073E+02  0.00000000000E+00 0.  1.
         13    1    3    3    0    0 -0.37318212077E+02 -0.29100117201E+02 -0.32769907404E+01  0.47436319862E+02  0.00000000000E+00 0. -1.
          2    1    1    2  501    0 -0.16138343695E+01  0.57843264884E+02  0.45847921236E+02  0.73827363731E+02  0.00000000000E+00 0. -1.
<scales pt_clust_5="13000.00000" pt_clust_6="13000.00000" pt_clust_7="13000.00000" pt_clust_8="13000.00000" pt_clust_9="57.86577"></scales>
<clustering>
<clus scale="   57.866">  1  9  2 -1</clus>
<clus scale="   89.577">  7  8 -1 -1</clus>
<clus scale="   89.937">  2  7  1 -1</clus>
<clus scale="  100.403">  5  6 -1 -1</clus>
<clus scale="   57.866">  1  5  2 -1</clus>
</clustering>
</event>
<event>
 9    1  0.9171696E-005  0.9668259E+02  0.7546771E-02  0.1291875E+00
          1   -1    0    0  502    0 -0.00000000000E+00  0.00000000000E+00  0.10162993069E+03  0.10162993069E+03  0.00000000000E+00 0. -1.
         21   -1    0    0  501  502  0.00000000000E+00 -0.00000000000E+00 -0.19814377602E+03  0.19814377602E+03  0.00000000000E+00 0.  1.
         23    2    1    2    0    0  0.20802696428E+02  0.26248389712E+02  0.37163189022E+02  0.10222077933E+03  0.89141768930E+02 0.  0.
        -24    2    1    2    0    0 -0.56695597916E+02 -0.10558626858E+02 -0.65305294258E+02  0.11875467943E+03  0.80697069371E+02 0.  0.
         13    1    4    4    0    0 -0.54592783952E+02  0.25966076134E+02 -0.28411985418E+02  0.66797081409E+02  0.00000000000E+00 0. -1.
        -14    1    4    4    0    0 -0.21028139642E+01 -0.36524702993E+02 -0.36893308840E+02  0.51957598024E+02  0.00000000000E+00 0.  1.
        -13    1    3    3    0    0  0.48586125258E+02  0.40139761451E+02  0.17312459777E+02  0.65356968109E+02  0.00000000000E+00 0. -1.
         13    1    3    3    0    0 -0.27783428830E+02 -0.13891371739E+02  0.19850729245E+02  0.36863811223E+02  0.00000000000E+00 0.  1.
          2    1    1    2  501    0  0.35892901488E+02 -0.15689762854E+02 -0.68371740090E+02  0.78798247941E+02  0.00000000000E+00 0. -1.
<scales pt_clust_5="13000.00000" pt_clust_6="13000.00000" pt_clust_7="13000.00000" pt_clust_8="13000.00000" pt_clust_9="39.17230"></scales>
<clustering>
<clus scale="   39.172">  2  9  1 -1</clus>
<clus scale="   80.697">  5  6 -1 -1</clus>
<clus scale="   88.957">  2  5  1 -1</clus>
<clus scale="   89.142">  7  8 -1 -1</clus>
<clus scale="   39.172">  2  5  1 -1</clus>
</clustering>
</event>
<event>
 9    1  0.9171696E-005  0.1225476E+03  0.7546771E-02  0.1242049E+00
         21   -1    0    0  501  502  0.00000000000E+00  0.00000000000E+00  0.14967843400E+03  0.14967843400E+03  0.00000000000E+00 0. -1.
         -4   -1    0    0    0  501 -0.00000000000E+00 -0.00000000000E+00 -0.16034970322E+03  0.16034970322E+03  0.00000000000E+00 0.  1.
        -24    2    1    2    0    0 -0.64153225070E+02  0.64419786513E+02 -0.74786127592E+02  0.14186161510E+03  0.79159382115E+02 0.  0.
         23    2    1    2    0    0  0.53618717194E+02 -0.44180182302E+02  0.15527019866E+02  0.11448789056E+03  0.89663445162E+02 0.  0.
         11    1    3    3    0    0 -0.62060851946E+02  0.47524988035E+02 -0.14864154451E+02  0.79568316053E+02  0.00000000000E+00 0. -1.
        -12    1    3    3    0    0 -0.20923731243E+01  0.16894798478E+02 -0.59921973141E+02  0.62293299046E+02  0.00000000000E+00 0.  1.
        -11    1    4    4    0    0  0.20596704929E+02 -0.68533871643E+02  0.16522768392E+02  0.73444657339E+02  0.00000000000E+00 0. -1.
         11    1    4    4    0    0  0.33022012265E+02  0.24353689341E+02 -0.99574852546E+00  0.41043233226E+02  0.00000000000E+00 0.  1.
         -3    1    1    2    0  502  0.10534507876E+02 -0.20239604211E+02  0.48587838504E+02  0.53678631552E+02  0.00000000000E+00 0.  1.
<scales pt_clust_5="13000.00000" pt_clust_6="13000.00000" pt_clust_7="13000.00000" pt_clust_8="13000.00000" pt_clust_9="22.81704"></scales>
<clustering>
<clus scale="   22.817">  1  9  2 -1</clus>
<clus scale="   79.159">  5  6 -1 -1</clus>
<clus scale="   89.663">  7  8 -1 -1</clus>
<clus scale="  115.085">  2  5  1 -1</clus>
<clus scale="   22.817">  1  5  2 -1</clus>
</clustering>
</event>
<event>
 9    1  0.9171696E-005  0.9831270E+02  0.7546771E-02  0.1289596E+00
          1   -1    0    0  502    0 -0.00000000000E+00  0.00000000000E+00  0.21874395169E+03  0.21874395169E+03  0.00000000000E+00 0. -1.
         21   -1    0    0  501  502  0.00000000000E+00 -0.00000000000E+00 -0.76044758065E+02  0.76044758065E+02  0.00000000000E+00 0. -1.
        -24    2    1    2    0    0 -0.51311141723E+02  0.19569909171E+01  0.85731176280E+02  0.12889279230E+03  0.81405492705E+02 0.  0.
         23    2    1    2    0    0  0.65431802780E+01 -0.28168116924E+02  0.60348086512E+02  0.11390920409E+03  0.92180036950E+02 0.  0.
         13    1    3    3    0    0 -0.65282291720E+02 -0.75436482704E+01  0.90025900638E+02  0.11146006920E+03  0.00000000000E+00 0. -1.
        -14    1    3    3    0    0  0.13971149998E+02  0.95006391874E+01 -0.42947243583E+01  0.17432723096E+02  0.00000000000E+00 0.  1.
        -13    1    4    4    0    0 -0.26840482702E+02  0.17456146464E+02  0.11287446424E+01  0.32037519029E+02  0.00000000000E+00 0.  1.
         13    1    4    4    0    0  0.33383662980E+02 -0.45624263388E+02  0.59219341870E+02  0.81871685064E+02  0.00000000000E+00 0. -1.
          2    1    1    2  501    0  0.44767961445E+02  0.26211126007E+02 -0.33800691683E+01  0.51986713361E+02  0.00000000000E+00 0. -1.
<scales pt_clust_5="13000.00000" pt_clust_6="13000.00000" pt_clust_7="13000.00000" pt_clust_8="13000.00000" pt_clust_9="51.87671"></scales>
<clustering>
<clus scale="   51.877">  2  9  1 -1</clus>
<clus scale="   81.405">  5  6 -1 -1</clus>
<clus scale="   88.290">  1  5  2 -1</clus>
<clus scale="   92.180">  7  8 -1 -1</clus>
<clus scale="   51.877">  2  5  1 -1</clus>
</clustering>
</event>
<event>
 9    1  0.9171696E-005  0.9365947E+02  0.7546771E-02  0.1302096E+00
          1   -1    0    0  502    0 -0.00000000000E+00  0.00000000000E+00  0.12183021222E+03  0.12183021222E+03  0.00000000000E+00 0. -1.
         21   -1    0    0  501  502  0.00000000000E+00 -0.00000000000E+00 -0.22645756503E+03  0.22645756503E+03  0.00000000000E+00 0. -1.
         23    2    1    2    0    0 -0.36095425040E+00  0.22024359450E+02  0.69303751893E+02  0.11794105033E+03  0.92854071691E+02 0.  0.
        -24    2    1    2    0    0 -0.98755153069E+01  0.15165373506E+02 -0.40613110203E+02  0.91560743457E+02  0.80040181571E+02 0.  0.
         11    1    4    4    0    0 -0.57490746353E+01  0.47043978957E+02 -0.12897591536E+02  0.49117570000E+02  0.00000000000E+00 0. -1.
        -12    1    4    4    0    0 -0.41264406716E+01 -0.31878605451E+02 -0.27715518667E+02  0.42443173457E+02  0.00000000000E+00 0.  1.
        -11    1    3    3    0    0 -0.20799552437E+02 -0.31440923174E+02  0.21727101203E+02  0.43511147518E+02  0.00000000000E+00 0.  1.
         11    1    3    3    0    0  0.20438598187E+02  0.53465282624E+02  0.47576650690E+02  0.74429902814E+02  0.00000000000E+00 0. -1.
          2    1    1    2  501    0  0.10236469557E+02 -0.37189732956E+02 -0.13331799450E+03  0.13878598346E+03  0.00000000000E+00 0. -1.
<scales pt_clust_5="13000.00000" pt_clust_6="13000.00000" pt_clust_7="13000.00000" pt_clust_8="13000.00000" pt_clust_9="38.57281"></scales>
<clustering>
<clus scale="   38.573">  2  9  1 -1</clus>
<clus scale="   80.040">  5  6 -1 -1</clus>
<clus scale="   80.973">  2  5  1 -1</clus>
<clus scale="   92.854">  7  8 -1 -1</clus>
<clus scale="   38.573">  2  5  1 -1</clus>
</clustering>
</event>
<event>
 9    1  0.9171696E-005  0.1104211E+03  0.7546771E-02  0.1263692E+00
         21   -1    0    0  501  502  0.00000000000E+00  0.00000000000E+00  0.10926329167E+03  0.10926329167E+03  0.00000000000E+00 0. -1.
          1   -1    0    0  502    0 -0.00000000000E+00 -0.00000000000E+00 -0.59053361216E+03  0.59053361216E+03  0.00000000000E+00 0. -1.
        -24    2    1    2    0    0 -0.53763479441E+02  0.28841249029E+02 -0.28699149107E+03  0.30414081892E+03  0.80094896346E+02 0.  0.
         23    2    1    2    0    0  0.96670321649E+02 -0.17055262383E+02  0.53677896993E+02  0.14373854927E+03  0.90240904572E+02 0.  0.
         13    1    3    3    0    0 -0.24619408767E+01 -0.21473700159E+02 -0.28036552082E+02  0.35400977445E+02  0.00000000000E+00 0. -1.
        -14    1    3    3    0    0 -0.51301538564E+02  0.50314949188E+02 -0.25895493898E+03  0.26873984147E+03  0.00000000000E+00 0.  1.
        -11    1    4    4    0    0  0.16020940983E+02  0.17851436984E+02  0.50378360257E+02  0.55797164216E+02  0.00000000000E+00 0.  1.
         11    1    4    4    0    0  0.80649380667E+02 -0.34906699367E+02  0.32995367364E+01  0.87941385054E+02  0.00000000000E+00 0. -1.
          2    1    1    2  501    0 -0.42906842209E+02 -0.11785986646E+02 -0.24795672642E+03  0.25191753564E+03  0.00000000000E+00 0. -1.
<scales pt_clust_5="13000.00000" pt_clust_6="13000.00000" pt_clust_7="13000.00000" pt_clust_8="13000.00000" pt_clust_9="44.49616"></scales>
<clustering>
<clus scale="   44.496">  1  9  2 -1</clus>
<clus scale="   80.095">  5  6 -1 -1</clus>
<clus scale="   90.241">  7  8 -1 -1</clus>
<clus scale="  102.297">  2  5  1 -1</clus>
<clus scale="   44.496">  1  5  2 -1</clus>
</clustering>
</event>
<event>
 9    1  0.9171696E-005  0.9870224E+02  0.7546771E-02  0.1295242E+00
         21   -1    0    0  501  502  0.00000000000E+00  0.00000000000E+00  0.13269306189E+03  0.13269306189E+03  0.00000000000E+00 0. -1.
          3   -1    0    0  502    0 -0.00000000000E+00 -0.00000000000E+00 -0.24223137560E+03  0.24223137560E+03  0.00000000000E+00 0. -1.
         23    2    1    2    0    0 -0.38772087733E+02 -0.49918865497E+01 -0.18454447780E+03  0.21112089686E+03  0.94800712466E+02 0.  0.
        -24    2    1    2    0    0 -0.24396490307E+01 -0.48927449016E+01 -0.42944095467E+01  0.73888613250E+02  0.73560820921E+02 0.  0.
         13    1    4    4    0    0 -0.27662985545E+02  0.23130216726E+02 -0.18315756231E+01  0.36105434000E+02  0.00000000000E+00 0. -1.
        -14    1    4    4    0    0  0.25223336514E+02 -0.28022961628E+02 -0.24628339237E+01  0.37783179250E+02  0.00000000000E+00 0.  1.
        -11    1    3    3    0    0 -0.15532741867E+02  0.44860817943E+02 -0.89318719552E+02  0.10115133572E+03  0.00000000000E+00 0. -1.
         11    1    3    3    0    0 -0.23239345866E+02 -0.49852704492E+02 -0.95225758248E+02  0.10996956113E+03  0.00000000000E+00 0.  1.
          4    1    1    2  501    0  0.41211736763E+02  0.98846314513E+01  0.79300573638E+02  0.89914927378E+02  0.00000000000E+00 0. -1.
<scales pt_clust_5="13000.00000" pt_clust_6="13000.00000" pt_clust_7="13000.00000" pt_clust_8="13000.00000" pt_clust_9="42.38058"></scales>
<clustering>
<clus scale="   42.381">  1  9  2 -1</clus>
<clus scale="   73.561">  5  6 -1 -1</clus>
<clus scale="   78.525">  1  5  2 -1</clus>
<clus scale="   94.801">  7  8 -1 -1</clus>
<clus scale="   42.381">  1  5  2 -1</clus>
</clustering>
</event>
<event>
 9    1  0.9171696E-005  0.1189444E+03  0.7546771E-02  0.1246850E+00
          1   -1    0    0  502    0 -0.00000000000E+00  0.00000000000E+00  0.50021468490E+03  0.50021468490E+03  0.00000000000E+00 0. -1.
         21   -1    0    0  501  502  0.00000000000E+00 -0.00000000000E+00 -0.50945642763E+02  0.50945642763E+02  0.00000000000E+00 0. -1.
         23    2    1    2    0    0 -0.51561330591E+02 -0.90143529202E+02  0.21419325774E+03  0.25412711779E+03  0.88979849780E+02 0.  0.
        -24    2    1    2    0    0  0.60233827571E+02  0.18493012222E+02  0.10169803367E+03  0.14538020734E+03  0.82600297514E+02 0.  0.
         13    1    4    4    0    0  0.20971960245E+02  0.46675636061E+02  0.73077264042E+02  0.89211684426E+02  0.00000000000E+00 0. -1.
        -14    1    4    4    0    0  0.39261867327E+02 -0.28182623840E+02  0.28620769629E+02  0.56168522917E+02  0.00000000000E+00 0.  1.
        -11    1    3    3    0    0  0.76346754991E+01 -0.25985287595E+02  0.13019413878E+03  0.13298134160E+03  0.00000000000E+00 0.  1.
         11    1    3    3    0    0 -0.59196006091E+02 -0.64158241607E+02  0.83999118965E+02  0.12114577620E+03  0.00000000000E+00 0. -1.
          2    1    1    2  501    0 -0.86724969798E+01  0.71650516980E+02  0.13337775073E+03  0.15165300253E+03  0.00000000000E+00 0. -1.
<scales pt_clust_5="13000.00000" pt_clust_6="13000.00000" pt_clust_7="13000.00000" pt_clust_8="13000.00000" pt_clust_9="72.17350"></scales>
<clustering>
<clus scale="   72.173">  2  9  1 -1</clus>
<clus scale="   82.600">  5  6 -1 -1</clus>
<clus scale="   88.980">  7  8 -1 -1</clus>
<clus scale="  114.250">  2  5  1 -1</clus>
<clus scale="   72.173">  2  5  1 -1</clus>
</clustering>
</event>
<event>
 9    1  0.9171696E-005  0.1059530E+03  0.7546771E-02  0.1273385E+00
         21   -1    0    0  501  502  0.00000000000E+00  0.00000000000E+00  0.12623614559E+03  0.12623614559E+03  0.00000000000E+00 0.  1.
         -2   -1    0    0    0  501 -0.00000000000E+00 -0.00000000000E+00 -0.22010229167E+03  0.22010229167E+03  0.00000000000E+00 0.  1.
         23    2    1    2    0    0 -0.65810373064E+02  0.35219153312E+02 -0.11898789295E+03  0.16824763318E+03  0.92616161869E+02 0.  0.
        -24    2    1    2    0    0 -0.75009718088E+00 -0.36164720143E+02 -0.27903831929E+02  0.92985561568E+02  0.80989142451E+02 0.  0.
         13    1    4    4    0    0  0.10693863902E+02 -0.36861462361E+02 -0.52974718188E+02  0.65417481606E+02  0.00000000000E+00 0. -1.
        -14    1    4    4    0    0 -0.11443961083E+02  0.69674221810E+00  0.25070886259E+02  0.27568079962E+02  0.00000000000E+00 0.  1.
        -13    1    3    3    0    0 -0.15997188689E+02 -0.31147374185E+02 -0.25966756406E+02  0.43592905418E+02  0.00000000000E+00 0. -1.
         13    1    3    3    0    0 -0.49813184375E+02  0.66366527497E+02 -0.93021136540E+02  0.12465472776E+03  0.00000000000E+00 0.  1.
         -1    1    1    2    0  502  0.66560470244E+02  0.94556683047E+00  0.53025578802E+02  0.85105242512E+02  0.00000000000E+00 0.  1.
<scales pt_clust_5="13000.00000" pt_clust_6="13000.00000" pt_clust_7="13000.00000" pt_clust_8="13000.00000" pt_clust_9="66.56719"></scales>
<clustering>
<clus scale="   66.567">  1  9  2 -1</clus>
<clus scale="   80.989">  5  6 -1 -1</clus>
<clus scale="   92.616">  7  8 -1 -1</clus>
<clus scale="   95.956">  1  5  2 -1</clus>
<clus scale="   66.567">  1  5  2 -1</clus>
</clustering>
</event>
<event>
 9    1  0.9171696E-005  0.1195295E+03  0.7546771E-02  0.1247771E+00
         21   -1    0    0  501  502  0.00000000000E+00  0.00000000000E+00  0.51183122592E+02  0.51183122592E+02  0.00000000000E+00 0. -1.
          1   -1    0    0  502    0 -0.00000000000E+00 -0.00000000000E+00 -0.70749378655E+03  0.70749378655E+03  0.00000000000E+00 0. -1.
        -24    2    1    2    0    0 -0.53106176071E+02  0.50244896756E+02 -0.57024555159E+03  0.58051749812E+03  0.80472112776E+02 0.  0.
         23    2    1    2    0    0  0.67270089276E+02 -0.68099602072E+02 -0.75883934321E+02  0.15319817456E+03  0.92458036349E+02 0.  0.
         13    1    3    3    0    0 -0.73826361681E+02  0.38457137466E+02 -0.48064130426E+03  0.48779641908E+03  0.00000000000E+00 0. -1.
        -14    1    3    3    0    0  0.20720185610E+02  0.11787759290E+02 -0.89604247328E+02  0.92721079049E+02  0.00000000000E+00 0.  1.
        -13    1    4    4    0    0 -0.20426351859E+02 -0.31485704376E+02 -0.15512433186E+02  0.40610602233E+02  0.00000000000E+00 0.  1.
         13    1    4    4    0    0  0.87696441136E+02 -0.36613897695E+02 -0.60371501135E+02  0.11258757232E+03  0.00000000000E+00 0. -1.
          2    1    1    2  501    0 -0.14163913205E+02  0.17854705316E+02 -0.10181178047E+02  0.24961236460E+02  0.00000000000E+00 0. -1.
<scales pt_clust_5="13000.00000" pt_clust_6="13000.00000" pt_clust_7="13000.00000" pt_clust_8="13000.00000" pt_clust_9="22.79050"></scales>
<clustering>
<clus scale="   22.791">  1  9  2 -1</clus>
<clus scale="   80.472">  5  6 -1 -1</clus>
<clus scale="   92.458">  7  8 -1 -1</clus>
<clus scale="  110.520">  2  5  1 -1</clus>
<clus scale="   22.791">  1  5  2 -1</clus>
</clustering>
</event>
<event>
 9    1  0.9171696E-005  0.1121789E+03  0.7546771E-02  0.1261697E+00
          1   -1    0    0  502    0 -0.00000000000E+00  0.00000000000E+00  0.12783744185E+03  0.12783744185E+03  0.00000000000E+00 0. -1.
         21   -1    0    0  501  502  0.00000000000E+00 -0.00000000000E+00 -0.36843388655E+03  0.36843388655E+03  0.00000000000E+00 0.  1.
        -24    2    1    2    0    0 -0.70983210518E+02  0.21595392472E+02  0.60603945926E+02  0.12326313757E+03  0.77562785337E+02 0.  0.
         23    2    1    2    0    0  0.24961995897E+02  0.69013876947E+02 -0.18187221563E+03  0.21626890013E+03  0.91152168900E+02 0.  0.
         11    1    3    3    0    0 -0.30025197806E+02  0.39553096144E+02  0.22052072093E+01  0.49707372257E+02  0.00000000000E+00 0. -1.
        -12    1    3    3    0    0 -0.40958012711E+02 -0.17957703672E+02  0.58398738716E+02  0.73555765308E+02  0.00000000000E+00 0.  1.
        -11    1    4    4    0    0  0.50306814277E+02  0.41820360626E+02 -0.59695592234E+02  0.88562304948E+02  0.00000000000E+00 0. -1.
         11    1    4    4    0    0 -0.25344818380E+02  0.27193516321E+02 -0.12217662340E+03  0.12770659518E+03  0.00000000000E+00 0.  1.
          2    1    1    2  501    0  0.46021214621E+02 -0.90609269419E+02 -0.11932817500E+03  0.15673929070E+03  0.00000000000E+00 0. -1.
<scales pt_clust_5="13000.00000" pt_clust_6="13000.00000" pt_clust_7="13000.00000" pt_clust_8="13000.00000" pt_clust_9="101.62673"></scales>
<clustering>
<clus scale="   77.563">  5  6 -1 -1</clus>
<clus scale="   91.152">  7  8 -1 -1</clus>
<clus scale="  101.627">  2  9  1 -1</clus>
<clus scale="  101.446">  1  5  2 -1</clus>
<clus scale="  101.627">  2  5  1 -1</clus>
</clustering>
</event>
<event>
 9    1  0.9171696E-005  0.1926515E+03  0.7546771E-02  0.1184527E+00
         21   -1    0    0  501  502  0.00000000000E+00  0.00000000000E+00  0.58921231962E+03  0.58921231962E+03  0.00000000000E+00 0.  1.
         -2   -1    0    0    0  501 -0.00000000000E+00 -0.00000000000E+00 -0.19739775796E+03  0.19739775796E+03  0.00000000000E+00 0.  1.
        -24    2    1    2    0    0 -0.19203068629E+02 -0.57293620784E+02  0.99205225984E+02  0.14125489748E+03  0.80373828894E+02 0.  0.
         23    2    1    2    0    0  0.18208998904E+03  0.11528037058E+02 -0.93007735025E+02  0.22425286152E+03  0.91374216160E+02 0.  0.
         13    1    3    3    0    0 -0.53037780201E+01 -0.70966461181E+02  0.46373603595E+02  0.84940448458E+02  0.00000000000E+00 0. -1.
        -14    1    3    3    0    0 -0.13899290609E+02  0.13672840397E+02  0.52831622389E+02  0.56314449018E+02  0.00000000000E+00 0.  1.
        -13    1    4    4    0    0  0.43657465323E+02 -0.22701767368E+02 -0.60514909430E+02  0.77996145952E+02  0.00000000000E+00 0. -1.
         13    1    4    4    0    0  0.13843252372E+03  0.34229804427E+02 -0.32492825595E+02  0.14625671557E+03  0.00000000000E+00 0.  1.
         -1    1    1    2    0  502 -0.16288692041E+03  0.45765583726E+02  0.38561707070E+03  0.42110231858E+03  0.00000000000E+00 0.  1.
<scales pt_clust_5="13000.00000" pt_clust_6="13000.00000" pt_clust_7="13000.00000" pt_clust_8="13000.00000" pt_clust_9="169.60355"></scales>
<clustering>
<clus scale="   80.374">  5  6 -1 -1</clus>
<clus scale="   91.374">  7  8 -1 -1</clus>
<clus scale="  100.555">  2  5  1 -1</clus>
<clus scale="  169.604">  1  9  2 -1</clus>
<clus scale="  169.604">  1  5  2 -1</clus>
</clustering>
</event>
<event>
 9    1  0.9171696E-005  0.1178258E+03  0.7546771E-02  0.1250327E+00
         21   -1    0    0  501  502  0.00000000000E+00  0.00000000000E+00  0.65185145319E+02  0.65185145319E+02  0.00000000000E+00 0.  1.
         -2   -1    0    0    0  501 -0.00000000000E+00 -0.00000000000E+00 -0.24114032311E+03  0.24114032311E+03  0.00000000000E+00 0.  1.
        -24    2    1    2    0    0 -0.46849550893E+02  0.47357607218E+02 -0.63462058369E+02  0.12264934224E+03  0.81103667725E+02 0.  0.
         23    2    1    2    0    0  0.67666105171E+02 -0.46548235670E+02 -0.87502430564E+02  0.15114124424E+03  0.91877964288E+02 0.  0.
         13    1    3    3    0    0 -0.20067590735E+02 -0.14771384214E+02 -0.46725275562E+02  0.52954257296E+02  0.00000000000E+00 0. -1.
        -14    1    3    3    0    0 -0.26781960157E+02  0.62128991431E+02 -0.16736782807E+02  0.69695084941E+02  0.00000000000E+00 0.  1.
        -13    1    4    4    0    0  0.41075808532E+02 -0.53425881374E+02 -0.90202600785E+01  0.67991999081E+02  0.00000000000E+00 0.  1.
         13    1    4    4    0    0  0.26590296640E+02  0.68776457044E+01 -0.78482170486E+02  0.83149245156E+02  0.00000000000E+00 0. -1.
         -1    1    1    2    0  502 -0.20816554279E+02 -0.80937154771E+00 -0.24990688861E+02  0.32534881959E+02  0.00000000000E+00 0.  1.
<scales pt_clust_5="13000.00000" pt_clust_6="13000.00000" pt_clust_7="13000.00000" pt_clust_8="13000.00000" pt_clust_9="20.83229"></scales>
<clustering>
<clus scale="   20.832">  1  9  2 -1</clus>
<clus scale="   81.104">  5  6 -1 -1</clus>
<clus scale="   91.878">  7  8 -1 -1</clus>
<clus scale="  109.632">  2  5  1 -1</clus>
<clus scale="   20.832">  1  5  2 -1</clus>
</clustering>
</event>
<event>
 9    1  0.9171696E-005  0.1375921E+03  0.7546771E-02  0.1218832E+00
         -2   -1    0    0    0  501 -0.00000000000E+00  0.00000000000E+00  0.79263662229E+03  0.79263662229E+03  0.00000000000E+00 0.  1.
         21   -1    0    0  501  502  0.00000000000E+00 -0.00000000000E+00 -0.54480322441E+02  0.54480322441E+02  0.00000000000E+00 0.  1.
        -24    2    1    2    0    0 -0.59740345960E+02  0.91084902173E+02  0.59440492591E+03  0.60996615335E+03  0.82922397129E+02 0.  0.
         23    2    1    2    0    0  0.80172236050E+02 -0.33401952220E+02  0.10476225867E+03  0.16459091296E+03  0.92583799554E+02 0.  0.
         13    1    3    3    0    0 -0.68216735133E+01  0.81623476053E+02  0.39774352552E+03  0.40608969350E+03  0.00000000000E+00 0. -1.
        -14    1    3    3    0    0 -0.52918672446E+02  0.94614261197E+01  0.19666140038E+03  0.20387645984E+03  0.00000000000E+00 0.  1.
        -13    1    4    4    0    0  0.75445813468E+02 -0.13330719536E+02  0.11756041047E+03  0.14032187628E+03  0.00000000000E+00 0.  1.
         13    1    4    4    0    0  0.47264225827E+01 -0.20071232684E+02 -0.12798151793E+02  0.24269036677E+02  0.00000000000E+00 0. -1.
         -1    1    1    2    0  502 -0.20431890091E+02 -0.57682949953E+02  0.38989115261E+02  0.72559878423E+02  0.00000000000E+00 0.  1.
<scales pt_clust_5="13000.00000" pt_clust_6="13000.00000" pt_clust_7="13000.00000" pt_clust_8="13000.00000" pt_clust_9="61.19465"></scales>
<clustering>
<clus scale="   61.195">  2  9  1 -1</clus>
<clus scale="   82.922">  5  6 -1 -1</clus>
<clus scale="   92.584">  7  8 -1 -1</clus>
<clus scale="  131.286">  1  5  2 -1</clus>
<clus scale="   61.195">  2  5  1 -1</clus>
</clustering>
</event>
<event>
 9    1  0.9171696E-005  0.2016687E+03  0.7546771E-02  0.1149131E+00
         21   -1    0    0  501  502  0.00000000000E+00  0.00000000000E+00  0.33836440479E+03  0.33836440479E+03  0.00000000000E+00 0. -1.
          1   -1    0    0  502    0 -0.00000000000E+00 -0.00000000000E+00 -0.25863077057E+03  0.25863077057E+03  0.00000000000E+00 0. -1.
         23    2    1    2    0    0  0.20802132684E+02  0.20894871180E+03 -0.62766862430E+02  0.23218565346E+03  0.76669457832E+02 0.  0.
        -24    2    1    2    0    0  0.85916678286E+02 -0.12240309187E+03  0.14805019370E+03  0.22729643859E+03  0.85910526894E+02 0.  0.
         11    1    4    4    0    0  0.77669580337E+02 -0.42108985582E+02  0.99670784053E+02  0.13319157470E+03  0.00000000000E+00 0. -1.
        -12    1    4    4    0    0  0.82470979489E+01 -0.80294106292E+02  0.48379409649E+02  0.94104863890E+02  0.00000000000E+00 0.  1.
        -11    1    3    3    0    0  0.17189274265E+02  0.16021042352E+03 -0.11781576020E+02  0.16156007083E+03  0.00000000000E+00 0. -1.
         11    1    3    3    0    0  0.36128584193E+01  0.48738288282E+02 -0.50985286411E+02  0.70625582624E+02  0.00000000000E+00 0.  1.
          2    1    1    2  501    0 -0.10671881097E+03 -0.86545619927E+02 -0.55496970515E+01  0.13751308331E+03  0.00000000000E+00 0. -1.
<scales pt_clust_5="13000.00000" pt_clust_6="13000.00000" pt_clust_7="13000.00000" pt_clust_8="13000.00000" pt_clust_9="137.40112"></scales>
<clustering>
<clus scale="   76.669">  7  8 -1 -1</clus>
<clus scale="   85.911">  5  6 -1 -1</clus>
<clus scale="  137.401">  1  9  2 -1</clus>
<clus scale="  197.909">  2  7  1 -1</clus>
<clus scale="  137.401">  1  5  2 -1</clus>
</clustering>
</event>
<event>
 9    1  0.9171696E-005  0.2569623E+03  0.7546771E-02  0.1116488E+00
         21   -1    0    0  501  502  0.00000000000E+00  0.00000000000E+00  0.43306974065E+03  0.43306974065E+03  0.00000000000E+00 0. -1.
          1   -1    0    0  502    0 -0.00000000000E+00 -0.00000000000E+00 -0.54067590162E+03  0.54067590162E+03  0.00000000000E+00 0. -1.
         23    2    1    2    0    0 -0.19232620757E+03  0.21716285436E+02 -0.15341218575E+03  0.26204940996E+03  0.87599242890E+02 0.  0.
        -24    2    1    2    0    0  0.11874283720E+03 -0.23098383916E+03  0.27887633792E+03  0.38993670672E+03  0.82614938456E+02 0.  0.
         13    1    4    4    0    0  0.10898089051E+03 -0.18801248889E+03  0.18181726286E+03  0.28334263278E+03  0.00000000000E+00 0. -1.
        -14    1    4    4    0    0  0.97619466843E+01 -0.42971350264E+02  0.97059075067E+02  0.10659407394E+03  0.00000000000E+00 0.  1.
        -11    1    3    3    0    0 -0.58071469790E+02  0.47812605765E+02 -0.46288443359E+02  0.88323048307E+02  0.00000000000E+00 0.  1.
         11    1    3    3    0    0 -0.13425473778E+03 -0.26096320329E+02 -0.10712374239E+03  0.17372636165E+03  0.00000000000E+00 0. -1.
          2    1    1    2  501    0  0.73583370373E+02  0.20926755372E+03 -0.23307031314E+03  0.32175952559E+03  0.00000000000E+00 0. -1.
<scales pt_clust_5="13000.00000" pt_clust_6="13000.00000" pt_clust_7="13000.00000" pt_clust_8="13000.00000" pt_clust_9="243.31963"></scales>
<clustering>
<clus scale="   82.615">  5  6 -1 -1</clus>
<clus scale="   87.599">  7  8 -1 -1</clus>
<clus scale="  212.449">  2  7  1 -1</clus>
<clus scale="  243.320">  1  9  2 -1</clus>
<clus scale="  243.320">  1  5  2 -1</clus>
</clustering>
</event>
<event>
 9    1  0.9171696E-005  0.9820899E+02  0.7546771E-02  0.1288351E+00
         -4   -1    0    0    0  501 -0.00000000000E+00  0.00000000000E+00  0.22618629117E+03  0.22618629117E+03  0.00000000000E+00 0.  1.
         21   -1    0    0  501  502  0.00000000000E+00 -0.00000000000E+00 -0.19898461909E+03  0.19898461909E+03  0.00000000000E+00 0.  1.
        -24    2    1    2    0    0 -0.12418393358E+02  0.42055862113E+02  0.18761381154E+03  0.20913742945E+03  0.81342547823E+02 0.  0.
         23    2    1    2    0    0  0.24544141351E+02  0.62934615168E+01 -0.88356340922E+02  0.12841653633E+03  0.89676871534E+02 0.  0.
         13    1    3    3    0    0 -0.29936724905E+02 -0.10886949840E+02  0.38698289052E+02  0.50122756811E+02  0.00000000000E+00 0. -1.
        -14    1    3    3    0    0  0.17518331547E+02  0.52942811953E+02  0.14891552248E+03  0.15901467264E+03  0.00000000000E+00 0.  1.
        -13    1    4    4    0    0 -0.30599065303E+01 -0.32023646774E+02 -0.49213046885E+01  0.32543758549E+02  0.00000000000E+00 0. -1.
         13    1    4    4    0    0  0.27604047882E+02  0.38317108291E+02 -0.83435036234E+02  0.95872777776E+02  0.00000000000E+00 0.  1.
         -3    1    1    2    0  502 -0.12125747993E+02 -0.48349323630E+02 -0.72055798533E+02  0.87616944492E+02  0.00000000000E+00 0.  1.
<scales pt_clust_5="13000.00000" pt_clust_6="13000.00000" pt_clust_7="13000.00000" pt_clust_8="13000.00000" pt_clust_9="49.84667"></scales>
<clustering>
<clus scale="   49.847">  2  9  1 -1</clus>
<clus scale="   81.343">  5  6 -1 -1</clus>
<clus scale="   89.677">  7  8 -1 -1</clus>
<clus scale="   90.662">  1  5  2 -1</clus>
<clus scale="   49.847">  2  5  1 -1</clus>
</clustering>
</event>
<event>
 9    1  0.9171696E-005  0.1011523E+03  0.7546771E-02  0.1285164E+00
         21   -1    0    0  501  502  0.00000000000E+00  0.00000000000E+00  0.24755260241E+03  0.24755260241E+03  0.00000000000E+00 0. -1.
          1   -1    0    0  502    0 -0.00000000000E+00 -0.00000000000E+00 -0.10905443183E+03  0.10905443183E+03  0.00000000000E+00 0. -1.
        -24    2    1    2    0    0 -0.40032060201E+02  0.19957166921E+02 -0.28576957069E+02  0.95453252184E+02  0.79333640542E+02 0.  0.
         23    2    1    2    0    0  0.11421613361E+02  0.23492835444E+02  0.18260938350E+03  0.20686038025E+03  0.93609098951E+02 0.  0.
         13    1    3    3    0    0  0.24253008619E+02  0.29546694230E+01 -0.52934930654E+01  0.24999191333E+02  0.00000000000E+00 0. -1.
        -14    1    3    3    0    0 -0.64285068820E+02  0.17002497499E+02 -0.23283464004E+02  0.70454060851E+02  0.00000000000E+00 0.  1.
        -13    1    4    4    0    0  0.50345378186E+02  0.26992967537E+02  0.93692394640E+02  0.10973396108E+03  0.00000000000E+00 0. -1.
         13    1    4    4    0    0 -0.38923764825E+02 -0.35001320934E+01  0.88916988864E+02  0.97126419174E+02  0.00000000000E+00 0.  1.
          2    1    1    2  501    0  0.28610446840E+02 -0.43450002365E+02 -0.15534255858E+02  0.54293401800E+02  0.00000000000E+00 0. -1.
<scales pt_clust_5="13000.00000" pt_clust_6="13000.00000" pt_clust_7="13000.00000" pt_clust_8="13000.00000" pt_clust_9="52.02368"></scales>
<clustering>
<clus scale="   52.024">  1  9  2 -1</clus>
<clus scale="   79.334">  5  6 -1 -1</clus>
<clus scale="   88.108">  2  5  1 -1</clus>
<clus scale="   93.609">  7  8 -1 -1</clus>
<clus scale="   52.024">  1  5  2 -1</clus>
</clustering>
</event>
<event>
 9    1  0.9171696E-005  0.9364857E+02  0.7546771E-02  0.1301715E+00
         21   -1    0    0  501  502  0.00000000000E+00  0.00000000000E+00  0.14129527561E+03  0.14129527561E+03  0.00000000000E+00 0. -1.
         -2   -1    0    0    0  501 -0.00000000000E+00 -0.00000000000E+00 -0.14943034934E+03  0.14943034934E+03  0.00000000000E+00 0.  1.
        -24    2    1    2    0    0  0.81080845142E+01 -0.15679284134E+02 -0.10519599447E+03  0.13282417184E+03  0.79148483156E+02 0.  0.
         23    2    1    2    0    0 -0.23618783747E+02  0.29480201405E+02  0.94668076053E+02  0.13700234275E+03  0.91545988858E+02 0.  0.
         13    1    3    3    0    0 -0.64094624115E+01  0.30744794196E+02 -0.31173346455E+02  0.44250436244E+02  0.00000000000E+00 0. -1.
        -14    1    3    3    0    0  0.14517546926E+02 -0.46424078331E+02 -0.74022648015E+02  0.88573735592E+02  0.00000000000E+00 0.  1.
        -11    1    4    4    0    0 -0.46881096422E+02  0.15369947117E+02  0.13142662520E+02  0.51056851198E+02  0.00000000000E+00 0.  1.
         11    1    4    4    0    0  0.23262312675E+02  0.14110254288E+02  0.81525413534E+02  0.85945491557E+02  0.00000000000E+00 0. -1.
         -1    1    1    2    0  502  0.15510699233E+02 -0.13800917271E+02  0.23928446878E+01  0.20899110362E+02  0.00000000000E+00 0.  1.
<scales pt_clust_5="13000.00000" pt_clust_6="13000.00000" pt_clust_7="13000.00000" pt_clust_8="13000.00000" pt_clust_9="20.76167"></scales>
<clustering>
<clus scale="   20.762">  1  9  2 -1</clus>
<clus scale="   79.148">  5  6 -1 -1</clus>
<clus scale="   81.571">  2  5  1 -1</clus>
<clus scale="   91.546">  7  8 -1 -1</clus>
<clus scale="   20.762">  1  5  2 -1</clus>
</clustering>
</event>
<event>
 9    1  0.9171696E-005  0.1225623E+03  0.7546771E-02  0.1258510E+00
         21   -1    0    0  501  502  0.00000000000E+00  0.00000000000E+00  0.64472531681E+02  0.64472531681E+02  0.00000000000E+00 0.  1.
         -4   -1    0    0    0  501 -0.00000000000E+00 -0.00000000000E+00 -0.50064617093E+03  0.50064617093E+03  0.00000000000E+00 0.  1.
        -24    2    1    2    0    0 -0.19768699223E+02 -0.79535516727E+01 -0.16720186073E+03  0.18658640817E+03  0.80024777581E+02 0.  0.
         23    2    1    2    0    0 -0.74369532746E+02  0.19993898296E+02 -0.33137824744E+02  0.12431854498E+03  0.91795434676E+02 0.  0.
         11    1    3    3    0    0 -0.19730834396E+01 -0.42944875526E+02 -0.98226510379E+02  0.10722221194E+03  0.00000000000E+00 0. -1.
        -12    1    3    3    0    0 -0.17795615783E+02  0.34991323854E+02 -0.68975350353E+02  0.79364196225E+02  0.00000000000E+00 0.  1.
        -13    1    4    4    0    0  0.48057171569E+01  0.37638936565E+02 -0.17150808517E+02  0.41640541494E+02  0.00000000000E+00 0. -1.
         13    1    4    4    0    0 -0.79175249903E+02 -0.17645038269E+02 -0.15987016228E+02  0.82678003487E+02  0.00000000000E+00 0.  1.
         -3    1    1    2    0  502  0.94138231969E+02 -0.12040346623E+02 -0.23583395378E+03  0.25421374947E+03  0.00000000000E+00 0.  1.
<scales pt_clust_5="13000.00000" pt_clust_6="13000.00000" pt_clust_7="13000.00000" pt_clust_8="13000.00000" pt_clust_9="81.21037"></scales>
<clustering>
<clus scale="   80.025">  5  6 -1 -1</clus>
<clus scale="   82.813">  2  5  1 -1</clus>
<clus scale="   81.210">  1  9  2 -1</clus>
<clus scale="   91.795">  7  8 -1 -1</clus>
<clus scale="   81.210">  1  5  2 -1</clus>
</clustering>
</event>
<event>
 9    1  0.9171696E-005  0.1016234E+03  0.7546771E-02  0.1284581E+00
         21   -1    0    0  501  502  0.00000000000E+00  0.00000000000E+00  0.37905447840E+03  0.37905447840E+03  0.00000000000E+00 0.  1.
          1   -1    0    0  502    0 -0.00000000000E+00 -0.00000000000E+00 -0.99246629455E+02  0.99246629455E+02  0.00000000000E+00 0. -1.
        -24    2    1    2    0    0  0.18719248696E+02 -0.42773296698E+02 -0.64871787335E+02  0.10990207034E+03  0.75433090153E+02 0.  0.
         23    2    1    2    0    0 -0.27391780490E+02  0.19088627004E+02  0.20939009139E+03  0.23077840919E+03  0.91103119893E+02 0.  0.
         11    1    3    3    0    0  0.47449073295E+02 -0.32930415106E+02 -0.36375734178E+02  0.68257020390E+02  0.00000000000E+00 0. -1.
        -12    1    3    3    0    0 -0.28729824598E+02 -0.98428815923E+01 -0.28496053157E+02  0.41645049947E+02  0.00000000000E+00 0.  1.
        -13    1    4    4    0    0 -0.55377017757E+02  0.10443232103E+02  0.78389025918E+02  0.96542812145E+02  0.00000000000E+00 0. -1.
         13    1    4    4    0    0  0.27985237267E+02  0.86453949005E+01  0.13100106547E+03  0.13423559704E+03  0.00000000000E+00 0.  1.
          2    1    1    2  501    0  0.86725317936E+01  0.23684669695E+02  0.13528954489E+03  0.13762062834E+03  0.00000000000E+00 0. -1.
<scales pt_clust_5="13000.00000" pt_clust_6="13000.00000" pt_clust_7="13000.00000" pt_clust_8="13000.00000" pt_clust_9="25.22254"></scales>
<clustering>
<clus scale="   25.223">  1  9  2 -1</clus>
<clus scale="   75.433">  5  6 -1 -1</clus>
<clus scale="   87.850">  2  5  1 -1</clus>
<clus scale="   91.103">  7  8 -1 -1</clus>
<clus scale="   25.223">  1  5  2 -1</clus>
</clustering>
</event>
<event>
 9    1  0.9171696E-005  0.2007738E+03  0.7546771E-02  0.1184537E+00
          3   -1    0    0  502    0 -0.00000000000E+00  0.00000000000E+00  0.21577037861E+03  0.21577037861E+03  0.00000000000E+00 0. -1.
         21   -1    0    0  501  502  0.00000000000E+00 -0.00000000000E+00 -0.36144874363E+03  0.36144874363E+03  0.00000000000E+00 0.  1.
        -24    2    1    2    0    0  0.13843479423E+02  0.33560468194E+02  0.68983312022E+02  0.11246110012E+03  0.81060808994E+02 0.  0.
         23    2    1    2    0    0 -0.16922659436E+03 -0.81357101101E+02 -0.21848303662E+03  0.30214488208E+03  0.91104743771E+02 0.  0.
         13    1    3    3    0    0  0.16092510989E+02 -0.24960686695E+02  0.29293103524E+02  0.41714394450E+02  0.00000000000E+00 0. -1.
        -14    1    3    3    0    0 -0.22490315659E+01  0.58521154890E+02  0.39690208499E+02  0.70746705671E+02  0.00000000000E+00 0.  1.
        -13    1    4    4    0    0 -0.12744304396E+03 -0.70856345615E+02 -0.10200180809E+03  0.17795145412E+03  0.00000000000E+00 0.  1.
         13    1    4    4    0    0 -0.41783550399E+02 -0.10500755487E+02 -0.11648122853E+03  0.12419342796E+03  0.00000000000E+00 0. -1.
          4    1    1    2  501    0  0.15538311494E+03  0.47796632907E+02  0.38213595687E+01  0.16261314004E+03  0.00000000000E+00 0. -1.
<scales pt_clust_5="13000.00000" pt_clust_6="13000.00000" pt_clust_7="13000.00000" pt_clust_8="13000.00000" pt_clust_9="178.91356"></scales>
<clustering>
<clus scale="   81.061">  5  6 -1 -1</clus>
<clus scale="   88.819">  1  5  2 -1</clus>
<clus scale="   91.105">  7  8 -1 -1</clus>
<clus scale="  178.914">  2  9  1 -1</clus>
<clus scale="  178.914">  2  5  1 -1</clus>
</clustering>
</event>
<event>
 9    1  0.9171696E-005  0.1252088E+03  0.7546771E-02  0.1239969E+00
         21   -1    0    0  501  502  0.00000000000E+00  0.00000000000E+00  0.28954328333E+03  0.28954328333E+03  0.00000000000E+00 0. -1.
         -4   -1    0    0    0  501 -0.00000000000E+00 -0.00000000000E+00 -0.81604989818E+02  0.81604989818E+02  0.00000000000E+00 0.  1.
        -24    2    1    2    0    0 -0.59013241000E+01  0.72416972517E+02  0.69549387077E+02  0.12804899892E+03  0.79248882309E+02 0.  0.
         23    2    1    2    0    0  0.29926118523E+02 -0.90088456175E+02  0.15754042641E+03  0.20765561754E+03  0.96386550076E+02 0.  0.
         13    1    3    3    0    0 -0.29460203842E+02  0.66730968453E+02  0.73432131666E+02  0.10350460725E+03  0.00000000000E+00 0. -1.
        -14    1    3    3    0    0  0.23558879742E+02  0.56860040632E+01 -0.38827445888E+01  0.24544391670E+02  0.00000000000E+00 0.  1.
        -13    1    4    4    0    0  0.60659767862E+02 -0.84134142065E+02  0.11544408792E+03  0.15519503450E+03  0.00000000000E+00 0. -1.
         13    1    4    4    0    0 -0.30733649339E+02 -0.59543141096E+01  0.42096338496E+02  0.52460583041E+02  0.00000000000E+00 0.  1.
         -3    1    1    2    0  502 -0.24024794423E+02  0.17671483658E+02 -0.19151519980E+02  0.35443656686E+02  0.00000000000E+00 0.  1.
<scales pt_clust_5="13000.00000" pt_clust_6="13000.00000" pt_clust_7="13000.00000" pt_clust_8="13000.00000" pt_clust_9="29.82403"></scales>
<clustering>
<clus scale="   29.824">  1  9  2 -1</clus>
<clus scale="   79.249">  5  6 -1 -1</clus>
<clus scale="   96.387">  7  8 -1 -1</clus>
<clus scale="  112.549">  2  5  1 -1</clus>
<clus scale="   29.824">  1  5  2 -1</clus>
</clustering>
</event>
<event>
 9    1  0.9171696E-005  0.9780149E+02  0.7546771E-02  0.1291366E+00
         21   -1    0    0  501  502  0.00000000000E+00  0.00000000000E+00  0.10533580663E+03  0.10533580663E+03  0.00000000000E+00 0.  1.
         -4   -1    0    0    0  501 -0.00000000000E+00 -0.00000000000E+00 -0.23209874405E+03  0.23209874405E+03  0.00000000000E+00 0.  1.
        -24    2    1    2    0    0 -0.37792014905E+02  0.18891877879E+01 -0.93218871978E+02  0.12893765246E+03  0.80643379808E+02 0.  0.
         23    2    1    2    0    0 -0.34455713670E+00  0.61887753566E+02  0.24873511726E+02  0.11397436283E+03  0.92418888952E+02 0.  0.
         13    1    3    3    0    0 -0.38181299603E+01 -0.33820238764E+02 -0.16682891285E+02  0.37903898586E+02  0.00000000000E+00 0. -1.
        -14    1    3    3    0    0 -0.33973884945E+02  0.35709426552E+02 -0.76535980693E+02  0.91033753869E+02  0.00000000000E+00 0.  1.
        -13    1    4    4    0    0  0.21856251925E+02  0.30598733403E+02  0.54002116179E+02  0.65804306743E+02  0.00000000000E+00 0.  1.
         13    1    4    4    0    0 -0.22200809061E+02  0.31289020163E+02 -0.29128604453E+02  0.48170056084E+02  0.00000000000E+00 0. -1.
         -3    1    1    2    0  502  0.38136572042E+02 -0.63776941354E+02 -0.58417577171E+02  0.94522535398E+02  0.00000000000E+00 0.  1.
<scales pt_clust_5="13000.00000" pt_clust_6="13000.00000" pt_clust_7="13000.00000" pt_clust_8="13000.00000" pt_clust_9="74.30950"></scales>
<clustering>
<clus scale="   74.310">  1  9  2 -1</clus>
<clus scale="   80.643">  5  6 -1 -1</clus>
<clus scale="   86.760">  2  5  1 -1</clus>
<clus scale="   92.419">  7  8 -1 -1</clus>
<clus scale="   74.310">  1  5  2 -1</clus>
</clustering>
</event>
<event>
 9    1  0.9171696E-005  0.1008027E+03  0.7546771E-02  0.1300273E+00
         21   -1    0    0  501  502  0.00000000000E+00  0.00000000000E+00  0.29364130713E+03  0.29364130713E+03  0.00000000000E+00 0. -1.
         -4   -1    0    0    0  501 -0.00000000000E+00 -0.00000000000E+00 -0.64870074741E+02  0.64870074741E+02  0.00000000000E+00 0.  1.
         23    2    1    2    0    0  0.47585759408E+02 -0.59038817093E+01  0.14683844149E-01  0.10392676869E+03  0.92203648070E+02 0.  0.
        -24    2    1    2    0    0 -0.13243264822E+02 -0.78209025288E+01  0.20045301588E+03  0.20801352131E+03  0.53400963401E+02 0.  0.
         13    1    4    4    0    0  0.15717642356E+02 -0.17215688816E+02  0.11391398508E+03  0.11627476175E+03  0.00000000000E+00 0. -1.
        -14    1    4    4    0    0 -0.28960907178E+02  0.93947862874E+01  0.86539030799E+02  0.91738759559E+02  0.00000000000E+00 0.  1.
        -11    1    3    3    0    0  0.38723565960E+02  0.40869514010E+02  0.10225653787E+01  0.56310544093E+02  0.00000000000E+00 0.  1.
         11    1    3    3    0    0  0.88621934481E+01 -0.46773395719E+02 -0.10078815346E+01  0.47616224599E+02  0.00000000000E+00 0. -1.
         -3    1    1    2    0  502 -0.34342494586E+02  0.13724784238E+02  0.28303532662E+02  0.46571091870E+02  0.00000000000E+00 0.  1.
<scales pt_clust_5="13000.00000" pt_clust_6="13000.00000" pt_clust_7="13000.00000" pt_clust_8="13000.00000" pt_clust_9="36.98348"></scales>
<clustering>
<clus scale="   36.983">  1  9  2 -1</clus>
<clus scale="   53.401">  5  6 -1 -1</clus>
<clus scale="   67.166">  1  5  2 -1</clus>
<clus scale="   92.204">  7  8 -1 -1</clus>
<clus scale="   36.983">  1  5  2 -1</clus>
</clustering>
</event>
<event>
 9    1  0.9171696E-005  0.1036217E+03  0.7546771E-02  0.1276095E+00
         21   -1    0    0  501  502  0.00000000000E+00  0.00000000000E+00  0.65811306215E+03  0.65811306215E+03  0.00000000000E+00 0.  1.
         -2   -1    0    0    0  501 -0.00000000000E+00 -0.00000000000E+00 -0.42600787159E+02  0.42600787159E+02  0.00000000000E+00 0.  1.
        -24    2    1    2    0    0  0.17535464069E+02 -0.52751059277E+02  0.41344803769E+02  0.10777045072E+03  0.82552471161E+02 0.  0.
         23    2    1    2    0    0  0.26880313025E+02  0.38648407922E+02  0.39693583504E+03  0.40968756950E+03  0.89830934563E+02 0.  0.
         13    1    3    3    0    0  0.28412028071E+02  0.13398945860E+02  0.20720964596E+02  0.37631548773E+02  0.00000000000E+00 0. -1.
        -14    1    3    3    0    0 -0.10876564002E+02 -0.66150005137E+02  0.20623839173E+02  0.70138901947E+02  0.00000000000E+00 0.  1.
        -13    1    4    4    0    0 -0.15401225869E+02 -0.22287658673E+02  0.96312282959E+02  0.10004995420E+03  0.00000000000E+00 0. -1.
         13    1    4    4    0    0  0.42281538894E+02  0.60936066595E+02  0.30062355208E+03  0.30963761530E+03  0.00000000000E+00 0.  1.
         -1    1    1    2    0  502 -0.44415777094E+02  0.14102651355E+02  0.17723163618E+03  0.18325582909E+03  0.00000000000E+00 0.  1.
<scales pt_clust_5="13000.00000" pt_clust_6="13000.00000" pt_clust_7="13000.00000" pt_clust_8="13000.00000" pt_clust_9="46.60092"></scales>
<clustering>
<clus scale="   46.601">  1  9  2 -1</clus>
<clus scale="   82.552">  5  6 -1 -1</clus>
<clus scale="   89.831">  7  8 -1 -1</clus>
<clus scale="   97.380">  2  5  1 -1</clus>
<clus scale="   46.601">  1  5  2 -1</clus>
</clustering>
</event>
<event>
 9    1  0.9171696E-005  0.1508697E+03  0.7546771E-02  0.1227454E+00
         -2   -1    0    0    0  501 -0.00000000000E+00  0.00000000000E+00  0.76675135174E+03  0.76675135174E+03  0.00000000000E+00 0.  1.
         21   -1    0    0  501  502  0.00000000000E+00 -0.00000000000E+00 -0.47365432239E+02  0.47365432239E+02  0.00000000000E+00 0.  1.
        -24    2    1    2    0    0  0.29347150461E+01  0.47073227798E+00  0.31121260858E+03  0.32213498062E+03  0.83119335047E+02 0.  0.
         23    2    1    2    0    0  0.80564633179E+02  0.87567227652E+02  0.18708368008E+03  0.23978456228E+03  0.91310752255E+02 0.  0.
         11    1    3    3    0    0 -0.33828686431E+02  0.21184091024E+02  0.17702732837E+03  0.18147126695E+03  0.00000000000E+00 0. -1.
        -12    1    3    3    0    0  0.36763401478E+02 -0.20713358746E+02  0.13418528021E+03  0.14066371367E+03  0.00000000000E+00 0.  1.
        -11    1    4    4    0    0  0.42628751490E+02  0.85768838254E+02  0.17574520877E+03  0.20014965020E+03  0.00000000000E+00 0.  1.
         11    1    4    4    0    0  0.37935881689E+02  0.17983893987E+01  0.11338471308E+02  0.39634912079E+02  0.00000000000E+00 0. -1.
         -1    1    1    2    0  502 -0.83499348225E+02 -0.88037959930E+02  0.22108963083E+03  0.25219724107E+03  0.00000000000E+00 0.  1.
<scales pt_clust_5="13000.00000" pt_clust_6="13000.00000" pt_clust_7="13000.00000" pt_clust_8="13000.00000" pt_clust_9="120.10003"></scales>
<clustering>
<clus scale="   83.119">  5  6 -1 -1</clus>
<clus scale="   83.172">  1  5  2 -1</clus>
<clus scale="   91.311">  7  8 -1 -1</clus>
<clus scale="  120.100">  2  9  1 -1</clus>
<clus scale="  120.100">  2  5  1 -1</clus>
</clustering>
</event>
<event>
 9    1  0.9171696E-005  0.1594826E+03  0.7546771E-02  0.1214969E+00
         -2   -1    0    0    0  501 -0.00000000000E+00  0.00000000000E+00  0.15633234834E+04  0.15633234834E+04  0.00000000000E+00 0.  1.
         21   -1    0    0  501  502  0.00000000000E+00 -0.00000000000E+00 -0.24106152962E+02  0.24106152962E+02  0.00000000000E+00 0.  1.
        -24    2    1    2    0    0  0.26870419707E+02  0.60559215244E+01  0.32675686609E+03  0.33931759624E+03  0.87222061092E+02 0.  0.
         23    2    1    2    0    0 -0.11985211730E+03  0.72580147830E+02  0.55808240559E+03  0.58249963694E+03  0.90650139109E+02 0.  0.
         11    1    3    3    0    0  0.12081911783E+02  0.30466855622E+02  0.42689500346E+02  0.53820027161E+02  0.00000000000E+00 0. -1.
        -12    1    3    3    0    0  0.14788507923E+02 -0.24410934097E+02  0.28406736574E+03  0.28549756908E+03  0.00000000000E+00 0.  1.
        -13    1    4    4    0    0 -0.48091371830E+01  0.34756674605E+02  0.56529603147E+02  0.66533827952E+02  0.00000000000E+00 0. -1.
         13    1    4    4    0    0 -0.11504298012E+03  0.37823473225E+02  0.50155280245E+03  0.51596580899E+03  0.00000000000E+00 0.  1.
         -1    1    1    2    0  502  0.92981697595E+02 -0.78636069354E+02  0.65437805877E+03  0.66561240320E+03  0.00000000000E+00 0.  1.
<scales pt_clust_5="13000.00000" pt_clust_6="13000.00000" pt_clust_7="13000.00000" pt_clust_8="13000.00000" pt_clust_9="131.21462"></scales>
<clustering>
<clus scale="   87.222">  5  6 -1 -1</clus>
<clus scale="   90.650">  7  8 -1 -1</clus>
<clus scale="   91.468">  1  5  2 -1</clus>
<clus scale="  131.215">  2  9  1 -1</clus>
<clus scale="  131.215">  2  5  1 -1</clus>
</clustering>
</event>
<event>
 9    1  0.9171696E-005  0.9648537E+02  0.7546771E-02  0.1291841E+00
         21   -1    0    0  501  502  0.00000000000E+00  0.00000000000E+00  0.12407228681E+03  0.12407228681E+03  0.00000000000E+00 0.  1.
          1   -1    0    0  502    0 -0.00000000000E+00 -0.00000000000E+00 -0.33087574028E+03  0.33087574028E+03  0.00000000000E+00 0. -1.
        -24    2    1    2    0    0 -0.38167801040E+02  0.54227724593E+01 -0.28260180787E+03  0.29660043317E+03  0.81374735919E+02 0.  0.
         23    2    1    2    0    0  0.17669565886E+02 -0.10770201127E+02  0.93535353443E+02  0.13071837437E+03  0.88939419069E+02 0.  0.
         11    1    3    3    0    0 -0.44913086683E+02  0.36706331624E+02 -0.17799155910E+03  0.18720452785E+03  0.00000000000E+00 0. -1.
        -12    1    3    3    0    0  0.67452856427E+01 -0.31283559164E+02 -0.10461024876E+03  0.10939590531E+03  0.00000000000E+00 0.  1.
        -13    1    4    4    0    0  0.40398723550E+02  0.16566860787E+02  0.17987837077E+02  0.47223723101E+02  0.00000000000E+00 0.  1.
         13    1    4    4    0    0 -0.22729157664E+02 -0.27337061914E+02  0.75547516366E+02  0.83494651273E+02  0.00000000000E+00 0. -1.
          2    1    1    2  501    0  0.20498235155E+02  0.53474286674E+01 -0.17736999043E+02  0.27629219549E+02  0.00000000000E+00 0. -1.
<scales pt_clust_5="13000.00000" pt_clust_6="13000.00000" pt_clust_7="13000.00000" pt_clust_8="13000.00000" pt_clust_9="21.18427"></scales>
<clustering>
<clus scale="   21.184">  1  9  2 -1</clus>
<clus scale="   81.375">  5  6 -1 -1</clus>
<clus scale="   88.939">  7  8 -1 -1</clus>
<clus scale="   89.560">  2  5  1 -1</clus>
<clus scale="   21.184">  1  5  2 -1</clus>
</clustering>
</event>
<event>
 9    1  0.9333690E-005  0.1437948E+03  0.7546771E-02  0.1233960E+00
         -4   -1    0    0    0  501 -0.00000000000E+00  0.00000000000E+00  0.13785440724E+03  0.13785440724E+03  0.00000000000E+00 0.  1.
         21   -1    0    0  501  502  0.00000000000E+00 -0.00000000000E+00 -0.64376968266E+03  0.64376968266E+03  0.00000000000E+00 0.  1.
        -24    2    1    2    0    0 -0.21518598060E+01 -0.24981001348E+02  0.35113296368E+02  0.91044490976E+02  0.80171533765E+02 0.  0.
         23    2    1    2    0    0  0.96405453559E+02 -0.57856452661E+02 -0.54665207128E+03  0.56497144844E+03  0.87879860706E+02 0.  0.
         13    1    3    3    0    0 -0.26501637045E+02 -0.44761611177E+01 -0.15667945556E+02  0.31110405050E+02  0.00000000000E+00 0. -1.
        -14    1    3    3    0    0  0.24349777239E+02 -0.20504840231E+02  0.50781241924E+02  0.59934085926E+02  0.00000000000E+00 0.  1.
        -11    1    4    4    0    0  0.90194468778E+02 -0.33150699911E+02 -0.51710987646E+03  0.52596257988E+03  0.00000000000E+00 0.  1.
         11    1    4    4    0    0  0.62109847818E+01 -0.24705752750E+02 -0.29542194825E+02  0.39008868556E+02  0.00000000000E+00 0. -1.
         -3    1    1    2    0  502 -0.94253593753E+02  0.82837454009E+02  0.56234994941E+01  0.12560815049E+03  0.00000000000E+00 0.  1.
<scales pt_clust_5="13000.00000" pt_clust_6="13000.00000" pt_clust_7="13000.00000" pt_clust_8="13000.00000" pt_clust_9="113.81605"></scales>
<clustering>
<clus scale="   80.172">  5  6 -1 -1</clus>
<clus scale="   84.001">  1  5  2 -1</clus>
<clus scale="   87.880">  7  8 -1 -1</clus>
<clus scale="  113.816">  2  9  1 -1</clus>
<clus scale="  113.816">  2  5  1 -1</clus>
</clustering>
</event>
<event>
 9    1  0.9171696E-005  0.1401467E+03  0.7546771E-02  0.1213559E+00
         -2   -1    0    0    0  501 -0.00000000000E+00  0.00000000000E+00  0.41626409906E+03  0.41626409906E+03  0.00000000000E+00 0.  1.
         21   -1    0    0  501  502  0.00000000000E+00 -0.00000000000E+00 -0.16899284153E+03  0.16899284153E+03  0.00000000000E+00 0.  1.
         23    2    1    2    0    0 -0.85348013695E+02  0.61870889321E+02  0.34495930400E+03  0.37169256944E+03  0.89700358824E+02 0.  0.
        -24    2    1    2    0    0  0.10479917547E+03 -0.42953047393E+02 -0.42016346816E+02  0.15163238766E+03  0.91647019202E+02 0.  0.
         11    1    4    4    0    0  0.38563978562E+02 -0.60426659797E+02 -0.80181785726E+00  0.71688245680E+02  0.00000000000E+00 0. -1.
        -12    1    4    4    0    0  0.66235196904E+02  0.17473612405E+02 -0.41214528959E+02  0.79944141978E+02  0.00000000000E+00 0.  1.
        -13    1    3    3    0    0 -0.27428383412E+02 -0.16827639414E+01  0.16255157970E+02  0.31927700696E+02  0.00000000000E+00 0. -1.
         13    1    3    3    0    0 -0.57919630283E+02  0.63553653263E+02  0.32870414603E+03  0.33976486874E+03  0.00000000000E+00 0.  1.
         -1    1    1    2    0  502 -0.19451161771E+02 -0.18917841929E+02 -0.55671699649E+02  0.61931983492E+02  0.00000000000E+00 0.  1.
<scales pt_clust_5="13000.00000" pt_clust_6="13000.00000" pt_clust_7="13000.00000" pt_clust_8="13000.00000" pt_clust_9="27.13360"></scales>
<clustering>
<clus scale="   27.134">  2  9  1 -1</clus>
<clus scale="   89.700">  7  8 -1 -1</clus>
<clus scale="   91.647">  5  6 -1 -1</clus>
<clus scale="  138.882">  1  7  2 -1</clus>
<clus scale="   27.134">  2  5  1 -1</clus>
</clustering>
</event>
<event>
 9    1  0.9171696E-005  0.1377423E+03  0.7546771E-02  0.1236997E+00
          1   -1    0    0  502    0 -0.00000000000E+00  0.00000000000E+00  0.77503202940E+02  0.77503202940E+02  0.00000000000E+00 0. -1.
         21   -1    0    0  501  502  0.00000000000E+00 -0.00000000000E+00 -0.54805778547E+03  0.54805778547E+03  0.00000000000E+00 0. -1.
         23    2    1    2    0    0 -0.22446324750E+02  0.16185805685E+02 -0.16707131392E+03  0.18968057792E+03  0.85440505058E+02 0.  0.
        -24    2    1    2    0    0  0.54921903847E+02 -0.12008594153E+03 -0.53153142389E+02  0.16290591798E+03  0.79221415618E+02 0.  0.
         11    1    4    4    0    0 -0.25057258063E+01 -0.85909943373E+02 -0.19711403204E+02  0.88177868247E+02  0.00000000000E+00 0. -1.
        -12    1    4    4    0    0  0.57427629654E+02 -0.34175998157E+02 -0.33441739185E+02  0.74728049736E+02  0.00000000000E+00 0.  1.
        -11    1    3    3    0    0 -0.74170187933E+01  0.49316771139E+02 -0.12171887922E+03  0.13153950601E+03  0.00000000000E+00 0.  1.
         11    1    3    3    0    0 -0.15029305956E+02 -0.33130965454E+02 -0.45352434707E+02  0.58141071913E+02  0.00000000000E+00 0. -1.
          2    1    1    2  501    0 -0.32475579098E+02  0.10390013584E+03 -0.25033012622E+03  0.27297449251E+03  0.00000000000E+00 0. -1.
<scales pt_clust_5="13000.00000" pt_clust_6="13000.00000" pt_clust_7="13000.00000" pt_clust_8="13000.00000" pt_clust_9="112.68058"></scales>
<clustering>
<clus scale="   79.221">  5  6 -1 -1</clus>
<clus scale="   85.441">  7  8 -1 -1</clus>
<clus scale="   89.810">  1  7  2 -1</clus>
<clus scale="  112.681">  2  9  1 -1</clus>
<clus scale="  112.681">  2  5  1 -1</clus>
</clustering>
</event>
<event>
 9    1  0.9171696E-005  0.1216398E+03  0.7546771E-02  0.1245828E+00
          1   -1    0    0  502    0 -0.00000000000E+00  0.00000000000E+00  0.24133143823E+03  0.24133143823E+03  0.00000000000E+00 0. -1.
         21   -1    0    0  501  502  0.00000000000E+00 -0.00000000000E+00 -0.15922829194E+03  0.15922829194E+03  0.00000000000E+00 0.  1.
         23    2    1    2    0    0  0.12495551863E+02 -0.67455246131E+02  0.16653662969E+03  0.20411644131E+03  0.96035012045E+02 0.  0.
        -24    2    1    2    0    0 -0.25210134527E+02  0.97118685974E+02 -0.27382188073E+02  0.13089612588E+03  0.79475917723E+02 0.  0.
         11    1    4    4    0    0 -0.41002457933E+02  0.23311207198E+02  0.74809493933E+01  0.47755403269E+02  0.00000000000E+00 0. -1.
        -12    1    4    4    0    0  0.15792323406E+02  0.73807478776E+02 -0.34863137466E+02  0.83140722608E+02  0.00000000000E+00 0.  1.
        -13    1    3    3    0    0  0.17473025785E+01 -0.85017527811E+02  0.85817524742E+02  0.12081258483E+03  0.00000000000E+00 0.  1.
         13    1    3    3    0    0  0.10748249285E+02  0.17562281680E+02  0.80719104949E+02  0.83303856479E+02  0.00000000000E+00 0. -1.
          2    1    1    2  501    0  0.12714582664E+02 -0.29663439844E+02 -0.57051295328E+02  0.65547162977E+02  0.00000000000E+00 0. -1.
<scales pt_clust_5="13000.00000" pt_clust_6="13000.00000" pt_clust_7="13000.00000" pt_clust_8="13000.00000" pt_clust_9="32.27352"></scales>
<clustering>
<clus scale="   32.274">  2  9  1 -1</clus>
<clus scale="   79.476">  5  6 -1 -1</clus>
<clus scale="   96.035">  7  8 -1 -1</clus>
<clus scale="  109.041">  2  5  1 -1</clus>
<clus scale="   32.274">  2  5  1 -1</clus>
</clustering>
</event>
<event>
 9    1  0.9171696E-005  0.1995755E+03  0.7546771E-02  0.1151150E+00
         21   -1    0    0  501  502  0.00000000000E+00  0.00000000000E+00  0.12021097371E+03  0.12021097371E+03  0.00000000000E+00 0. -1.
          1   -1    0    0  502    0 -0.00000000000E+00 -0.00000000000E+00 -0.74360927007E+03  0.74360927007E+03  0.00000000000E+00 0. -1.
        -24    2    1    2    0    0  0.66741142946E+02 -0.17152182271E+03 -0.56054670457E+03  0.59538273028E+03  0.79961688819E+02 0.  0.
         23    2    1    2    0    0 -0.11558215484E+02  0.14787046069E+03  0.95103291449E+01  0.17441203818E+03  0.91267996651E+02 0.  0.
         13    1    3    3    0    0  0.42220954436E+02 -0.20197122400E+02 -0.15091120371E+03  0.15800229160E+03  0.00000000000E+00 0. -1.
        -14    1    3    3    0    0  0.24520188510E+02 -0.15132470031E+03 -0.40963550087E+03  0.43738043868E+03  0.00000000000E+00 0.  1.
        -11    1    4    4    0    0 -0.20923054685E+02 -0.34086347805E+01 -0.60537668499E+01  0.22046339866E+02  0.00000000000E+00 0.  1.
         11    1    4    4    0    0  0.93648392004E+01  0.15127909547E+03  0.15564095995E+02  0.15236569831E+03  0.00000000000E+00 0. -1.
          2    1    1    2  501    0 -0.55182927462E+02  0.23651362024E+02 -0.72361920929E+02  0.94025475321E+02  0.00000000000E+00 0. -1.
<scales pt_clust_5="13000.00000" pt_clust_6="13000.00000" pt_clust_7="13000.00000" pt_clust_8="13000.00000" pt_clust_9="60.03787"></scales>
<clustering>
<clus scale="   60.038">  1  9  2 -1</clus>
<clus scale="   79.962">  5  6 -1 -1</clus>
<clus scale="   91.268">  7  8 -1 -1</clus>
<clus scale="  194.665">  2  5  1 -1</clus>
<clus scale="   60.038">  1  5  2 -1</clus>
</clustering>
</event>
<event>
 9    1  0.9171696E-005  0.1032609E+03  0.7546771E-02  0.1278788E+00
          1   -1    0    0  502    0 -0.00000000000E+00  0.00000000000E+00  0.33901535635E+03  0.33901535635E+03  0.00000000000E+00 0. -1.
         21   -1    0    0  501  502  0.00000000000E+00 -0.00000000000E+00 -0.11164854428E+03  0.11164854428E+03  0.00000000000E+00 0.  1.
        -24    2    1    2    0    0  0.19150742593E+02  0.44671719051E+02  0.29458417746E+03  0.30928071524E+03  0.80699502999E+02 0.  0.
         23    2    1    2    0    0 -0.28686456852E+02 -0.22145473402E+02 -0.45745696667E+02  0.10883484984E+03  0.91864144135E+02 0.  0.
         11    1    3    3    0    0  0.33129830560E+02  0.54135868439E+02  0.27958460854E+03  0.28669815356E+03  0.00000000000E+00 0. -1.
        -12    1    3    3    0    0 -0.13979087967E+02 -0.94641493878E+01  0.14999568919E+02  0.22582561674E+02  0.00000000000E+00 0.  1.
        -13    1    4    4    0    0  0.28132164718E+02  0.11454407051E+02 -0.37667446339E+01  0.30607360189E+02  0.00000000000E+00 0. -1.
         13    1    4    4    0    0 -0.56818621570E+02 -0.33599880454E+02 -0.41978952033E+02  0.78227489653E+02  0.00000000000E+00 0.  1.
          2    1    1    2  501    0  0.95357142584E+01 -0.22526245649E+02 -0.21471668717E+02  0.32548335548E+02  0.00000000000E+00 0. -1.
<scales pt_clust_5="13000.00000" pt_clust_6="13000.00000" pt_clust_7="13000.00000" pt_clust_8="13000.00000" pt_clust_9="24.46143"></scales>
<clustering>
<clus scale="   24.461">  2  9  1 -1</clus>
<clus scale="   80.700">  5  6 -1 -1</clus>
<clus scale="   91.864">  7  8 -1 -1</clus>
<clus scale="   93.468">  1  5  2 -1</clus>
<clus scale="   24.461">  2  5  1 -1</clus>
</clustering>
</event>
<event>
 9    1  0.9171696E-005  0.1767175E+03  0.7546771E-02  0.1172253E+00
         21   -1    0    0  501  502  0.00000000000E+00  0.00000000000E+00  0.45347680438E+02  0.45347680438E+02  0.00000000000E+00 0. -1.
          3   -1    0    0  502    0 -0.00000000000E+00 -0.00000000000E+00 -0.10573473692E+04  0.10573473692E+04  0.00000000000E+00 0. -1.
        -24    2    1    2    0    0  0.13197146693E+03 -0.58912678801E+02 -0.58282063866E+03  0.60582332637E+03  0.80341982235E+02 0.  0.
         23    2    1    2    0    0 -0.15136033447E+03  0.83764394118E+02 -0.26175773230E+03  0.32650907011E+03  0.90358385743E+02 0.  0.
         13    1    3    3    0    0  0.96835881913E+02 -0.63771170338E+02 -0.31495955988E+03  0.33562400771E+03  0.00000000000E+00 0. -1.
        -14    1    3    3    0    0  0.35135585016E+02  0.48584915364E+01 -0.26786107878E+03  0.27019931865E+03  0.00000000000E+00 0.  1.
        -13    1    4    4    0    0 -0.51942770094E+02  0.21732677175E+02 -0.16564219901E+03  0.17495056078E+03  0.00000000000E+00 0.  1.
         13    1    4    4    0    0 -0.99417564373E+02  0.62031716943E+02 -0.96115533288E+02  0.15155850934E+03  0.00000000000E+00 0. -1.
          4    1    1    2  501    0  0.19388867538E+02 -0.24851715317E+02 -0.16742131776E+03  0.17036265313E+03  0.00000000000E+00 0. -1.
<scales pt_clust_5="13000.00000" pt_clust_6="13000.00000" pt_clust_7="13000.00000" pt_clust_8="13000.00000" pt_clust_9="31.52042"></scales>
<clustering>
<clus scale="   31.520">  1  9  2 -1</clus>
<clus scale="   80.342">  5  6 -1 -1</clus>
<clus scale="   90.358">  7  8 -1 -1</clus>
<clus scale="  171.812">  2  5  1 -1</clus>
<clus scale="   31.520">  1  5  2 -1</clus>
</clustering>
</event>
<event>
 9    1  0.9171696E-005  0.1235659E+03  0.7546771E-02  0.1264850E+00
         21   -1    0    0  501  502  0.00000000000E+00  0.00000000000E+00  0.10929660969E+03  0.10929660969E+03  0.00000000000E+00 0.  1.
          1   -1    0    0  502    0 -0.00000000000E+00 -0.00000000000E+00 -0.25775205640E+03  0.25775205640E+03  0.00000000000E+00 0. -1.
         23    2    1    2    0    0  0.49445399830E+01 -0.12889771676E+02 -0.58550351080E+02  0.92311974079E+02  0.70019727630E+02 0.  0.
        -24    2    1    2    0    0 -0.63923599476E+02 -0.70531580726E+02  0.21014468559E+02  0.12393615747E+03  0.76535173550E+02 0.  0.
         11    1    4    4    0    0  0.16706663458E+02 -0.19635059061E+02  0.11109927105E+02  0.28072738172E+02  0.00000000000E+00 0. -1.
        -12    1    4    4    0    0 -0.80630262934E+02 -0.50896521665E+02  0.99045414545E+01  0.95863419300E+02  0.00000000000E+00 0.  1.
        -11    1    3    3    0    0  0.64515695021E+01 -0.41325654993E+02 -0.26863242736E+02  0.49709821162E+02  0.00000000000E+00 0.  1.
         11    1    3    3    0    0 -0.15070295191E+01  0.28435883317E+02 -0.31687108344E+02  0.42602152917E+02  0.00000000000E+00 0. -1.
          2    1    1    2  501    0  0.58979059493E+02  0.83421352401E+02 -0.11091956420E+03  0.15080053454E+03  0.00000000000E+00 0. -1.
<scales pt_clust_5="13000.00000" pt_clust_6="13000.00000" pt_clust_7="13000.00000" pt_clust_8="13000.00000" pt_clust_9="97.00986"></scales>
<clustering>
<clus scale="   70.020">  7  8 -1 -1</clus>
<clus scale="   71.368">  2  7  1 -1</clus>
<clus scale="   76.535">  5  6 -1 -1</clus>
<clus scale="   97.010">  1  9  2 -1</clus>
<clus scale="   97.010">  1  5  2 -1</clus>
</clustering>
</event>
<event>
 9    1  0.9171696E-005  0.1436972E+03  0.7546771E-02  0.1210784E+00
         21   -1    0    0  501  502  0.00000000000E+00  0.00000000000E+00  0.12547527840E+03  0.12547527840E+03  0.00000000000E+00 0. -1.
          1   -1    0    0  502    0 -0.00000000000E+00 -0.00000000000E+00 -0.46735434104E+03  0.46735434104E+03  0.00000000000E+00 0. -1.
        -24    2    1    2    0    0 -0.81605949871E+02  0.81486386353E+02 -0.39324773128E+03  0.41739825438E+03  0.79233593790E+02 0.  0.
         23    2    1    2    0    0  0.53521900000E+02 -0.57436679587E+02  0.64399824214E+02  0.13622787965E+03  0.90813720841E+02 0.  0.
         11    1    3    3    0    0 -0.68903709655E+02  0.94156296122E+02 -0.28978505326E+03  0.31239159143E+03  0.00000000000E+00 0. -1.
        -12    1    3    3    0    0 -0.12702240216E+02 -0.12669909770E+02 -0.10346267802E+03  0.10500666294E+03  0.00000000000E+00 0.  1.
        -11    1    4    4    0    0  0.69192294169E+01 -0.55693632044E+02 -0.72608836370E+00  0.56126496330E+02  0.00000000000E+00 0.  1.
         11    1    4    4    0    0  0.46602670583E+02 -0.17430475422E+01  0.65125912578E+02  0.80101383317E+02  0.00000000000E+00 0. -1.
          2    1    1    2  501    0  0.28084049871E+02 -0.24049706766E+02 -0.13031155580E+02  0.39203485412E+02  0.00000000000E+00 0. -1.
<scales pt_clust_5="13000.00000" pt_clust_6="13000.00000" pt_clust_7="13000.00000" pt_clust_8="13000.00000" pt_clust_9="36.97435"></scales>
<clustering>
<clus scale="   36.974">  1  9  2 -1</clus>
<clus scale="   79.234">  5  6 -1 -1</clus>
<clus scale="   90.814">  7  8 -1 -1</clus>
<clus scale="  136.674">  2  5  1 -1</clus>
<clus scale="   36.974">  1  5  2 -1</clus>
</clustering>
</event>
<event>
 9    1  0.9171696E-005  0.2492227E+03  0.7546771E-02  0.1114216E+00
          1   -1    0    0  502    0 -0.00000000000E+00  0.00000000000E+00  0.13107464631E+04  0.13107464631E+04  0.00000000000E+00 0. -1.
         21   -1    0    0  501  502  0.00000000000E+00 -0.00000000000E+00 -0.69257464996E+02  0.69257464996E+02  0.00000000000E+00 0.  1.
        -24    2    1    2    0    0 -0.20128232973E+03 -0.58813805326E+02  0.47812042383E+03  0.52835676938E+03  0.81167087607E+02 0.  0.
         23    2    1    2    0    0  0.26312505967E+03  0.64284901425E+02  0.45370743156E+03  0.53582366458E+03  0.88821284013E+02 0.  0.
         13    1    3    3    0    0 -0.18875510045E+03 -0.31014170221E+02  0.37719888117E+03  0.42292950081E+03  0.00000000000E+00 0. -1.
        -14    1    3    3    0    0 -0.12527229277E+02 -0.27799635105E+02  0.10092154266E+03  0.10542726857E+03  0.00000000000E+00 0.  1.
        -11    1    4    4    0    0  0.18335955297E+03  0.83883778588E+02  0.34455970397E+03  0.39922249884E+03  0.00000000000E+00 0.  1.
         11    1    4    4    0    0  0.79765506697E+02 -0.19598877163E+02  0.10914772759E+03  0.13660116574E+03  0.00000000000E+00 0. -1.
          2    1    1    2  501    0 -0.61842729941E+02 -0.54710960983E+01  0.30966114272E+03  0.31582349414E+03  0.00000000000E+00 0. -1.
<scales pt_clust_5="13000.00000" pt_clust_6="13000.00000" pt_clust_7="13000.00000" pt_clust_8="13000.00000" pt_clust_9="62.08430"></scales>
<clustering>
<clus scale="   62.084">  2  9  1 -1</clus>
<clus scale="   81.167">  5  6 -1 -1</clus>
<clus scale="   88.821">  7  8 -1 -1</clus>
<clus scale="  246.599">  1  5  2 -1</clus>
<clus scale="   62.084">  2  5  1 -1</clus>
</clustering>
</event>
<event>
 9    1  0.9171696E-005  0.1094890E+03  0.7546771E-02  0.1266419E+00
          1   -1    0    0  502    0 -0.00000000000E+00  0.00000000000E+00  0.22844115828E+03  0.22844115828E+03  0.00000000000E+00 0. -1.
         21   -1    0    0  501  502  0.00000000000E+00 -0.00000000000E+00 -0.18998232831E+03  0.18998232831E+03  0.00000000000E+00 0. -1.
         23    2    1    2    0    0  0.18681043388E+02 -0.60535577886E+02  0.13055817701E+03  0.17192906458E+03  0.92198850809E+02 0.  0.
        -24    2    1    2    0    0  0.38247075917E+01  0.54846543411E+02  0.45277545000E+02  0.10717003648E+03  0.80078642127E+02 0.  0.
         13    1    4    4    0    0  0.23919775932E+02 -0.12395717180E+02  0.13383446917E+02  0.30081990234E+02  0.00000000000E+00 0. -1.
        -14    1    4    4    0    0 -0.20095068341E+02  0.67242260591E+02  0.31894098082E+02  0.77088046242E+02  0.00000000000E+00 0.  1.
        -11    1    3    3    0    0 -0.14214735240E+01  0.20477953340E+02  0.49501345871E+01  0.21115657518E+02  0.00000000000E+00 0.  1.
         11    1    3    3    0    0  0.20102516912E+02 -0.81013531226E+02  0.12560804242E+03  0.15081340706E+03  0.00000000000E+00 0. -1.
          2    1    1    2  501    0 -0.22505750979E+02  0.56890344757E+01 -0.13737689204E+03  0.13932438554E+03  0.00000000000E+00 0. -1.
<scales pt_clust_5="13000.00000" pt_clust_6="13000.00000" pt_clust_7="13000.00000" pt_clust_8="13000.00000" pt_clust_9="23.21366"></scales>
<clustering>
<clus scale="   23.214">  2  9  1 -1</clus>
<clus scale="   80.079">  5  6 -1 -1</clus>
<clus scale="   92.199">  7  8 -1 -1</clus>
<clus scale="   99.498">  2  5  1 -1</clus>
<clus scale="   23.214">  2  5  1 -1</clus>
</clustering>
</event>
<event>
 9    1  0.9171696E-005  0.1286556E+03  0.7546771E-02  0.1231495E+00
         21   -1    0    0  501  502  0.00000000000E+00  0.00000000000E+00  0.24905021638E+03  0.24905021638E+03  0.00000000000E+00 0. -1.
          1   -1    0    0  502    0 -0.00000000000E+00 -0.00000000000E+00 -0.31344810951E+03  0.31344810951E+03  0.00000000000E+00 0. -1.
         23    2    1    2    0    0  0.18151807243E+02 -0.83409075109E+02 -0.21708019048E+03  0.25022708448E+03  0.90571644515E+02 0.  0.
        -24    2    1    2    0    0 -0.34223226218E+02  0.10972584344E+03 -0.14326460249E+02  0.14243959561E+03  0.82902358240E+02 0.  0.
         13    1    4    4    0    0 -0.57591625644E+02  0.10065869663E+03 -0.17088933461E+02  0.11722201243E+03  0.00000000000E+00 0. -1.
        -14    1    4    4    0    0  0.23368399426E+02  0.90671468121E+01  0.27624732117E+01  0.25217583177E+02  0.00000000000E+00 0.  1.
        -11    1    3    3    0    0 -0.29484799171E+02 -0.14840282697E+02 -0.10756232281E+03  0.11251329104E+03  0.00000000000E+00 0. -1.
         11    1    3    3    0    0  0.47636606414E+02 -0.68568792412E+02 -0.10951786767E+03  0.13771379344E+03  0.00000000000E+00 0.  1.
          2    1    1    2  501    0  0.16071418975E+02 -0.26316768333E+02  0.16700875760E+03  0.16983164581E+03  0.00000000000E+00 0. -1.
<scales pt_clust_5="13000.00000" pt_clust_6="13000.00000" pt_clust_7="13000.00000" pt_clust_8="13000.00000" pt_clust_9="30.83606"></scales>
<clustering>
<clus scale="   30.836">  1  9  2 -1</clus>
<clus scale="   82.902">  5  6 -1 -1</clus>
<clus scale="   90.572">  7  8 -1 -1</clus>
<clus scale="  123.377">  1  5  2 -1</clus>
<clus scale="   30.836">  1  5  2 -1</clus>
</clustering>
</event>
<event>
 9    1  0.9171696E-005  0.1061766E+03  0.7546771E-02  0.1272345E+00
         -4   -1    0    0    0  501 -0.00000000000E+00  0.00000000000E+00  0.78734872076E+02  0.78734872076E+02  0.00000000000E+00 0.  1.
         21   -1    0    0  501  502  0.00000000000E+00 -0.00000000000E+00 -0.32201723559E+03  0.32201723559E+03  0.00000000000E+00 0. -1.
        -24    2    1    2    0    0 -0.34377234061E+02  0.15343694570E+02  0.95620814794E+01  0.10858268969E+03  0.10139794827E+03 0.  0.
         23    2    1    2    0    0 -0.82760400519E+01 -0.34094367701E+02 -0.15263092833E+03  0.18165408666E+03  0.92038514588E+02 0.  0.
         13    1    3    3    0    0 -0.11142627302E+02  0.24881654145E+02 -0.42664224394E+02  0.50630928288E+02  0.00000000000E+00 0. -1.
        -14    1    3    3    0    0 -0.23234606759E+02 -0.95379595752E+01  0.52226305873E+02  0.57951761399E+02  0.00000000000E+00 0.  1.
        -13    1    4    4    0    0  0.24838523720E+02 -0.46663097630E+02 -0.12807351856E+03  0.13855404396E+03  0.00000000000E+00 0. -1.
         13    1    4    4    0    0 -0.33114563772E+02  0.12568729929E+02 -0.24557409773E+02  0.43100042698E+02  0.00000000000E+00 0.  1.
         -3    1    1    2    0  502  0.42653274113E+02  0.18750673131E+02 -0.10021351666E+03  0.11051533132E+03  0.00000000000E+00 0.  1.
<scales pt_clust_5="13000.00000" pt_clust_6="13000.00000" pt_clust_7="13000.00000" pt_clust_8="13000.00000" pt_clust_9="46.59281"></scales>
<clustering>
<clus scale="   46.593">  2  9  1 -1</clus>
<clus scale="   92.039">  7  8 -1 -1</clus>
<clus scale="   97.278">  2  7  1 -1</clus>
<clus scale="  101.398">  5  6 -1 -1</clus>
<clus scale="   46.593">  2  5  1 -1</clus>
</clustering>
</event>
<event>
 9    1  0.9171696E-005  0.1706465E+03  0.7546771E-02  0.1197824E+00
         21   -1    0    0  501  502  0.00000000000E+00  0.00000000000E+00  0.15806580574E+03  0.15806580574E+03  0.00000000000E+00 0.  1.
         -4   -1    0    0    0  501 -0.00000000000E+00 -0.00000000000E+00 -0.36341143547E+03  0.36341143547E+03  0.00000000000E+00 0.  1.
         23    2    1    2    0    0 -0.31696624602E+02  0.50427717720E+02  0.15688162406E+02  0.10905319612E+03  0.89993613210E+02 0.  0.
        -24    2    1    2    0    0  0.52721471644E+02  0.10884786672E+03 -0.20251051957E+03  0.25070247071E+03  0.84934131093E+02 0.  0.
         13    1    4    4    0    0  0.21421150113E+02  0.21447681190E+01 -0.22569351625E+01  0.21646234287E+02  0.00000000000E+00 0. -1.
        -14    1    4    4    0    0  0.31300321531E+02  0.10670309860E+03 -0.20025358441E+03  0.22905623643E+03  0.00000000000E+00 0.  1.
        -11    1    3    3    0    0 -0.61589627905E+02  0.23076239048E+02  0.47218143509E+00  0.65772471669E+02  0.00000000000E+00 0.  1.
         11    1    3    3    0    0  0.29893003303E+02  0.27351478672E+02  0.15215980971E+02  0.43280724450E+02  0.00000000000E+00 0. -1.
         -3    1    1    2    0  502 -0.21024847042E+02 -0.15927558444E+03 -0.18523272577E+02  0.16172157438E+03  0.00000000000E+00 0.  1.
<scales pt_clust_5="13000.00000" pt_clust_6="13000.00000" pt_clust_7="13000.00000" pt_clust_8="13000.00000" pt_clust_9="148.00816"></scales>
<clustering>
<clus scale="   84.934">  5  6 -1 -1</clus>
<clus scale="   89.994">  7  8 -1 -1</clus>
<clus scale="  107.919">  2  7  1 -1</clus>
<clus scale="  148.008">  1  9  2 -1</clus>
<clus scale="  148.008">  1  5  2 -1</clus>
</clustering>
</event>
<event>
 9    1  0.9171696E-005  0.1815859E+03  0.7546771E-02  0.1166914E+00
         21   -1    0    0  501  502  0.00000000000E+00  0.00000000000E+00  0.53840341112E+02  0.53840341112E+02  0.00000000000E+00 0.  1.
         -4   -1    0    0    0  501 -0.00000000000E+00 -0.00000000000E+00 -0.12046594522E+04  0.12046594522E+04  0.00000000000E+00 0.  1.
         23    2    1    2    0    0 -0.17614312852E+03 -0.78463417853E+02 -0.61491488295E+03  0.65033953216E+03  0.87397277640E+02 0.  0.
        -24    2    1    2    0    0  0.13918294098E+03 -0.32896375605E+02 -0.36936690977E+03  0.40444050887E+03  0.81768873025E+02 0.  0.
         13    1    4    4    0    0  0.28536364933E+02  0.26574266774E+02 -0.80746716721E+02  0.89669103037E+02  0.00000000000E+00 0. -1.
        -14    1    4    4    0    0  0.11064657605E+03 -0.59470642380E+02 -0.28862019305E+03  0.31477140583E+03  0.00000000000E+00 0.  1.
        -13    1    3    3    0    0 -0.16467243374E+03 -0.37188542083E+02 -0.49613781426E+03  0.52407320943E+03  0.00000000000E+00 0.  1.
         13    1    3    3    0    0 -0.11470694779E+02 -0.41274875770E+02 -0.11877706869E+03  0.12626632273E+03  0.00000000000E+00 0. -1.
         -3    1    1    2    0  502  0.36960187544E+02  0.11135979346E+03 -0.16653731836E+03  0.20371975228E+03  0.00000000000E+00 0.  1.
<scales pt_clust_5="13000.00000" pt_clust_6="13000.00000" pt_clust_7="13000.00000" pt_clust_8="13000.00000" pt_clust_9="117.33311"></scales>
<clustering>
<clus scale="   81.769">  5  6 -1 -1</clus>
<clus scale="   87.397">  7  8 -1 -1</clus>
<clus scale="  117.333">  1  9  2 -1</clus>
<clus scale="  178.945">  1  5  2 -1</clus>
<clus scale="  117.333">  1  5  2 -1</clus>
</clustering>
</event>
<event>
 9    1  0.9171696E-005  0.1388772E+03  0.7546771E-02  0.1217309E+00
          1   -1    0    0  502    0 -0.00000000000E+00  0.00000000000E+00  0.34410159436E+03  0.34410159436E+03  0.00000000000E+00 0. -1.
         21   -1    0    0  501  502  0.00000000000E+00 -0.00000000000E+00 -0.10974573977E+03  0.10974573977E+03  0.00000000000E+00 0. -1.
         23    2    1    2    0    0  0.10997913625E+03  0.46114658972E+02  0.25018289253E+03  0.29197724402E+03  0.91854554220E+02 0.  0.
        -24    2    1    2    0    0 -0.52756213733E+02 -0.35739291654E+02 -0.11331128460E+02  0.10354064376E+03  0.80819276058E+02 0.  0.
         13    1    4    4    0    0 -0.18485454172E+01 -0.48513175751E+02  0.44017522978E+01  0.48747520603E+02  0.00000000000E+00 0. -1.
        -14    1    4    4    0    0 -0.50907668316E+02  0.12773884097E+02 -0.15732880758E+02  0.54793123156E+02  0.00000000000E+00 0.  1.
        -13    1    3    3    0    0 -0.83733690842E+01  0.21615317407E+02  0.15157783727E+02  0.27696455801E+02  0.00000000000E+00 0.  1.
         13    1    3    3    0    0  0.11835250534E+03  0.24499341565E+02  0.23502510880E+03  0.26428078822E+03  0.00000000000E+00 0. -1.
          2    1    1    2  501    0 -0.57222922522E+02 -0.10375367318E+02 -0.44959094721E+01  0.58329446345E+02  0.00000000000E+00 0. -1.
<scales pt_clust_5="13000.00000" pt_clust_6="13000.00000" pt_clust_7="13000.00000" pt_clust_8="13000.00000" pt_clust_9="58.15592"></scales>
<clustering>
<clus scale="   58.156">  2  9  1 -1</clus>
<clus scale="   80.819">  5  6 -1 -1</clus>
<clus scale="   91.855">  7  8 -1 -1</clus>
<clus scale="  131.838">  2  5  1 -1</clus>
<clus scale="   58.156">  2  5  1 -1</clus>
</clustering>
</event>
<event>
 9    1  0.9171696E-005  0.2221285E+03  0.7546771E-02  0.1133278E+00
         21   -1    0    0  501  502  0.00000000000E+00  0.00000000000E+00  0.22639979898E+03  0.22639979898E+03  0.00000000000E+00 0. -1.
          1   -1    0    0  502    0 -0.00000000000E+00 -0.00000000000E+00 -0.49585279929E+03  0.49585279929E+03  0.00000000000E+00 0. -1.
         23    2    1    2    0    0 -0.66128467773E+02 -0.19435273064E+03 -0.34657749874E+03  0.41355560501E+03  0.93628615518E+02 0.  0.
        -24    2    1    2    0    0 -0.16001244690E+01  0.19074346526E+03  0.10875438226E+03  0.23385957913E+03  0.80480787449E+02 0.  0.
         13    1    4    4    0    0  0.13257250644E+02  0.96768945118E+02  0.12413931540E+02  0.98458565550E+02  0.00000000000E+00 0. -1.
        -14    1    4    4    0    0 -0.14857375113E+02  0.93974520146E+02  0.96340450723E+02  0.13540101358E+03  0.00000000000E+00 0.  1.
        -13    1    3    3    0    0 -0.27882739078E+02 -0.33733665904E+01 -0.68662914314E+02  0.74185056060E+02  0.00000000000E+00 0.  1.
         13    1    3    3    0    0 -0.38245728696E+02 -0.19097936405E+03 -0.27791458442E+03  0.33937054895E+03  0.00000000000E+00 0. -1.
          2    1    1    2  501    0  0.67728592243E+02  0.36092653811E+01 -0.31629883837E+02  0.74837414141E+02  0.00000000000E+00 0. -1.
<scales pt_clust_5="13000.00000" pt_clust_6="13000.00000" pt_clust_7="13000.00000" pt_clust_8="13000.00000" pt_clust_9="67.82473"></scales>
<clustering>
<clus scale="   67.825">  1  9  2 -1</clus>
<clus scale="   80.481">  5  6 -1 -1</clus>
<clus scale="   93.629">  7  8 -1 -1</clus>
<clus scale="  216.915">  1  5  2 -1</clus>
<clus scale="   67.825">  1  5  2 -1</clus>
</clustering>
</event>
<event>
 9    1  0.9171696E-005  0.1108143E+03  0.7546771E-02  0.1262857E+00
         -4   -1    0    0    0  501 -0.00000000000E+00  0.00000000000E+00  0.38272722892E+03  0.38272722892E+03  0.00000000000E+00 0.  1.
         21   -1    0    0  501  502  0.00000000000E+00 -0.00000000000E+00 -0.11227686472E+03  0.11227686472E+03  0.00000000000E+00 0. -1.
         23    2    1    2    0    0 -0.30252932445E+02 -0.60932771864E+02  0.33309485118E+03  0.35175944383E+03  0.90302180678E+02 0.  0.
        -24    2    1    2    0    0  0.20917000013E+02  0.35820945598E+02 -0.19590005732E+02  0.92535165405E+02  0.80363719917E+02 0.  0.
         13    1    4    4    0    0 -0.26866662937E+02  0.13858458592E+02 -0.25586898249E+02  0.39605098332E+02  0.00000000000E+00 0. -1.
        -14    1    4    4    0    0  0.47783662950E+02  0.21962487006E+02  0.59968925174E+01  0.52930067072E+02  0.00000000000E+00 0.  1.
        -11    1    3    3    0    0 -0.34365741101E+02  0.94164922982E+01  0.60595603095E+02  0.70295814976E+02  0.00000000000E+00 0.  1.
         11    1    3    3    0    0  0.41128086563E+01 -0.70349264162E+02  0.27249924808E+03  0.28146362885E+03  0.00000000000E+00 0. -1.
         -3    1    1    2    0  502  0.93359324316E+01  0.25111826266E+02 -0.43054481251E+02  0.50709484405E+02  0.00000000000E+00 0.  1.
<scales pt_clust_5="13000.00000" pt_clust_6="13000.00000" pt_clust_7="13000.00000" pt_clust_8="13000.00000" pt_clust_9="26.79111"></scales>
<clustering>
<clus scale="   26.791">  2  9  1 -1</clus>
<clus scale="   80.364">  5  6 -1 -1</clus>
<clus scale="   90.302">  7  8 -1 -1</clus>
<clus scale="  102.877">  2  5  1 -1</clus>
<clus scale="   26.791">  2  5  1 -1</clus>
</clustering>
</event>
<event>
 9    1  0.9171696E-005  0.2613258E+03  0.7546771E-02  0.1106349E+00
         21   -1    0    0  501  502  0.00000000000E+00  0.00000000000E+00  0.97397051761E+02  0.97397051761E+02  0.00000000000E+00 0. -1.
          1   -1    0    0  502    0 -0.00000000000E+00 -0.00000000000E+00 -0.66419261827E+03  0.66419261827E+03  0.00000000000E+00 0. -1.
        -24    2    1    2    0    0  0.47355467371E+02 -0.68316504808E+02 -0.39755485587E+02  0.12370313554E+03  0.82536549410E+02 0.  0.
         23    2    1    2    0    0  0.95701754231E+02 -0.47807296196E+02 -0.99674340883E+02  0.17249252769E+03  0.91511390247E+02 0.  0.
         13    1    3    3    0    0  0.61203855863E+02 -0.21543978063E+02 -0.77153380707E+01  0.65342033982E+02  0.00000000000E+00 0. -1.
        -14    1    3    3    0    0 -0.13848388493E+02 -0.46772526745E+02 -0.32040147516E+02  0.58361101556E+02  0.00000000000E+00 0.  1.
        -11    1    4    4    0    0  0.46888518463E+02  0.89119383337E+01  0.15719404885E+00  0.47728194167E+02  0.00000000000E+00 0.  1.
         11    1    4    4    0    0  0.48813235768E+02 -0.56719234530E+02 -0.99831534932E+02  0.12476433352E+03  0.00000000000E+00 0. -1.
          2    1    1    2  501    0 -0.14305722160E+03  0.11612380100E+03 -0.42736574004E+03  0.46539400681E+03  0.00000000000E+00 0. -1.
<scales pt_clust_5="13000.00000" pt_clust_6="13000.00000" pt_clust_7="13000.00000" pt_clust_8="13000.00000" pt_clust_9="184.25564"></scales>
<clustering>
<clus scale="   82.537">  5  6 -1 -1</clus>
<clus scale="   91.511">  7  8 -1 -1</clus>
<clus scale="  107.178">  5  7 -1 -1</clus>
<clus scale="  184.256">  1  9  2 -1</clus>
<clus scale="  184.256">  1  5  2 -1</clus>
</clustering>
</event>
<event>
 9    1  0.9171696E-005  0.1295404E+03  0.7546771E-02  0.1243544E+00
         21   -1    0    0  501  502  0.00000000000E+00  0.00000000000E+00  0.19711349866E+03  0.19711349866E+03  0.00000000000E+00 0. -1.
          1   -1    0    0  502    0 -0.00000000000E+00 -0.00000000000E+00 -0.17442976498E+03  0.17442976498E+03  0.00000000000E+00 0. -1.
         23    2    1    2    0    0 -0.31211348313E+02  0.26371212182E+01  0.61567529985E+02  0.11281487126E+03  0.89193787663E+02 0.  0.
        -24    2    1    2    0    0 -0.75826819487E+02 -0.17910811315E+02 -0.85069997789E+02  0.14115449995E+03  0.81346079289E+02 0.  0.
         13    1    4    4    0    0 -0.52118461257E+02 -0.39249232191E+02 -0.87520559893E+02  0.10916356826E+03  0.00000000000E+00 0. -1.
        -14    1    4    4    0    0 -0.23708358231E+02  0.21338420876E+02  0.24505621046E+01  0.31990931686E+02  0.00000000000E+00 0.  1.
        -11    1    3    3    0    0 -0.30299566467E+02  0.42865626663E+02  0.45566323038E+02  0.69511261480E+02  0.00000000000E+00 0. -1.
         11    1    3    3    0    0 -0.91178184602E+00 -0.40228505445E+02  0.16001206947E+02  0.43303609783E+02  0.00000000000E+00 0.  1.
          2    1    1    2  501    0  0.10703816780E+03  0.15273690096E+02  0.46186201482E+02  0.11757389244E+03  0.00000000000E+00 0. -1.
<scales pt_clust_5="13000.00000" pt_clust_6="13000.00000" pt_clust_7="13000.00000" pt_clust_8="13000.00000" pt_clust_9="100.81429"></scales>
<clustering>
<clus scale="   81.346">  5  6 -1 -1</clus>
<clus scale="   89.194">  7  8 -1 -1</clus>
<clus scale="   94.534">  2  7  1 -1</clus>
<clus scale="  100.814">  1  9  2 -1</clus>
<clus scale="  100.814">  1  5  2 -1</clus>
</clustering>
</event>
<event>
 9    1  0.9171696E-005  0.1180249E+03  0.7546771E-02  0.1247400E+00
          1   -1    0    0  502    0 -0.00000000000E+00  0.00000000000E+00  0.35516160167E+03  0.35516160167E+03  0.00000000000E+00 0. -1.
         21   -1    0    0  501  502  0.00000000000E+00 -0.00000000000E+00 -0.14837368191E+03  0.14837368191E+03  0.00000000000E+00 0. -1.
         23    2    1    2    0    0 -0.51287078089E+02  0.56227096791E+02  0.13460697557E+03  0.17953770699E+03  0.91229926919E+02 0.  0.
        -24    2    1    2    0    0 -0.47715013701E+02 -0.11602431628E+03 -0.49003789264E+02  0.15647784266E+03  0.79659144981E+02 0.  0.
         11    1    4    4    0    0 -0.62006316772E+02 -0.58384083653E+02 -0.46511149850E+02  0.97040051546E+02  0.00000000000E+00 0. -1.
        -12    1    4    4    0    0  0.14291303071E+02 -0.57640232628E+02 -0.24926394146E+01  0.59437791111E+02  0.00000000000E+00 0.  1.
        -13    1    3    3    0    0  0.23684495434E+02  0.25587548723E+02  0.60137342682E+02  0.69513868821E+02  0.00000000000E+00 0.  1.
         13    1    3    3    0    0 -0.74971573523E+02  0.30639548068E+02  0.74469632887E+02  0.11002383817E+03  0.00000000000E+00 0. -1.
          2    1    1    2  501    0  0.99002091790E+02  0.59797219490E+02  0.12118473345E+03  0.16751973394E+03  0.00000000000E+00 0. -1.
<scales pt_clust_5="13000.00000" pt_clust_6="13000.00000" pt_clust_7="13000.00000" pt_clust_8="13000.00000" pt_clust_9="115.65957"></scales>
<clustering>
<clus scale="   79.659">  5  6 -1 -1</clus>
<clus scale="   91.230">  7  8 -1 -1</clus>
<clus scale="  115.660">  2  9  1 -1</clus>
<clus scale="  115.660">  2  5  1 -1</clus>
<clus scale="  115.660">  2  5  1 -1</clus>
</clustering>
</event>
<event>
 9    1  0.1018921E-004  0.1111440E+03  0.7546771E-02  0.1261810E+00
          3   -1    0    0  502    0 -0.00000000000E+00  0.00000000000E+00  0.11960136632E+04  0.11960136632E+04  0.00000000000E+00 0. -1.
         21   -1    0    0  501  502  0.00000000000E+00 -0.00000000000E+00 -0.44910343449E+02  0.44910343449E+02  0.00000000000E+00 0. -1.
        -24    2    1    2    0    0  0.49213885191E+02  0.41042457505E+02  0.60903619397E+03  0.61786454994E+03  0.82006260147E+02 0.  0.
         23    2    1    2    0    0  0.53838782389E+02 -0.19027195688E+02  0.49022614356E+02  0.11887951433E+03  0.92024309523E+02 0.  0.
         13    1    3    3    0    0  0.49635165149E+02  0.63004014318E+02  0.42309125537E+03  0.43062671284E+03  0.00000000000E+00 0. -1.
        -14    1    3    3    0    0 -0.42127995782E+00 -0.21961556813E+02  0.18594493860E+03  0.18723783711E+03  0.00000000000E+00 0.  1.
        -11    1    4    4    0    0  0.16570797433E+01  0.27461850694E+02  0.39805174757E+02  0.48387509693E+02  0.00000000000E+00 0.  1.
         11    1    4    4    0    0  0.52181702645E+02 -0.46489046382E+02  0.92174395993E+01  0.70492004633E+02  0.00000000000E+00 0. -1.
          4    1    1    2  501    0 -0.10305266758E+03 -0.22015261818E+02  0.49304451144E+03  0.50417994239E+03  0.00000000000E+00 0. -1.
<scales pt_clust_5="13000.00000" pt_clust_6="13000.00000" pt_clust_7="13000.00000" pt_clust_8="13000.00000" pt_clust_9="62.32585"></scales>
<clustering>
<clus scale="   82.006">  5  6 -1 -1</clus>
<clus scale="   92.024">  7  8 -1 -1</clus>
<clus scale="  104.075">  1  5  2 -1</clus>
<clus scale="   62.326">  2  9  1 -1</clus>
<clus scale="   62.326">  2  5  1 -1</clus>
</clustering>
</event>
<event>
 9    1  0.9171696E-005  0.2165322E+03  0.7546771E-02  0.1170637E+00
          1   -1    0    0  502    0 -0.00000000000E+00  0.00000000000E+00  0.67951952529E+02  0.67951952529E+02  0.00000000000E+00 0. -1.
         21   -1    0    0  501  502  0.00000000000E+00 -0.00000000000E+00 -0.14981956032E+04  0.14981956032E+04  0.00000000000E+00 0.  1.
         23    2    1    2    0    0  0.29179494419E+02 -0.13613427063E+02 -0.93200683468E+02  0.13444898144E+03  0.91396897761E+02 0.  0.
        -24    2    1    2    0    0 -0.39051298150E+02 -0.19534924085E+03 -0.10756910487E+04  0.10969334710E+04  0.80408194206E+02 0.  0.
         11    1    4    4    0    0 -0.20079902564E+02 -0.20777085879E+02 -0.65446214697E+02  0.71540875049E+02  0.00000000000E+00 0. -1.
        -12    1    4    4    0    0 -0.18971395585E+02 -0.17457215497E+03 -0.10102448340E+04  0.10253925960E+04  0.00000000000E+00 0.  1.
        -11    1    3    3    0    0  0.43703536748E+02 -0.42046712444E+02 -0.40818098831E+02  0.73102957148E+02  0.00000000000E+00 0.  1.
         11    1    3    3    0    0 -0.14524042328E+02  0.28433285381E+02 -0.52382584637E+02  0.61346024292E+02  0.00000000000E+00 0. -1.
          2    1    1    2  501    0  0.98718037300E+01  0.20896266791E+03 -0.26135191846E+03  0.33476510328E+03  0.00000000000E+00 0. -1.
<scales pt_clust_5="13000.00000" pt_clust_6="13000.00000" pt_clust_7="13000.00000" pt_clust_8="13000.00000" pt_clust_9="201.04915"></scales>
<clustering>
<clus scale="   80.408">  5  6 -1 -1</clus>
<clus scale="   91.397">  7  8 -1 -1</clus>
<clus scale="   96.903">  1  7  2 -1</clus>
<clus scale="  201.049">  2  9  1 -1</clus>
<clus scale="  201.049">  2  5  1 -1</clus>
</clustering>
</event>
<event>
 9    1  0.2093138E-004  0.1277526E+03  0.7546771E-02  0.1233488E+00
          1   -1    0    0  502    0 -0.00000000000E+00  0.00000000000E+00  0.78764669852E+03  0.78764669852E+03  0.00000000000E+00 0. -1.
         21   -1    0    0  501  502  0.00000000000E+00 -0.00000000000E+00 -0.41351694761E+03  0.41351694761E+03  0.00000000000E+00 0. -1.
         23    2    1    2    0    0  0.79639585494E+02 -0.38380743544E+02  0.18299807706E+03  0.22183083432E+03  0.88910504422E+02 0.  0.
        -24    2    1    2    0    0 -0.11743698131E+03  0.12000700799E+03 -0.36848194470E+03  0.41253576503E+03  0.78826945332E+02 0.  0.
         13    1    4    4    0    0 -0.12544943171E+03  0.90041428584E+02 -0.30305437304E+03  0.34012787565E+03  0.00000000000E+00 0. -1.
        -14    1    4    4    0    0  0.80124503945E+01  0.29965579406E+02 -0.65427571659E+02  0.72407889375E+02  0.00000000000E+00 0.  1.
        -11    1    3    3    0    0  0.68811215098E+01 -0.50897242929E+02  0.81203216677E+02  0.96082472750E+02  0.00000000000E+00 0.  1.
         11    1    3    3    0    0  0.72758463985E+02  0.12516499385E+02  0.10179486038E+03  0.12574836157E+03  0.00000000000E+00 0. -1.
          2    1    1    2  501    0  0.37797395818E+02 -0.81626264446E+02  0.55961361855E+03  0.56679704679E+03  0.00000000000E+00 0. -1.
<scales pt_clust_5="13000.00000" pt_clust_6="13000.00000" pt_clust_7="13000.00000" pt_clust_8="13000.00000" pt_clust_9="89.95276"></scales>
<clustering>
<clus scale="   78.827">  5  6 -1 -1</clus>
<clus scale="   88.911">  7  8 -1 -1</clus>
<clus scale="   89.953">  2  9  1 -1</clus>
<clus scale="  120.952">  2  5  1 -1</clus>
<clus scale="   89.953">  2  5  1 -1</clus>
</clustering>
</event>
<event>
 9    1  0.9171696E-005  0.1728592E+03  0.7546771E-02  0.1176780E+00
         21   -1    0    0  501  502  0.00000000000E+00  0.00000000000E+00  0.66360101996E+02  0.66360101996E+02  0.00000000000E+00 0.  1.
         -4   -1    0    0    0  501 -0.00000000000E+00 -0.00000000000E+00 -0.77506253122E+03  0.77506253122E+03  0.00000000000E+00 0.  1.
         23    2    1    2    0    0 -0.13005916113E+02  0.16194753572E+03 -0.31817111943E+03  0.36934458837E+03  0.93735828477E+02 0.  0.
        -24    2    1    2    0    0 -0.35066633645E+02 -0.12056622564E+03 -0.11132455618E+03  0.18575690673E+03  0.79665475780E+02 0.  0.
         13    1    4    4    0    0 -0.59112655708E+02 -0.66861181161E+02 -0.75254362954E+02  0.11673877999E+03  0.00000000000E+00 0. -1.
        -14    1    4    4    0    0  0.24046022063E+02 -0.53705044476E+02 -0.36070193222E+02  0.69018126737E+02  0.00000000000E+00 0.  1.
        -11    1    3    3    0    0  0.75987432689E+01  0.24193958648E+02 -0.14455084963E+03  0.14675842962E+03  0.00000000000E+00 0. -1.
         11    1    3    3    0    0 -0.20604659382E+02  0.13775357707E+03 -0.17362026980E+03  0.22258615875E+03  0.00000000000E+00 0.  1.
         -3    1    1    2    0  502  0.48072549758E+02 -0.41381310082E+02 -0.27920675362E+03  0.28632113812E+03  0.00000000000E+00 0.  1.
<scales pt_clust_5="13000.00000" pt_clust_6="13000.00000" pt_clust_7="13000.00000" pt_clust_8="13000.00000" pt_clust_9="63.43017"></scales>
<clustering>
<clus scale="   63.430">  1  9  2 -1</clus>
<clus scale="   79.665">  5  6 -1 -1</clus>
<clus scale="   93.736">  7  8 -1 -1</clus>
<clus scale="  165.652">  1  5  2 -1</clus>
<clus scale="   63.430">  1  5  2 -1</clus>
</clustering>
</event>
<event>
 9    1  0.9171696E-005  0.1083308E+03  0.7546771E-02  0.1268765E+00
         21   -1    0    0  501  502  0.00000000000E+00  0.00000000000E+00  0.17614823269E+02  0.17614823269E+02  0.00000000000E+00 0. -1.
          1   -1    0    0  502    0 -0.00000000000E+00 -0.00000000000E+00 -0.87330875246E+03  0.87330875246E+03  0.00000000000E+00 0. -1.
        -24    2    1    2    0    0  0.38818516125E+02  0.60695073695E+02 -0.46059802035E+03  0.47310276548E+03  0.80529008365E+02 0.  0.
         23    2    1    2    0    0 -0.19245159569E+02 -0.30255011779E+02 -0.30266213012E+03  0.31855491931E+03  0.92666766969E+02 0.  0.
         11    1    3    3    0    0  0.45538696749E+02  0.73605045735E+02 -0.43611045751E+03  0.44461647159E+03  0.00000000000E+00 0. -1.
        -12    1    3    3    0    0 -0.67201806241E+01 -0.12909972040E+02 -0.24487562841E+02  0.28486293890E+02  0.00000000000E+00 0.  1.
        -13    1    4    4    0    0  0.23717301463E+02 -0.47012411908E+02 -0.17854608434E+03  0.18614881545E+03  0.00000000000E+00 0.  1.
         13    1    4    4    0    0 -0.42962461031E+02  0.16757400129E+02 -0.12411604578E+03  0.13240610385E+03  0.00000000000E+00 0. -1.
          2    1    1    2  501    0 -0.19573356557E+02 -0.30440061916E+02 -0.92433778716E+02  0.99265890939E+02  0.00000000000E+00 0. -1.
<scales pt_clust_5="13000.00000" pt_clust_6="13000.00000" pt_clust_7="13000.00000" pt_clust_8="13000.00000" pt_clust_9="36.18997"></scales>
<clustering>
<clus scale="   36.190">  1  9  2 -1</clus>
<clus scale="   80.529">  5  6 -1 -1</clus>
<clus scale="   92.667">  7  8 -1 -1</clus>
<clus scale="   98.150">  2  5  1 -1</clus>
<clus scale="   36.190">  1  5  2 -1</clus>
</clustering>
</event>
<event>
 9    1  0.9171696E-005  0.1684626E+03  0.7546771E-02  0.1181484E+00
         21   -1    0    0  501  502  0.00000000000E+00  0.00000000000E+00  0.22164310890E+03  0.22164310890E+03  0.00000000000E+00 0.  1.
         -4   -1    0    0    0  501 -0.00000000000E+00 -0.00000000000E+00 -0.14180652376E+03  0.14180652376E+03  0.00000000000E+00 0.  1.
         23    2    1    2    0    0  0.13113016216E+03 -0.12018239229E+02  0.27172701635E+02  0.16221226484E+03  0.90746380903E+02 0.  0.
        -24    2    1    2    0    0 -0.15289028333E+03  0.17034794070E+02  0.42801860312E+02  0.17682572722E+03  0.75958644127E+02 0.  0.
         11    1    4    4    0    0 -0.22838816291E+02  0.19176611304E+02  0.35764122865E+02  0.46566365920E+02  0.00000000000E+00 0. -1.
        -12    1    4    4    0    0 -0.13005146704E+03 -0.21418172340E+01  0.70377374466E+01  0.13025936130E+03  0.00000000000E+00 0.  1.
        -11    1    3    3    0    0  0.36857083035E+02  0.14314942675E+02 -0.29295847317E+02  0.49209844784E+02  0.00000000000E+00 0. -1.
         11    1    3    3    0    0  0.94273079125E+02 -0.26333181904E+02  0.56468548952E+02  0.11300242005E+03  0.00000000000E+00 0.  1.
         -3    1    1    2    0  502  0.21760121167E+02 -0.50165548413E+01  0.98620231903E+01  0.24411640606E+02  0.00000000000E+00 0.  1.
<scales pt_clust_5="13000.00000" pt_clust_6="13000.00000" pt_clust_7="13000.00000" pt_clust_8="13000.00000" pt_clust_9="22.33089"></scales>
<clustering>
<clus scale="   22.331">  1  9  2 -1</clus>
<clus scale="   75.959">  5  6 -1 -1</clus>
<clus scale="   90.746">  7  8 -1 -1</clus>
<clus scale="  160.980">  1  5  2 -1</clus>
<clus scale="   22.331">  1  5  2 -1</clus>
</clustering>
</event>
<event>
 9    1  0.9171696E-005  0.1089687E+03  0.7546771E-02  0.1268531E+00
          1   -1    0    0  502    0 -0.00000000000E+00  0.00000000000E+00  0.47836436361E+03  0.47836436361E+03  0.00000000000E+00 0. -1.
         21   -1    0    0  501  502  0.00000000000E+00 -0.00000000000E+00 -0.10431852949E+03  0.10431852949E+03  0.00000000000E+00 0. -1.
         23    2    1    2    0    0  0.42727822510E+02 -0.73376530005E+02  0.34582622193E+03  0.36787980602E+03  0.92357966287E+02 0.  0.
        -24    2    1    2    0    0  0.21996717727E+02  0.25009990016E+02  0.81964100085E+02  0.11776155845E+03  0.77719468310E+02 0.  0.
         11    1    4    4    0    0  0.44810118119E+02 -0.37122313995E+01  0.60104803470E+02  0.75062072633E+02  0.00000000000E+00 0. -1.
        -12    1    4    4    0    0 -0.22813400392E+02  0.28722221416E+02  0.21859296614E+02  0.42699485816E+02  0.00000000000E+00 0.  1.
        -11    1    3    3    0    0  0.62471336236E+02 -0.82038990989E+02  0.26904438703E+03  0.28812835002E+03  0.00000000000E+00 0. -1.
         11    1    3    3    0    0 -0.19743513726E+02  0.86624609843E+01  0.76781834894E+02  0.79751456000E+02  0.00000000000E+00 0.  1.
          2    1    1    2  501    0 -0.64724540237E+02  0.48366539989E+02 -0.53744487893E+02  0.97041528627E+02  0.00000000000E+00 0. -1.
<scales pt_clust_5="13000.00000" pt_clust_6="13000.00000" pt_clust_7="13000.00000" pt_clust_8="13000.00000" pt_clust_9="80.79968"></scales>
<clustering>
<clus scale="   77.719">  5  6 -1 -1</clus>
<clus scale="   80.800">  2  9  1 -1</clus>
<clus scale="   92.358">  7  8 -1 -1</clus>
<clus scale="   96.874">  2  5  1 -1</clus>
<clus scale="   80.800">  2  5  1 -1</clus>
</clustering>
</event>
<event>
 9    1  0.9171696E-005  0.1087492E+03  0.7546771E-02  0.1263368E+00
         -4   -1    0    0    0  501 -0.00000000000E+00  0.00000000000E+00  0.76873467197E+02  0.76873467197E+02  0.00000000000E+00 0.  1.
         21   -1    0    0  501  502  0.00000000000E+00 -0.00000000000E+00 -0.51857263532E+03  0.51857263532E+03  0.00000000000E+00 0. -1.
        -24    2    1    2    0    0  0.16370369637E+01 -0.62306820407E+02  0.84454506190E+00  0.10999181000E+03  0.90623756550E+02 0.  0.
         23    2    1    2    0    0 -0.14483945145E+02  0.25415605955E+02 -0.43516278204E+03  0.44569900484E+03  0.91788988176E+02 0.  0.
         11    1    3    3    0    0  0.43058213832E+02 -0.19821137749E+02  0.13572447800E+02  0.49306172224E+02  0.00000000000E+00 0. -1.
        -12    1    3    3    0    0 -0.41421176868E+02 -0.42485682658E+02 -0.12727902738E+02  0.60685637775E+02  0.00000000000E+00 0.  1.
        -11    1    4    4    0    0 -0.38789581433E+02 -0.18639052322E+02 -0.14674093813E+03  0.15292138118E+03  0.00000000000E+00 0.  1.
         11    1    4    4    0    0  0.24305636288E+02  0.44054658277E+02 -0.28842184391E+03  0.29277762366E+03  0.00000000000E+00 0. -1.
         -3    1    1    2    0  502  0.12846908182E+02  0.36891214452E+02 -0.73809311414E+01  0.39755287674E+02  0.00000000000E+00 0.  1.
<scales pt_clust_5="13000.00000" pt_clust_6="13000.00000" pt_clust_7="13000.00000" pt_clust_8="13000.00000" pt_clust_9="39.06413"></scales>
<clustering>
<clus scale="   39.064">  2  9  1 -1</clus>
<clus scale="   90.624">  5  6 -1 -1</clus>
<clus scale="   91.789">  7  8 -1 -1</clus>
<clus scale="  107.768">  1  5  2 -1</clus>
<clus scale="   39.064">  2  5  1 -1</clus>
</clustering>
</event>
<event>
 9    1  0.9171696E-005  0.8709415E+02  0.7546771E-02  0.1312769E+00
          1   -1    0    0  502    0 -0.00000000000E+00  0.00000000000E+00  0.27713615597E+03  0.27713615597E+03  0.00000000000E+00 0. -1.
         21   -1    0    0  501  502  0.00000000000E+00 -0.00000000000E+00 -0.16952104804E+03  0.16952104804E+03  0.00000000000E+00 0.  1.
         23    2    1    2    0    0  0.17414866533E+02 -0.31476814372E+01  0.23563640068E+03  0.25128142767E+03  0.85467286672E+02 0.  0.
        -24    2    1    2    0    0 -0.46897319454E+00 -0.15037943394E+02 -0.14387923780E+03  0.16589095529E+03  0.81192452232E+02 0.  0.
         11    1    4    4    0    0  0.84661566766E+01 -0.45449277447E+02 -0.56885323425E+02  0.73302473700E+02  0.00000000000E+00 0. -1.
        -12    1    4    4    0    0 -0.89351298712E+01  0.30411334053E+02 -0.86993914375E+02  0.92588481589E+02  0.00000000000E+00 0.  1.
        -13    1    3    3    0    0  0.50044129044E+02  0.11705402268E+02  0.13531396617E+03  0.14474564150E+03  0.00000000000E+00 0. -1.
         13    1    3    3    0    0 -0.32629262511E+02 -0.14853083705E+02  0.10032243452E+03  0.10653578617E+03  0.00000000000E+00 0.  1.
          2    1    1    2  501    0 -0.16945893338E+02  0.18185624831E+02  0.15857945047E+02  0.29484821055E+02  0.00000000000E+00 0. -1.
<scales pt_clust_5="13000.00000" pt_clust_6="13000.00000" pt_clust_7="13000.00000" pt_clust_8="13000.00000" pt_clust_9="24.85721"></scales>
<clustering>
<clus scale="   24.857">  2  9  1 -1</clus>
<clus scale="   81.192">  5  6 -1 -1</clus>
<clus scale="   82.903">  2  5  1 -1</clus>
<clus scale="   85.467">  7  8 -1 -1</clus>
<clus scale="   24.857">  2  5  1 -1</clus>
</clustering>
</event>
<event>
 9    1  0.9171696E-005  0.1036879E+03  0.7546771E-02  0.1275447E+00
          3   -1    0    0  502    0 -0.00000000000E+00  0.00000000000E+00  0.43146354673E+03  0.43146354673E+03  0.00000000000E+00 0. -1.
         21   -1    0    0  501  502  0.00000000000E+00 -0.00000000000E+00 -0.54439214987E+02  0.54439214987E+02  0.00000000000E+00 0. -1.
         23    2    1    2    0    0 -0.32656415015E+02 -0.48611135870E+02  0.23537582477E+03  0.25796192038E+03  0.87824196592E+02 0.  0.
        -24    2    1    2    0    0  0.77917584309E+01  0.53506394142E+02  0.16607391875E+03  0.19274403124E+03  0.81523428396E+02 0.  0.
         11    1    4    4    0    0 -0.27733017391E+02  0.42119320589E+02  0.13527052657E+03  0.14436506772E+03  0.00000000000E+00 0. -1.
        -12    1    4    4    0    0  0.35524775822E+02  0.11387073552E+02  0.30803392177E+02  0.48378963516E+02  0.00000000000E+00 0.  1.
        -13    1    3    3    0    0  0.80317066718E+01 -0.48803044082E+02  0.59168360910E+02  0.77117704560E+02  0.00000000000E+00 0. -1.
         13    1    3    3    0    0 -0.40688121687E+02  0.19190821180E+00  0.17620746386E+03  0.18084421582E+03  0.00000000000E+00 0.  1.
          4    1    1    2  501    0  0.24864656584E+02 -0.48952582714E+01 -0.24425411775E+02  0.35196810097E+02  0.00000000000E+00 0. -1.
<scales pt_clust_5="13000.00000" pt_clust_6="13000.00000" pt_clust_7="13000.00000" pt_clust_8="13000.00000" pt_clust_9="25.34196"></scales>
<clustering>
<clus scale="   25.342">  2  9  1 -1</clus>
<clus scale="   81.523">  5  6 -1 -1</clus>
<clus scale="   87.824">  7  8 -1 -1</clus>
<clus scale="   98.408">  2  5  1 -1</clus>
<clus scale="   25.342">  2  5  1 -1</clus>
</clustering>
</event>
<event>
 9    1  0.9171696E-005  0.2100060E+03  0.7546771E-02  0.1158339E+00
          1   -1    0    0  502    0 -0.00000000000E+00  0.00000000000E+00  0.80903535225E+03  0.80903535225E+03  0.00000000000E+00 0. -1.
         21   -1    0    0  501  502  0.00000000000E+00 -0.00000000000E+00 -0.11810134035E+03  0.11810134035E+03  0.00000000000E+00 0. -1.
        -24    2    1    2    0    0  0.10869661956E+03  0.39261989915E+02  0.10888559707E+03  0.17823756723E+03  0.80969736115E+02 0.  0.
         23    2    1    2    0    0  0.10628819215E+03 -0.43680862908E+02  0.49634085294E+03  0.51741741580E+03  0.90340147752E+02 0.  0.
         11    1    3    3    0    0  0.10761038104E+03  0.14937110435E+02  0.10898842047E+03  0.15388822948E+03  0.00000000000E+00 0. -1.
        -12    1    3    3    0    0  0.10862385138E+01  0.24324879480E+02 -0.10282340534E+00  0.24349337742E+02  0.00000000000E+00 0.  1.
        -13    1    4    4    0    0  0.83834842470E+02  0.11255491064E+02  0.33478733086E+03  0.34530786813E+03  0.00000000000E+00 0.  1.
         13    1    4    4    0    0  0.22453349682E+02 -0.54936353972E+02  0.16155352209E+03  0.17210954767E+03  0.00000000000E+00 0. -1.
          2    1    1    2  501    0 -0.21498481171E+03  0.44188729932E+01  0.85707561892E+02  0.23148170958E+03  0.00000000000E+00 0. -1.
<scales pt_clust_5="13000.00000" pt_clust_6="13000.00000" pt_clust_7="13000.00000" pt_clust_8="13000.00000" pt_clust_9="189.58157"></scales>
<clustering>
<clus scale="   80.970">  5  6 -1 -1</clus>
<clus scale="   90.340">  7  8 -1 -1</clus>
<clus scale="  141.112">  1  5  2 -1</clus>
<clus scale="  189.582">  2  9  1 -1</clus>
<clus scale="  189.582">  2  5  1 -1</clus>
</clustering>
</event>
<event>
 9    1  0.9171696E-005  0.4705152E+03  0.7546771E-02  0.1076407E+00
          1   -1    0    0  502    0 -0.00000000000E+00  0.00000000000E+00  0.11990309992E+04  0.11990309992E+04  0.00000000000E+00 0. -1.
         21   -1    0    0  501  502  0.00000000000E+00 -0.00000000000E+00 -0.25942616443E+03  0.25942616443E+03  0.00000000000E+00 0. -1.
         23    2    1    2    0    0  0.31908027072E+02 -0.77579386723E+01  0.67857193385E+02  0.11970588747E+03  0.92987058227E+02 0.  0.
        -24    2    1    2    0    0 -0.36119098830E+03 -0.30022321620E+03  0.17228735486E+03  0.50657079529E+03  0.79612363502E+02 0.  0.
         11    1    4    4    0    0 -0.31460463961E+03 -0.29162573896E+03  0.15661420590E+03  0.45667237750E+03  0.00000000000E+00 0. -1.
        -12    1    4    4    0    0 -0.46586348690E+02 -0.85974772424E+01  0.15673148969E+02  0.49898417789E+02  0.00000000000E+00 0.  1.
        -11    1    3    3    0    0  0.96349295565E+01  0.28206869710E+02  0.71283228717E+02  0.77264209455E+02  0.00000000000E+00 0.  1.
         11    1    3    3    0    0  0.22273097515E+02 -0.35964808382E+02 -0.34260353324E+01  0.42441678018E+02  0.00000000000E+00 0. -1.
          2    1    1    2  501    0  0.32928296123E+03  0.30798115487E+03  0.69946028648E+03  0.83218048083E+03  0.00000000000E+00 0. -1.
<scales pt_clust_5="13000.00000" pt_clust_6="13000.00000" pt_clust_7="13000.00000" pt_clust_8="13000.00000" pt_clust_9="463.73124"></scales>
<clustering>
<clus scale="   79.612">  5  6 -1 -1</clus>
<clus scale="   92.987">  7  8 -1 -1</clus>
<clus scale="   98.615">  1  7  2 -1</clus>
<clus scale="  463.731">  2  9  1 -1</clus>
<clus scale="  463.731">  2  5  1 -1</clus>
</clustering>
</event>
<event>
 9    1  0.9171696E-005  0.1999213E+03  0.7546771E-02  0.1179175E+00
         21   -1    0    0  501  502  0.00000000000E+00  0.00000000000E+00  0.43149353909E+03  0.43149353909E+03  0.00000000000E+00 0.  1.
         -2   -1    0    0    0  501 -0.00000000000E+00 -0.00000000000E+00 -0.18416831012E+03  0.18416831012E+03  0.00000000000E+00 0.  1.
         23    2    1    2    0    0 -0.43453475290E+02  0.39485854721E+01  0.20158729383E+03  0.22567313202E+03  0.91581273431E+02 0.  0.
        -24    2    1    2    0    0 -0.26433315633E+02 -0.17831439764E+03  0.20393780267E+01  0.19712305437E+03  0.79740798357E+02 0.  0.
         11    1    4    4    0    0 -0.39817744735E+02 -0.58618533883E+02  0.23755820511E+02  0.74739041461E+02  0.00000000000E+00 0. -1.
        -12    1    4    4    0    0  0.13384429101E+02 -0.11969586376E+03 -0.21716442485E+02  0.12238401291E+03  0.00000000000E+00 0.  1.
        -13    1    3    3    0    0  0.46707048905E+01  0.36082079072E+02  0.40171785748E+02  0.54198747998E+02  0.00000000000E+00 0. -1.
         13    1    3    3    0    0 -0.48124180181E+02 -0.32133493600E+02  0.16141550808E+03  0.17147438403E+03  0.00000000000E+00 0.  1.
         -1    1    1    2    0  502  0.69886790924E+02  0.17436581217E+03  0.43698557107E+02  0.19286566281E+03  0.00000000000E+00 0.  1.
<scales pt_clust_5="13000.00000" pt_clust_6="13000.00000" pt_clust_7="13000.00000" pt_clust_8="13000.00000" pt_clust_9="183.33016"></scales>
<clustering>
<clus scale="   79.741">  5  6 -1 -1</clus>
<clus scale="   91.581">  7  8 -1 -1</clus>
<clus scale="  101.444">  2  7  1 -1</clus>
<clus scale="  183.330">  1  9  2 -1</clus>
<clus scale="  183.330">  1  5  2 -1</clus>
</clustering>
</event>
<event>
 9    1  0.9171696E-005  0.1321474E+03  0.7546771E-02  0.1235005E+00
         21   -1    0    0  501  502  0.00000000000E+00  0.00000000000E+00  0.65788338280E+02  0.65788338280E+02  0.00000000000E+00 0. -1.
          1   -1    0    0  502    0 -0.00000000000E+00 -0.00000000000E+00 -0.72371580097E+03  0.72371580097E+03  0.00000000000E+00 0. -1.
         23    2    1    2    0    0  0.47573259775E+02  0.17360549429E+02 -0.30457897536E+03  0.32247528944E+03  0.93044915757E+02 0.  0.
        -24    2    1    2    0    0  0.44686370528E+02 -0.77426957208E+02 -0.33457240034E+03  0.35534915528E+03  0.79639975351E+02 0.  0.
         13    1    4    4    0    0  0.52111402445E+02 -0.89086521327E+02 -0.31430516055E+03  0.33081677783E+03  0.00000000000E+00 0. -1.
        -14    1    4    4    0    0 -0.74250319170E+01  0.11659564119E+02 -0.20267239787E+02  0.24532377443E+02  0.00000000000E+00 0.  1.
        -13    1    3    3    0    0  0.73885601283E+02  0.27655689556E+01 -0.24191750802E+03  0.25296405107E+03  0.00000000000E+00 0. -1.
         13    1    3    3    0    0 -0.26312341508E+02  0.14594980473E+02 -0.62661467343E+02  0.69511238374E+02  0.00000000000E+00 0.  1.
          2    1    1    2  501    0 -0.92259630303E+02  0.60066407779E+02 -0.18776086990E+02  0.11167969453E+03  0.00000000000E+00 0. -1.
<scales pt_clust_5="13000.00000" pt_clust_6="13000.00000" pt_clust_7="13000.00000" pt_clust_8="13000.00000" pt_clust_9="105.45336"></scales>
<clustering>
<clus scale="   79.640">  5  6 -1 -1</clus>
<clus scale="   93.045">  7  8 -1 -1</clus>
<clus scale="  105.934">  2  7  1 -1</clus>
<clus scale="  105.453">  1  9  2 -1</clus>
<clus scale="  105.453">  1  5  2 -1</clus>
</clustering>
</event>
<event>
 9    1  0.9171696E-005  0.1162063E+03  0.7546771E-02  0.1252744E+00
          1   -1    0    0  502    0 -0.00000000000E+00  0.00000000000E+00  0.35467055700E+03  0.35467055700E+03  0.00000000000E+00 0. -1.
         21   -1    0    0  501  502  0.00000000000E+00 -0.00000000000E+00 -0.26234375927E+03  0.26234375927E+03  0.00000000000E+00 0.  1.
        -24    2    1    2    0    0 -0.43705395408E+02 -0.51757047148E+02  0.18844851670E+03  0.21635609738E+03  0.81903381549E+02 0.  0.
         23    2    1    2    0    0  0.13331669166E+03  0.67046863616E+02 -0.19791641459E+03  0.26418066410E+03  0.91388696903E+02 0.  0.
         11    1    3    3    0    0 -0.34077924862E+02  0.11941437015E+02  0.36635836524E+02  0.51440134124E+02  0.00000000000E+00 0. -1.
        -12    1    3    3    0    0 -0.96274705459E+01 -0.63698484163E+02  0.15181268018E+03  0.16491596326E+03  0.00000000000E+00 0.  1.
        -13    1    4    4    0    0  0.74800078585E+02 -0.11993263301E+02 -0.99426248860E+02  0.12499787632E+03  0.00000000000E+00 0. -1.
         13    1    4    4    0    0  0.58516613079E+02  0.79040126917E+02 -0.98490165733E+02  0.13918278778E+03  0.00000000000E+00 0.  1.
          2    1    1    2  501    0 -0.89611296256E+02 -0.15289816468E+02  0.10179469563E+03  0.13647755479E+03  0.00000000000E+00 0. -1.
<scales pt_clust_5="13000.00000" pt_clust_6="13000.00000" pt_clust_7="13000.00000" pt_clust_8="13000.00000" pt_clust_9="90.90639"></scales>
<clustering>
<clus scale="   81.903">  5  6 -1 -1</clus>
<clus scale="   90.906">  2  9  1 -1</clus>
<clus scale="   91.389">  7  8 -1 -1</clus>
<clus scale="  108.904">  1  5  2 -1</clus>
<clus scale="   90.906">  2  5  1 -1</clus>
</clustering>
</event>
<event>
 9    1  0.9171696E-005  0.2756656E+03  0.7546771E-02  0.1113369E+00
         21   -1    0    0  501  502  0.00000000000E+00  0.00000000000E+00  0.18655989762E+03  0.18655989762E+03  0.00000000000E+00 0. -1.
         -2   -1    0    0    0  501 -0.00000000000E+00 -0.00000000000E+00 -0.82310995468E+03  0.82310995468E+03  0.00000000000E+00 0.  1.
        -24    2    1    2    0    0 -0.99451183597E+02 -0.13519409496E+03 -0.72341225380E+02  0.19973107718E+03  0.80568412363E+02 0.  0.
         23    2    1    2    0    0  0.30640253541E+02  0.31029565763E+03 -0.15697179985E+03  0.36134374458E+03  0.93310961391E+02 0.  0.
         13    1    3    3    0    0 -0.46608829593E+02 -0.55534253554E+02  0.10474484549E+02  0.73254017913E+02  0.00000000000E+00 0. -1.
        -14    1    3    3    0    0 -0.52842354004E+02 -0.79659841403E+02 -0.82815709929E+02  0.12647705926E+03  0.00000000000E+00 0.  1.
        -13    1    4    4    0    0  0.61116887070E+02  0.16624350506E+03 -0.70855563295E+02  0.19076867591E+03  0.00000000000E+00 0.  1.
         13    1    4    4    0    0 -0.30476633529E+02  0.14405215257E+03 -0.86116236556E+02  0.17057506866E+03  0.00000000000E+00 0. -1.
         -1    1    1    2    0  502  0.68810930056E+02 -0.17510156267E+03 -0.40723703183E+03  0.44859503055E+03  0.00000000000E+00 0.  1.
<scales pt_clust_5="13000.00000" pt_clust_6="13000.00000" pt_clust_7="13000.00000" pt_clust_8="13000.00000" pt_clust_9="259.39289"></scales>
<clustering>
<clus scale="   80.568">  5  6 -1 -1</clus>
<clus scale="   93.311">  7  8 -1 -1</clus>
<clus scale="  186.170">  2  5  1 -1</clus>
<clus scale="  259.393">  1  9  2 -1</clus>
<clus scale="  259.393">  1  5  2 -1</clus>
</clustering>
</event>
<event>
 9    1  0.9171696E-005  0.1024446E+03  0.7546771E-02  0.1278431E+00
         21   -1    0    0  501  502  0.00000000000E+00  0.00000000000E+00  0.74476464156E+02  0.74476464156E+02  0.00000000000E+00 0. -1.
          3   -1    0    0  502    0 -0.00000000000E+00 -0.00000000000E+00 -0.39478841005E+03  0.39478841005E+03  0.00000000000E+00 0. -1.
         23    2    1    2    0    0  0.86279069452E+01 -0.51764744518E+02 -0.29612628521E+03  0.31359783339E+03  0.88875163911E+02 0.  0.
        -24    2    1    2    0    0  0.26144164705E+02  0.44076814350E+02  0.20341466360E+02  0.98650672292E+02  0.81804015663E+02 0.  0.
         13    1    4    4    0    0  0.54602948782E+02  0.31527259453E+02  0.31892632983E+01  0.63131778881E+02  0.00000000000E+00 0. -1.
        -14    1    4    4    0    0 -0.28458784077E+02  0.12549554897E+02  0.17152203062E+02  0.35518893411E+02  0.00000000000E+00 0.  1.
        -13    1    3    3    0    0  0.29128864120E+02  0.14791769027E+02 -0.11478549273E+03  0.11934402581E+03  0.00000000000E+00 0.  1.
         13    1    3    3    0    0 -0.20500957175E+02 -0.66556513545E+02 -0.18134079249E+03  0.19425380758E+03  0.00000000000E+00 0. -1.
          4    1    1    2  501    0 -0.34772071650E+02  0.76879301679E+01 -0.44527127045E+02  0.57016368527E+02  0.00000000000E+00 0. -1.
<scales pt_clust_5="13000.00000" pt_clust_6="13000.00000" pt_clust_7="13000.00000" pt_clust_8="13000.00000" pt_clust_9="35.61183"></scales>
<clustering>
<clus scale="   35.612">  1  9  2 -1</clus>
<clus scale="   81.804">  5  6 -1 -1</clus>
<clus scale="   88.875">  7  8 -1 -1</clus>
<clus scale="   96.374">  1  5  2 -1</clus>
<clus scale="   35.612">  1  5  2 -1</clus>
</clustering>
</event>
<event>
 9    1  0.9171696E-005  0.8833509E+02  0.7546771E-02  0.1311219E+00
         21   -1    0    0  501  502  0.00000000000E+00  0.00000000000E+00  0.19693035731E+03  0.19693035731E+03  0.00000000000E+00 0.  1.
         -2   -1    0    0    0  501 -0.00000000000E+00 -0.00000000000E+00 -0.19154157764E+03  0.19154157764E+03  0.00000000000E+00 0.  1.
         23    2    1    2    0    0 -0.21348841010E+02 -0.20896175353E+01 -0.15198872231E+03  0.17616075156E+03  0.86440147876E+02 0.  0.
        -24    2    1    2    0    0  0.24088039444E+01 -0.82136918636E+01  0.33957099266E+02  0.87021602845E+02  0.79664343973E+02 0.  0.
         13    1    4    4    0    0 -0.87401076330E+01  0.21758611245E+02 -0.15513025901E+02  0.28115487144E+02  0.00000000000E+00 0. -1.
        -14    1    4    4    0    0  0.11148911577E+02 -0.29972303109E+02  0.49470125166E+02  0.58906115701E+02  0.00000000000E+00 0.  1.
        -11    1    3    3    0    0  0.11188562178E+02 -0.38147027353E+02 -0.79814009204E+02  0.89166449322E+02  0.00000000000E+00 0. -1.
         11    1    3    3    0    0 -0.32537403188E+02  0.36057409818E+02 -0.72174713109E+02  0.86994302235E+02  0.00000000000E+00 0.  1.
         -1    1    1    2    0  502  0.18940037066E+02  0.10303309399E+02  0.12342040271E+03  0.12528958055E+03  0.00000000000E+00 0.  1.
<scales pt_clust_5="13000.00000" pt_clust_6="13000.00000" pt_clust_7="13000.00000" pt_clust_8="13000.00000" pt_clust_9="21.56115"></scales>
<clustering>
<clus scale="   21.561">  1  9  2 -1</clus>
<clus scale="   79.664">  5  6 -1 -1</clus>
<clus scale="   81.717">  1  5  2 -1</clus>
<clus scale="   86.440">  7  8 -1 -1</clus>
<clus scale="   21.561">  1  5  2 -1</clus>
</clustering>
</event>
<event>
 9    1  0.9171696E-005  0.8630575E+02  0.7546771E-02  0.1315793E+00
         21   -1    0    0  501  502  0.00000000000E+00  0.00000000000E+00  0.85882876485E+02  0.85882876485E+02  0.00000000000E+00 0. -1.
         -2   -1    0    0    0  501 -0.00000000000E+00 -0.00000000000E+00 -0.30124792348E+03  0.30124792348E+03  0.00000000000E+00 0.  1.
        -24    2    1    2    0    0  0.75647098151E+01 -0.37157266567E+02 -0.21487806230E+03  0.23266627641E+03  0.80765879116E+02 0.  0.
         23    2    1    2    0    0  0.40155516581E+02  0.69549688503E+01 -0.30623411125E+02  0.90452001405E+02  0.74719034694E+02 0.  0.
         11    1    3    3    0    0  0.24281240672E+02  0.11490667839E+02 -0.27853911902E+02  0.38696957299E+02  0.00000000000E+00 0. -1.
        -12    1    3    3    0    0 -0.16716530857E+02 -0.48647934406E+02 -0.18702415039E+03  0.19396931911E+03  0.00000000000E+00 0.  1.
        -13    1    4    4    0    0  0.17398502731E+02  0.40153794299E+02 -0.23175043351E+02  0.49518862348E+02  0.00000000000E+00 0.  1.
         13    1    4    4    0    0  0.22757013850E+02 -0.33198825449E+02 -0.74483677739E+01  0.40933139057E+02  0.00000000000E+00 0. -1.
         -1    1    1    2    0  502 -0.47720226396E+02  0.30202297717E+02  0.30136426424E+02  0.64012522152E+02  0.00000000000E+00 0.  1.
<scales pt_clust_5="13000.00000" pt_clust_6="13000.00000" pt_clust_7="13000.00000" pt_clust_8="13000.00000" pt_clust_9="56.47476"></scales>
<clustering>
<clus scale="   56.475">  1  9  2 -1</clus>
<clus scale="   74.719">  7  8 -1 -1</clus>
<clus scale="   80.675">  1  7  2 -1</clus>
<clus scale="   80.766">  5  6 -1 -1</clus>
<clus scale="   56.475">  1  5  2 -1</clus>
</clustering>
</event>
<event>
 9    1  0.9171696E-005  0.1656093E+03  0.7546771E-02  0.1198951E+00
         21   -1    0    0  501  502  0.00000000000E+00  0.00000000000E+00  0.12104075193E+03  0.12104075193E+03  0.00000000000E+00 0.  1.
         -2   -1    0    0    0  501 -0.00000000000E+00 -0.00000000000E+00 -0.59469630355E+03  0.59469630355E+03  0.00000000000E+00 0.  1.
        -24    2    1    2    0    0 -0.80261750925E+02 -0.11682554070E+01 -0.31042792814E+03  0.33111571530E+03  0.82636583108E+02 0.  0.
         23    2    1    2    0    0  0.28421923348E+02  0.13505513658E+03 -0.17454806066E+03  0.24060322683E+03  0.91516073116E+02 0.  0.
         11    1    3    3    0    0 -0.18956159309E+02 -0.25975201217E+02 -0.33642098485E+02  0.46538562983E+02  0.00000000000E+00 0. -1.
        -12    1    3    3    0    0 -0.61305591616E+02  0.24806945810E+02 -0.27678582965E+03  0.28457715232E+03  0.00000000000E+00 0.  1.
        -11    1    4    4    0    0 -0.12922536747E+02  0.53475176551E+02 -0.12503370471E+03  0.13660166096E+03  0.00000000000E+00 0.  1.
         11    1    4    4    0    0  0.41344460095E+02  0.81579960030E+02 -0.49514355948E+02  0.10400156587E+03  0.00000000000E+00 0. -1.
         -1    1    1    2    0  502  0.51839827577E+02 -0.13388688117E+03  0.11320437180E+02  0.14401811335E+03  0.00000000000E+00 0.  1.
<scales pt_clust_5="13000.00000" pt_clust_6="13000.00000" pt_clust_7="13000.00000" pt_clust_8="13000.00000" pt_clust_9="138.02628"></scales>
<clustering>
<clus scale="   82.637">  5  6 -1 -1</clus>
<clus scale="   91.516">  7  8 -1 -1</clus>
<clus scale="  115.205">  2  5  1 -1</clus>
<clus scale="  138.026">  1  9  2 -1</clus>
<clus scale="  138.026">  1  5  2 -1</clus>
</clustering>
</event>
<event>
 9    1  0.9171696E-005  0.1492516E+03  0.7546771E-02  0.1204201E+00
          1   -1    0    0  502    0 -0.00000000000E+00  0.00000000000E+00  0.11511308596E+04  0.11511308596E+04  0.00000000000E+00 0. -1.
         21   -1    0    0  501  502  0.00000000000E+00 -0.00000000000E+00 -0.58188235300E+02  0.58188235300E+02  0.00000000000E+00 0. -1.
         23    2    1    2    0    0 -0.37496227190E+02 -0.94473911456E+02  0.66268839947E+03  0.67707243155E+03  0.94550916297E+02 0.  0.
        -24    2    1    2    0    0  0.13229147341E+03  0.11110297942E+03  0.37678917485E+03  0.42215045009E+03  0.79975085225E+02 0.  0.
         13    1    4    4    0    0  0.13171780751E+03  0.81417161484E+02  0.34751872243E+03  0.38045709014E+03  0.00000000000E+00 0. -1.
        -14    1    4    4    0    0  0.57366590158E+00  0.29685817937E+02  0.29270452413E+02  0.41693359946E+02  0.00000000000E+00 0.  1.
        -13    1    3    3    0    0  0.31679011042E+02 -0.22954914925E+02  0.17109994391E+03  0.17551546561E+03  0.00000000000E+00 0.  1.
         13    1    3    3    0    0 -0.69175238232E+02 -0.71518996532E+02  0.49158845555E+03  0.50155696594E+03  0.00000000000E+00 0. -1.
          2    1    1    2  501    0 -0.94795246223E+02 -0.16629067964E+02  0.53465050016E+02  0.11009621329E+03  0.00000000000E+00 0. -1.
<scales pt_clust_5="13000.00000" pt_clust_6="13000.00000" pt_clust_7="13000.00000" pt_clust_8="13000.00000" pt_clust_9="96.24274"></scales>
<clustering>
<clus scale="   79.975">  5  6 -1 -1</clus>
<clus scale="   94.551">  7  8 -1 -1</clus>
<clus scale="   96.243">  2  9  1 -1</clus>
<clus scale="  140.471">  2  5  1 -1</clus>
<clus scale="   96.243">  2  5  1 -1</clus>
</clustering>
</event>
<event>
 9    1  0.9171696E-005  0.1417021E+03  0.7546771E-02  0.1228623E+00
          1   -1    0    0  502    0 -0.00000000000E+00  0.00000000000E+00  0.32405755399E+03  0.32405755399E+03  0.00000000000E+00 0. -1.
         21   -1    0    0  501  502  0.00000000000E+00 -0.00000000000E+00 -0.22088462247E+03  0.22088462247E+03  0.00000000000E+00 0. -1.
         23    2    1    2    0    0 -0.32486375339E+02  0.73615661241E+01  0.18534908245E+03  0.20965311063E+03  0.92144382320E+02 0.  0.
        -24    2    1    2    0    0 -0.18889229875E+02  0.86007500190E+02  0.70967663879E+02  0.14871397809E+03  0.96567825226E+02 0.  0.
         11    1    4    4    0    0  0.21619854754E+01  0.47377279678E+02 -0.16981620050E+02  0.50375154892E+02  0.00000000000E+00 0. -1.
        -12    1    4    4    0    0 -0.21051215350E+02  0.38630220512E+02  0.87949283929E+02  0.98338823199E+02  0.00000000000E+00 0.  1.
        -11    1    3    3    0    0 -0.19791417598E+02 -0.41954173019E+02  0.76200492096E+02  0.89209684676E+02  0.00000000000E+00 0.  1.
         11    1    3    3    0    0 -0.12694957742E+02  0.49315739143E+02  0.10914859035E+03  0.12044342595E+03  0.00000000000E+00 0. -1.
          2    1    1    2  501    0  0.51375605214E+02 -0.93369066314E+02 -0.15314381481E+03  0.18657508775E+03  0.00000000000E+00 0. -1.
<scales pt_clust_5="13000.00000" pt_clust_6="13000.00000" pt_clust_7="13000.00000" pt_clust_8="13000.00000" pt_clust_9="103.70215"></scales>
<clustering>
<clus scale="   92.144">  7  8 -1 -1</clus>
<clus scale="   96.568">  5  6 -1 -1</clus>
<clus scale="   97.980">  1  7  2 -1</clus>
<clus scale="  103.702">  2  9  1 -1</clus>
<clus scale="  103.702">  2  5  1 -1</clus>
</clustering>
</event>
<event>
 9    1  0.9171696E-005  0.1004836E+03  0.7546771E-02  0.1284211E+00
         21   -1    0    0  501  502  0.00000000000E+00  0.00000000000E+00  0.22753369378E+03  0.22753369378E+03  0.00000000000E+00 0. -1.
         -2   -1    0    0    0  501 -0.00000000000E+00 -0.00000000000E+00 -0.11510863167E+03  0.11510863167E+03  0.00000000000E+00 0.  1.
         23    2    1    2    0    0  0.46669855992E+02  0.37541730577E+00  0.37337658980E+02  0.10873516337E+03  0.90835117535E+02 0.  0.
        -24    2    1    2    0    0 -0.22540429290E+02  0.56885521792E+02  0.12012074072E+03  0.15716704302E+03  0.80798846027E+02 0.  0.
         13    1    4    4    0    0 -0.27323712996E+02  0.70895360737E+02  0.12039031877E+03  0.14236069092E+03  0.00000000000E+00 0. -1.
        -14    1    4    4    0    0  0.47832837057E+01 -0.14009838945E+02 -0.26957804920E+00  0.14806352103E+02  0.00000000000E+00 0.  1.
        -11    1    3    3    0    0  0.50411015973E+02  0.38686246351E+02  0.25408611640E+02  0.68436055801E+02  0.00000000000E+00 0.  1.
         11    1    3    3    0    0 -0.37411599805E+01 -0.38310829045E+02  0.11929047340E+02  0.40299107565E+02  0.00000000000E+00 0. -1.
         -1    1    1    2    0  502 -0.24129426702E+02 -0.57260939098E+02 -0.45033337585E+02  0.76740119060E+02  0.00000000000E+00 0.  1.
<scales pt_clust_5="13000.00000" pt_clust_6="13000.00000" pt_clust_7="13000.00000" pt_clust_8="13000.00000" pt_clust_9="62.13733"></scales>
<clustering>
<clus scale="   62.137">  1  9  2 -1</clus>
<clus scale="   80.799">  5  6 -1 -1</clus>
<clus scale="   90.835">  7  8 -1 -1</clus>
<clus scale="   91.512">  1  5  2 -1</clus>
<clus scale="   62.137">  1  5  2 -1</clus>
</clustering>
</event>
<event>
 9    1  0.9171696E-005  0.1174729E+03  0.7546771E-02  0.1250566E+00
          3   -1    0    0  502    0 -0.00000000000E+00  0.00000000000E+00  0.93311428794E+02  0.93311428794E+02  0.00000000000E+00 0. -1.
         21   -1    0    0  501  502  0.00000000000E+00 -0.00000000000E+00 -0.69462298525E+03  0.69462298525E+03  0.00000000000E+00 0.  1.
         23    2    1    2    0    0 -0.35876289047E+02  0.67746497073E+02  0.42141054097E+02  0.12591102453E+03  0.90559492467E+02 0.  0.
        -24    2    1    2    0    0 -0.12565126161E+02 -0.68867314564E+02 -0.42097862536E+03  0.43433390572E+03  0.80761062681E+02 0.  0.
         11    1    4    4    0    0 -0.33242578976E+02 -0.28701928983E+02 -0.88480614661E+02  0.98781015155E+02  0.00000000000E+00 0. -1.
        -12    1    4    4    0    0  0.20677452815E+02 -0.40165385581E+02 -0.33249801069E+03  0.33555289057E+03  0.00000000000E+00 0.  1.
        -13    1    3    3    0    0 -0.41207136982E+02  0.49953263415E+01  0.47049754497E+02  0.62742814901E+02  0.00000000000E+00 0. -1.
         13    1    3    3    0    0  0.53308479348E+01  0.62751170732E+02 -0.49087003997E+01  0.63168209627E+02  0.00000000000E+00 0.  1.
          4    1    1    2  501    0  0.48441415208E+02  0.11208174911E+01 -0.22247398520E+03  0.22768948380E+03  0.00000000000E+00 0. -1.
<scales pt_clust_5="13000.00000" pt_clust_6="13000.00000" pt_clust_7="13000.00000" pt_clust_8="13000.00000" pt_clust_9="48.45438"></scales>
<clustering>
<clus scale="   48.454">  2  9  1 -1</clus>
<clus scale="   80.761">  5  6 -1 -1</clus>
<clus scale="   90.559">  7  8 -1 -1</clus>
<clus scale="  110.096">  2  5  1 -1</clus>
<clus scale="   48.454">  2  5  1 -1</clus>
</clustering>
</event>
<event>
 9    1  0.9171696E-005  0.9267841E+02  0.7546771E-02  0.1297037E+00
         21   -1    0    0  501  502  0.00000000000E+00  0.00000000000E+00  0.51239056885E+02  0.51239056885E+02  0.00000000000E+00 0.  1.
         -4   -1    0    0    0  501 -0.00000000000E+00 -0.00000000000E+00 -0.35248388559E+03  0.35248388559E+03  0.00000000000E+00 0.  1.
        -24    2    1    2    0    0  0.58047308889E+01  0.31403798705E+02 -0.18394905947E+03  0.20369422751E+03  0.81450527119E+02 0.  0.
         23    2    1    2    0    0 -0.31190179410E+02 -0.70526685635E+02 -0.66424899053E+02  0.13101518940E+03  0.82497708816E+02 0.  0.
         11    1    3    3    0    0 -0.32167988908E+02  0.11404909918E+02 -0.13184447355E+03  0.13619036928E+03  0.00000000000E+00 0. -1.
        -12    1    3    3    0    0  0.37972719797E+02  0.19998888787E+02 -0.52104585919E+02  0.67503858225E+02  0.00000000000E+00 0.  1.
        -11    1    4    4    0    0  0.23082497149E+02 -0.19601257569E+01 -0.38434544108E+01  0.23482246686E+02  0.00000000000E+00 0. -1.
         11    1    4    4    0    0 -0.54272676559E+02 -0.68566559878E+02 -0.62581444643E+02  0.10753294271E+03  0.00000000000E+00 0.  1.
         -3    1    1    2    0  502  0.25385448521E+02  0.39122886930E+02 -0.50870870188E+02  0.69013525573E+02  0.00000000000E+00 0.  1.
<scales pt_clust_5="13000.00000" pt_clust_6="13000.00000" pt_clust_7="13000.00000" pt_clust_8="13000.00000" pt_clust_9="46.63712"></scales>
<clustering>
<clus scale="   46.637">  1  9  2 -1</clus>
<clus scale="   81.451">  5  6 -1 -1</clus>
<clus scale="   82.498">  7  8 -1 -1</clus>
<clus scale="   91.748">  2  5  1 -1</clus>
<clus scale="   46.637">  1  5  2 -1</clus>
</clustering>
</event>
<event>
 9    1  0.9171696E-005  0.1020864E+03  0.7546771E-02  0.1278785E+00
         21   -1    0    0  501  502  0.00000000000E+00  0.00000000000E+00  0.16386683840E+03  0.16386683840E+03  0.00000000000E+00 0. -1.
         -2   -1    0    0    0  501 -0.00000000000E+00 -0.00000000000E+00 -0.14046072319E+03  0.14046072319E+03  0.00000000000E+00 0.  1.
         23    2    1    2    0    0 -0.11824444189E+02  0.35224786473E+02 -0.14550605168E+02  0.96301274946E+02  0.87644808078E+02 0.  0.
        -24    2    1    2    0    0  0.23265294265E+02 -0.89455362926E+02  0.72333257164E+02  0.14280669792E+03  0.81351810093E+02 0.  0.
         11    1    4    4    0    0  0.38000554587E+02 -0.39987469111E+02  0.72612569357E+02  0.91190049147E+02  0.00000000000E+00 0. -1.
        -12    1    4    4    0    0 -0.14735260321E+02 -0.49467893815E+02 -0.27931219314E+00  0.51616648773E+02  0.00000000000E+00 0.  1.
        -13    1    3    3    0    0  0.13122104499E+02  0.25382195119E+02 -0.46506732055E+02  0.54583162074E+02  0.00000000000E+00 0.  1.
         13    1    3    3    0    0 -0.24946548689E+02  0.98425913533E+01  0.31956126887E+02  0.41718112872E+02  0.00000000000E+00 0. -1.
         -1    1    1    2    0  502 -0.11440850076E+02  0.54230576454E+02 -0.34376536783E+02  0.65219588730E+02  0.00000000000E+00 0.  1.
<scales pt_clust_5="13000.00000" pt_clust_6="13000.00000" pt_clust_7="13000.00000" pt_clust_8="13000.00000" pt_clust_9="55.42429"></scales>
<clustering>
<clus scale="   55.424">  1  9  2 -1</clus>
<clus scale="   81.352">  5  6 -1 -1</clus>
<clus scale="   87.645">  7  8 -1 -1</clus>
<clus scale="   96.737">  1  5  2 -1</clus>
<clus scale="   55.424">  1  5  2 -1</clus>
</clustering>
</event>
<event>
 9    1  0.1505459E-004  0.1720190E+03  0.7546771E-02  0.1177766E+00
         -4   -1    0    0    0  501 -0.00000000000E+00  0.00000000000E+00  0.33986335766E+03  0.33986335766E+03  0.00000000000E+00 0.  1.
         21   -1    0    0  501  502  0.00000000000E+00 -0.00000000000E+00 -0.24386855860E+03  0.24386855860E+03  0.00000000000E+00 0. -1.
         23    2    1    2    0    0 -0.24239373044E+02 -0.13211592465E+03  0.12880800571E+03  0.20808085226E+03  0.93080470523E+02 0.  0.
        -24    2    1    2    0    0  0.17922157593E+02  0.19541814495E+03 -0.13830874162E+03  0.25245858776E+03  0.78080570034E+02 0.  0.
         11    1    4    4    0    0  0.25704134548E+02  0.16332380454E+03 -0.14362913602E+03  0.21900843905E+03  0.00000000000E+00 0. -1.
        -12    1    4    4    0    0 -0.77819769557E+01  0.32094340409E+02  0.53203944062E+01  0.33450148703E+02  0.00000000000E+00 0.  1.
        -13    1    3    3    0    0  0.31831214117E+02 -0.81314125918E+02  0.76559971592E+02  0.11613200470E+03  0.00000000000E+00 0.  1.
         13    1    3    3    0    0 -0.56070587161E+02 -0.50801798730E+02  0.52248034118E+02  0.91948847562E+02  0.00000000000E+00 0. -1.
         -3    1    1    2    0  502  0.63172154517E+01 -0.63302220300E+02  0.10549553497E+03  0.12319247625E+03  0.00000000000E+00 0.  1.
<scales pt_clust_5="13000.00000" pt_clust_6="13000.00000" pt_clust_7="13000.00000" pt_clust_8="13000.00000" pt_clust_9="63.61668"></scales>
<clustering>
<clus scale="   63.617">  2  9  1 -1</clus>
<clus scale="   78.081">  5  6 -1 -1</clus>
<clus scale="   93.080">  7  8 -1 -1</clus>
<clus scale="  164.387">  2  5  1 -1</clus>
<clus scale="   63.617">  2  5  1 -1</clus>
</clustering>
</event>
<event>
 9    1  0.9171696E-005  0.1638885E+03  0.7546771E-02  0.1210170E+00
         21   -1    0    0  501  502  0.00000000000E+00  0.00000000000E+00  0.93114487313E+03  0.93114487313E+03  0.00000000000E+00 0. -1.
          1   -1    0    0  502    0 -0.00000000000E+00 -0.00000000000E+00 -0.21269967760E+03  0.21269967760E+03  0.00000000000E+00 0. -1.
         23    2    1    2    0    0  0.10939938252E+02  0.17530989990E+02 -0.16380120977E+03  0.18853020170E+03  0.91026275177E+02 0.  0.
        -24    2    1    2    0    0 -0.11958628810E+03 -0.10136827138E+03  0.23988037622E+03  0.29845299805E+03  0.83397784197E+02 0.  0.
         11    1    4    4    0    0 -0.12661267595E+03 -0.10887389118E+03  0.22971124438E+03  0.28399216483E+03  0.00000000000E+00 0. -1.
        -12    1    4    4    0    0  0.70263878572E+01  0.75056198048E+01  0.10169131839E+02  0.14460833217E+02  0.00000000000E+00 0.  1.
        -11    1    3    3    0    0 -0.16160233300E+02  0.12519894532E+02  0.19204062311E+01  0.20532629142E+02  0.00000000000E+00 0.  1.
         11    1    3    3    0    0  0.27100171552E+02  0.50110954580E+01 -0.16572161600E+03  0.16799757256E+03  0.00000000000E+00 0. -1.
          2    1    1    2  501    0  0.10864634985E+03  0.83837281389E+02  0.64236602909E+03  0.65686135098E+03  0.00000000000E+00 0. -1.
<scales pt_clust_5="13000.00000" pt_clust_6="13000.00000" pt_clust_7="13000.00000" pt_clust_8="13000.00000" pt_clust_9="141.08243"></scales>
<clustering>
<clus scale="   83.398">  5  6 -1 -1</clus>
<clus scale="   91.026">  7  8 -1 -1</clus>
<clus scale="   93.342">  2  7  1 -1</clus>
<clus scale="  141.082">  1  9  2 -1</clus>
<clus scale="  141.082">  1  5  2 -1</clus>
</clustering>
</event>
<event>
 9    1  0.9171696E-005  0.1452677E+03  0.7546771E-02  0.1209161E+00
         21   -1    0    0  501  502  0.00000000000E+00  0.00000000000E+00  0.56115544125E+02  0.56115544125E+02  0.00000000000E+00 0. -1.
          1   -1    0    0  502    0 -0.00000000000E+00 -0.00000000000E+00 -0.78581053303E+03  0.78581053303E+03  0.00000000000E+00 0. -1.
         23    2    1    2    0    0 -0.13654767479E+02 -0.12367872497E+03 -0.41485621454E+03  0.44269987381E+03  0.91622158052E+02 0.  0.
        -24    2    1    2    0    0  0.52233887812E+02  0.72915317970E+02 -0.53487064013E+02  0.13020949658E+03  0.77772902423E+02 0.  0.
         13    1    4    4    0    0  0.32933552424E+02  0.27244140994E+02  0.15315502470E+02  0.45402937236E+02  0.00000000000E+00 0. -1.
        -14    1    4    4    0    0  0.19300335388E+02  0.45671176975E+02 -0.68802566483E+02  0.84806559340E+02  0.00000000000E+00 0.  1.
        -13    1    3    3    0    0 -0.51223222125E+02 -0.91766271551E+02 -0.29092579509E+03  0.30932617951E+03  0.00000000000E+00 0.  1.
         13    1    3    3    0    0  0.37568454647E+02 -0.31912453416E+02 -0.12393041945E+03  0.13337369430E+03  0.00000000000E+00 0. -1.
          2    1    1    2  501    0 -0.38579120333E+02  0.50763406997E+02 -0.26135171035E+03  0.26901670676E+03  0.00000000000E+00 0. -1.
<scales pt_clust_5="13000.00000" pt_clust_6="13000.00000" pt_clust_7="13000.00000" pt_clust_8="13000.00000" pt_clust_9="63.75952"></scales>
<clustering>
<clus scale="   63.760">  1  9  2 -1</clus>
<clus scale="   77.773">  5  6 -1 -1</clus>
<clus scale="   91.622">  7  8 -1 -1</clus>
<clus scale="  136.955">  1  5  2 -1</clus>
<clus scale="   63.760">  1  5  2 -1</clus>
</clustering>
</event>
<event>
 9    1  0.9171696E-005  0.1426722E+03  0.7546771E-02  0.1237180E+00
         21   -1    0    0  501  502  0.00000000000E+00  0.00000000000E+00  0.55596167079E+03  0.55596167079E+03  0.00000000000E+00 0. -1.
          1   -1    0    0  502    0 -0.00000000000E+00 -0.00000000000E+00 -0.10566423700E+03  0.10566423700E+03  0.00000000000E+00 0. -1.
        -24    2    1    2    0    0 -0.19037231645E+02 -0.28912278837E+02  0.11043169576E+02  0.81269996310E+02  0.72694736053E+02 0.  0.
         23    2    1    2    0    0 -0.34587252735E+02  0.13640526674E+03  0.40338428624E+02  0.16374557596E+03  0.73367226845E+02 0.  0.
         13    1    3    3    0    0 -0.39903980259E+02  0.25230293506E+00 -0.79515537430E+01  0.40689292255E+02  0.00000000000E+00 0. -1.
        -14    1    3    3    0    0  0.20866748614E+02 -0.29164581772E+02  0.18994723319E+02  0.40580704055E+02  0.00000000000E+00 0.  1.
        -13    1    4    4    0    0 -0.51319629186E+02  0.11380607406E+03  0.49313429423E+02  0.13422868976E+03  0.00000000000E+00 0. -1.
         13    1    4    4    0    0  0.16732376450E+02  0.22599192685E+02 -0.89750007990E+01  0.29516886202E+02  0.00000000000E+00 0.  1.
          2    1    1    2  501    0  0.53624484380E+02 -0.10749298790E+03  0.39891583560E+03  0.41661033552E+03  0.00000000000E+00 0. -1.
<scales pt_clust_5="13000.00000" pt_clust_6="13000.00000" pt_clust_7="13000.00000" pt_clust_8="13000.00000" pt_clust_9="122.36259"></scales>
<clustering>
<clus scale="   72.695">  5  6 -1 -1</clus>
<clus scale="   73.367">  7  8 -1 -1</clus>
<clus scale="   80.516">  2  5  1 -1</clus>
<clus scale="  122.363">  1  9  2 -1</clus>
<clus scale="  122.363">  1  5  2 -1</clus>
</clustering>
</event>
<event>
 9    1  0.9171696E-005  0.1301379E+03  0.7546771E-02  0.1230007E+00
         21   -1    0    0  501  502  0.00000000000E+00  0.00000000000E+00  0.46777739480E+02  0.46777739480E+02  0.00000000000E+00 0. -1.
          1   -1    0    0  502    0 -0.00000000000E+00 -0.00000000000E+00 -0.72432232294E+03  0.72432232294E+03  0.00000000000E+00 0. -1.
        -24    2    1    2    0    0 -0.19725110476E+02  0.92090926186E+02 -0.34793592172E+03  0.36941326038E+03  0.80851299599E+02 0.  0.
         23    2    1    2    0    0 -0.30065893360E+02 -0.92870968869E+02 -0.10070722148E+03  0.16743133918E+03  0.91445798588E+02 0.  0.
         13    1    3    3    0    0 -0.38613715384E+02  0.82739933487E+02 -0.19843403383E+03  0.21843301351E+03  0.00000000000E+00 0. -1.
        -14    1    3    3    0    0  0.18888604908E+02  0.93509926992E+01 -0.14950188790E+03  0.15098024687E+03  0.00000000000E+00 0.  1.
        -11    1    4    4    0    0  0.13771995806E+00 -0.10021957149E+03 -0.89566984124E+02  0.13441066223E+03  0.00000000000E+00 0. -1.
         11    1    4    4    0    0 -0.30203613318E+02  0.73486026199E+01 -0.11140237358E+02  0.33020676951E+02  0.00000000000E+00 0.  1.
          2    1    1    2  501    0  0.49791003836E+02  0.78004268328E+00 -0.22890144026E+03  0.23425546286E+03  0.00000000000E+00 0. -1.
<scales pt_clust_5="13000.00000" pt_clust_6="13000.00000" pt_clust_7="13000.00000" pt_clust_8="13000.00000" pt_clust_9="49.79714"></scales>
<clustering>
<clus scale="   49.797">  1  9  2 -1</clus>
<clus scale="   80.851">  5  6 -1 -1</clus>
<clus scale="   91.446">  7  8 -1 -1</clus>
<clus scale="  122.925">  2  5  1 -1</clus>
<clus scale="   49.797">  1  5  2 -1</clus>
</clustering>
</event>
<event>
 9    1  0.9171696E-005  0.1047600E+03  0.7546771E-02  0.1273049E+00
         21   -1    0    0  501  502  0.00000000000E+00  0.00000000000E+00  0.74199253719E+03  0.74199253719E+03  0.00000000000E+00 0.  1.
          1   -1    0    0  502    0 -0.00000000000E+00 -0.00000000000E+00 -0.22665419528E+02  0.22665419528E+02  0.00000000000E+00 0. -1.
        -24    2    1    2    0    0  0.55715115094E+02  0.14119837812E+02  0.17840623928E+03  0.20437304180E+03  0.81461709589E+02 0.  0.
         23    2    1    2    0    0 -0.61842598672E+02  0.20181527443E+02  0.36297697650E+03  0.37896155203E+03  0.87337113467E+02 0.  0.
         13    1    3    3    0    0  0.71282684012E+02 -0.83745591676E+01  0.13847358359E+03  0.15596886751E+03  0.00000000000E+00 0. -1.
        -14    1    3    3    0    0 -0.15567568919E+02  0.22494396980E+02  0.39932655694E+02  0.48404174286E+02  0.00000000000E+00 0.  1.
        -13    1    4    4    0    0 -0.16605976188E+02 -0.23344469313E+02  0.35974755284E+02  0.45988104010E+02  0.00000000000E+00 0. -1.
         13    1    4    4    0    0 -0.45236622485E+02  0.43525996756E+02  0.32700222122E+03  0.33297344802E+03  0.00000000000E+00 0.  1.
          2    1    1    2  501    0  0.61274835788E+01 -0.34301365255E+02  0.17794390188E+03  0.18132336289E+03  0.00000000000E+00 0. -1.
<scales pt_clust_5="13000.00000" pt_clust_6="13000.00000" pt_clust_7="13000.00000" pt_clust_8="13000.00000" pt_clust_9="34.84436"></scales>
<clustering>
<clus scale="   34.844">  1  9  2 -1</clus>
<clus scale="   81.462">  5  6 -1 -1</clus>
<clus scale="   87.337">  7  8 -1 -1</clus>
<clus scale="   99.914">  2  5  1 -1</clus>
<clus scale="   34.844">  1  5  2 -1</clus>
</clustering>
</event>
<event>
 9    1  0.9171696E-005  0.1200468E+03  0.7546771E-02  0.1248110E+00
         21   -1    0    0  501  502  0.00000000000E+00  0.00000000000E+00  0.18260608217E+03  0.18260608217E+03  0.00000000000E+00 0. -1.
          3   -1    0    0  502    0 -0.00000000000E+00 -0.00000000000E+00 -0.21331998417E+03  0.21331998417E+03  0.00000000000E+00 0. -1.
        -24    2    1    2    0    0  0.71941037764E+02 -0.69834235476E+01 -0.73342560400E+02  0.13084570819E+03  0.80729096772E+02 0.  0.
         23    2    1    2    0    0  0.50058809237E+02 -0.25905394751E+02  0.76784011341E+02  0.13419023182E+03  0.94521214855E+02 0.  0.
         11    1    3    3    0    0  0.83716106847E+02 -0.17593271805E+02 -0.76410370473E+02  0.11470158880E+03  0.00000000000E+00 0. -1.
        -12    1    3    3    0    0 -0.11775069083E+02  0.10609848258E+02  0.30678100732E+01  0.16144119382E+02  0.00000000000E+00 0.  1.
        -11    1    4    4    0    0 -0.18950343967E+02 -0.35630199459E+02  0.27620804547E+02  0.48903328044E+02  0.00000000000E+00 0.  1.
         11    1    4    4    0    0  0.69009153205E+02  0.97248047079E+01  0.49163206794E+02  0.85286903772E+02  0.00000000000E+00 0. -1.
          4    1    1    2  501    0 -0.12199984700E+03  0.32888818299E+02 -0.34155352946E+02  0.13089012634E+03  0.00000000000E+00 0. -1.
<scales pt_clust_5="13000.00000" pt_clust_6="13000.00000" pt_clust_7="13000.00000" pt_clust_8="13000.00000" pt_clust_9="74.00655"></scales>
<clustering>
<clus scale="   80.729">  5  6 -1 -1</clus>
<clus scale="   94.521">  7  8 -1 -1</clus>
<clus scale="  108.358">  2  5  1 -1</clus>
<clus scale="   74.007">  1  9  2 -1</clus>
<clus scale="   74.007">  1  5  2 -1</clus>
</clustering>
</event>
<event>
 9    1  0.9171696E-005  0.1948506E+03  0.7546771E-02  0.1183547E+00
         -4   -1    0    0    0  501 -0.00000000000E+00  0.00000000000E+00  0.13473388169E+03  0.13473388169E+03  0.00000000000E+00 0.  1.
         21   -1    0    0  501  502  0.00000000000E+00 -0.00000000000E+00 -0.90416644413E+03  0.90416644413E+03  0.00000000000E+00 0.  1.
        -24    2    1    2    0    0  0.50584047759E+02 -0.29708214508E+02 -0.41800101813E+03  0.42964295001E+03  0.80167882836E+02 0.  0.
         23    2    1    2    0    0 -0.20695029366E+03  0.48874613858E+02 -0.14233708527E+02  0.23707444474E+03  0.10384864933E+03 0.  0.
         13    1    3    3    0    0 -0.35869749448E+00  0.23995330750E+02 -0.75007870150E+02  0.78753318319E+02  0.00000000000E+00 0. -1.
        -14    1    3    3    0    0  0.50942745253E+02 -0.53703545258E+02 -0.34299314798E+03  0.35088963169E+03  0.00000000000E+00 0.  1.
        -13    1    4    4    0    0 -0.92854124724E+02  0.48928658716E+02  0.37955385291E+02  0.11160875143E+03  0.00000000000E+00 0.  1.
         13    1    4    4    0    0 -0.11409616893E+03 -0.54044857883E-01 -0.52189093819E+02  0.12546569332E+03  0.00000000000E+00 0. -1.
         -3    1    1    2    0  502  0.15636624590E+03 -0.19166399350E+02 -0.33719783578E+03  0.37218293106E+03  0.00000000000E+00 0.  1.
<scales pt_clust_5="13000.00000" pt_clust_6="13000.00000" pt_clust_7="13000.00000" pt_clust_8="13000.00000" pt_clust_9="164.87027"></scales>
<clustering>
<clus scale="   80.168">  5  6 -1 -1</clus>
<clus scale="   99.339">  1  5  2 -1</clus>
<clus scale="  103.849">  7  8 -1 -1</clus>
<clus scale="  164.870">  2  9  1 -1</clus>
<clus scale="  164.870">  2  5  1 -1</clus>
</clustering>
</event>
<event>
 9    1  0.9171696E-005  0.2142954E+03  0.7546771E-02  0.1138841E+00
         -4   -1    0    0    0  501 -0.00000000000E+00  0.00000000000E+00  0.96027914953E+02  0.96027914953E+02  0.00000000000E+00 0.  1.
         21   -1    0    0  501  502  0.00000000000E+00 -0.00000000000E+00 -0.61250711797E+03  0.61250711797E+03  0.00000000000E+00 0.  1.
        -24    2    1    2    0    0  0.12553181254E+03 -0.16770874351E+03 -0.15663102134E+03  0.27392686819E+03  0.81352281220E+02 0.  0.
         23    2    1    2    0    0 -0.80161517842E+02  0.15539995475E+03 -0.28168816537E+03  0.34339984235E+03  0.89443917285E+02 0.  0.
         13    1    3    3    0    0  0.37561597059E+02 -0.27623406829E+01 -0.29754617260E+02  0.47998347346E+02  0.00000000000E+00 0. -1.
        -14    1    3    3    0    0  0.87970215486E+02 -0.16494640283E+03 -0.12687640408E+03  0.22592852085E+03  0.00000000000E+00 0.  1.
        -13    1    4    4    0    0 -0.64645050590E+02  0.10708780773E+03 -0.25938661168E+03  0.28797256023E+03  0.00000000000E+00 0.  1.
         13    1    4    4    0    0 -0.15516467252E+02  0.48312147023E+02 -0.22301553690E+02  0.55427282117E+02  0.00000000000E+00 0. -1.
         -3    1    1    2    0  502 -0.45370294703E+02  0.12308788764E+02 -0.78160016307E+02  0.91208322380E+02  0.00000000000E+00 0.  1.
<scales pt_clust_5="13000.00000" pt_clust_6="13000.00000" pt_clust_7="13000.00000" pt_clust_8="13000.00000" pt_clust_9="47.01032"></scales>
<clustering>
<clus scale="   47.010">  2  9  1 -1</clus>
<clus scale="   81.352">  5  6 -1 -1</clus>
<clus scale="   89.444">  7  8 -1 -1</clus>
<clus scale="  211.046">  1  5  2 -1</clus>
<clus scale="   47.010">  2  5  1 -1</clus>
</clustering>
</event>
<event>
 9    1  0.9171696E-005  0.1134377E+03  0.7546771E-02  0.1257763E+00
          1   -1    0    0  502    0 -0.00000000000E+00  0.00000000000E+00  0.45132296983E+03  0.45132296983E+03  0.00000000000E+00 0. -1.
         21   -1    0    0  501  502  0.00000000000E+00 -0.00000000000E+00 -0.61098114265E+02  0.61098114265E+02  0.00000000000E+00 0. -1.
         23    2    1    2    0    0 -0.66563336279E+02  0.62301393591E+02  0.13813252634E+03  0.18879530736E+03  0.90834640244E+02 0.  0.
        -24    2    1    2    0    0  0.49919891210E+02  0.11531184164E+01  0.43384531891E+02  0.10485095180E+03  0.81352192750E+02 0.  0.
         11    1    4    4    0    0  0.63317378701E+02  0.22517078799E+02  0.19152220432E+02  0.69877870822E+02  0.00000000000E+00 0. -1.
        -12    1    4    4    0    0 -0.13397487491E+02 -0.21363960383E+02  0.24232311460E+02  0.34973080976E+02  0.00000000000E+00 0.  1.
        -13    1    3    3    0    0 -0.73415218314E+02  0.10419032601E+02  0.63392120259E+02  0.97554658686E+02  0.00000000000E+00 0. -1.
         13    1    3    3    0    0  0.68518820352E+01  0.51882360990E+02  0.74740406084E+02  0.91240648676E+02  0.00000000000E+00 0.  1.
          2    1    1    2  501    0  0.16643445069E+02 -0.63454512007E+02  0.20870779733E+03  0.21877482493E+03  0.00000000000E+00 0. -1.
<scales pt_clust_5="13000.00000" pt_clust_6="13000.00000" pt_clust_7="13000.00000" pt_clust_8="13000.00000" pt_clust_9="65.60094"></scales>
<clustering>
<clus scale="   65.601">  2  9  1 -1</clus>
<clus scale="   81.352">  5  6 -1 -1</clus>
<clus scale="   90.835">  7  8 -1 -1</clus>
<clus scale="  105.997">  2  5  1 -1</clus>
<clus scale="   65.601">  2  5  1 -1</clus>
</clustering>
</event>
<event>
 9    1  0.9171696E-005  0.2477327E+03  0.7546771E-02  0.1142018E+00
         21   -1    0    0  501  502  0.00000000000E+00  0.00000000000E+00  0.34925422678E+03  0.34925422678E+03  0.00000000000E+00 0. -1.
          1   -1    0    0  502    0 -0.00000000000E+00 -0.00000000000E+00 -0.30853079650E+03  0.30853079650E+03  0.00000000000E+00 0. -1.
        -24    2    1    2    0    0 -0.97120636714E+02  0.56414975531E+01 -0.20579405923E+01  0.12655109568E+03  0.80911681039E+02 0.  0.
         23    2    1    2    0    0 -0.47816540597E+02 -0.20224646695E+03 -0.10021848199E+03  0.24819813962E+03  0.91479601187E+02 0.  0.
         11    1    3    3    0    0 -0.33864272466E+02 -0.10495525765E+02  0.36376042014E+02  0.50795289578E+02  0.00000000000E+00 0. -1.
        -12    1    3    3    0    0 -0.63256364248E+02  0.16137023318E+02 -0.38433982606E+02  0.75755806104E+02  0.00000000000E+00 0.  1.
        -11    1    4    4    0    0 -0.11955174291E+02 -0.19508627394E+02  0.16688553661E+02  0.28319967486E+02  0.00000000000E+00 0.  1.
         11    1    4    4    0    0 -0.35861366305E+02 -0.18273783955E+03 -0.11690703565E+03  0.21987817214E+03  0.00000000000E+00 0. -1.
          2    1    1    2  501    0  0.14493717731E+03  0.19660496939E+03  0.14299985286E+03  0.28303578798E+03  0.00000000000E+00 0. -1.
<scales pt_clust_5="13000.00000" pt_clust_6="13000.00000" pt_clust_7="13000.00000" pt_clust_8="13000.00000" pt_clust_9="230.22371"></scales>
<clustering>
<clus scale="   80.912">  5  6 -1 -1</clus>
<clus scale="   91.480">  7  8 -1 -1</clus>
<clus scale="  126.534">  2  5  1 -1</clus>
<clus scale="  230.224">  1  9  2 -1</clus>
<clus scale="  230.224">  1  5  2 -1</clus>
</clustering>
</event>
<event>
 9    1  0.9648241E-005  0.9637025E+02  0.7546771E-02  0.1294673E+00
         21   -1    0    0  501  502  0.00000000000E+00  0.00000000000E+00  0.21831027445E+03  0.21831027445E+03  0.00000000000E+00 0. -1.
          1   -1    0    0  502    0 -0.00000000000E+00 -0.00000000000E+00 -0.44955233668E+03  0.44955233668E+03  0.00000000000E+00 0. -1.
         23    2    1    2    0    0  0.25764240806E+02 -0.15640410927E+02 -0.40645397535E+03  0.41782133160E+03  0.91985936446E+02 0.  0.
        -24    2    1    2    0    0 -0.24489538148E+02 -0.98339309880E+01  0.12591407384E+02  0.85432665400E+02  0.80272991100E+02 0.  0.
         11    1    4    4    0    0 -0.28970065039E+02 -0.52097576645E+01 -0.30192914785E+02  0.42166554833E+02  0.00000000000E+00 0. -1.
        -12    1    4    4    0    0  0.44805268912E+01 -0.46241733236E+01  0.42784322169E+02  0.43266110567E+02  0.00000000000E+00 0.  1.
        -11    1    3    3    0    0  0.29705910792E+02  0.34806495876E+02 -0.17328915018E+03  0.17922907928E+03  0.00000000000E+00 0. -1.
         11    1    3    3    0    0 -0.39416699862E+01 -0.50446906803E+02 -0.23316482517E+03  0.23859225231E+03  0.00000000000E+00 0.  1.
          2    1    1    2  501    0 -0.12747026581E+01  0.25474341915E+02  0.16262050573E+03  0.16460861414E+03  0.00000000000E+00 0. -1.
<scales pt_clust_5="13000.00000" pt_clust_6="13000.00000" pt_clust_7="13000.00000" pt_clust_8="13000.00000" pt_clust_9="25.50621"></scales>
<clustering>
<clus scale="   25.506">  1  9  2 -1</clus>
<clus scale="   80.273">  5  6 -1 -1</clus>
<clus scale="   85.262">  1  5  2 -1</clus>
<clus scale="   91.986">  7  8 -1 -1</clus>
<clus scale="   25.506">  1  5  2 -1</clus>
</clustering>
</event>
<event>
 9    1  0.9171696E-005  0.1473375E+03  0.7546771E-02  0.1204858E+00
         21   -1    0    0  501  502  0.00000000000E+00  0.00000000000E+00  0.15927843585E+03  0.15927843585E+03  0.00000000000E+00 0. -1.
          1   -1    0    0  502    0 -0.00000000000E+00 -0.00000000000E+00 -0.24545033207E+03  0.24545033207E+03  0.00000000000E+00 0. -1.
        -24    2    1    2    0    0 -0.98975358707E+02  0.34221564306E+02 -0.78118015809E+02  0.15317061205E+03  0.79947325837E+02 0.  0.
         23    2    1    2    0    0  0.15286533003E+03  0.17362904324E+01 -0.39206005367E+02  0.17967247429E+03  0.85873531031E+02 0.  0.
         13    1    3    3    0    0 -0.55488408683E+02  0.57756572952E+02 -0.61587166342E+02  0.10103348096E+03  0.00000000000E+00 0. -1.
        -14    1    3    3    0    0 -0.43486950024E+02 -0.23535008647E+02 -0.16530849467E+02  0.52137131092E+02  0.00000000000E+00 0.  1.
        -13    1    4    4    0    0  0.76460751485E+02 -0.12449011522E+02  0.22248434755E+02  0.80599114478E+02  0.00000000000E+00 0. -1.
         13    1    4    4    0    0  0.76404578545E+02  0.14185301954E+02 -0.61454440122E+02  0.99073359815E+02  0.00000000000E+00 0.  1.
          2    1    1    2  501    0 -0.53889971323E+02 -0.35957854738E+02  0.31152124953E+02  0.71885681576E+02  0.00000000000E+00 0. -1.
<scales pt_clust_5="13000.00000" pt_clust_6="13000.00000" pt_clust_7="13000.00000" pt_clust_8="13000.00000" pt_clust_9="64.78500"></scales>
<clustering>
<clus scale="   64.785">  1  9  2 -1</clus>
<clus scale="   79.947">  5  6 -1 -1</clus>
<clus scale="   85.874">  7  8 -1 -1</clus>
<clus scale="  143.964">  2  5  1 -1</clus>
<clus scale="   64.785">  1  5  2 -1</clus>
</clustering>
</event>
<event>
 9    1  0.9171696E-005  0.1296956E+03  0.7546771E-02  0.1240952E+00
         21   -1    0    0  501  502  0.00000000000E+00  0.00000000000E+00  0.50857099319E+03  0.50857099319E+03  0.00000000000E+00 0. -1.
          1   -1    0    0  502    0 -0.00000000000E+00 -0.00000000000E+00 -0.99735025188E+02  0.99735025188E+02  0.00000000000E+00 0. -1.
         23    2    1    2    0    0  0.36758398553E+02 -0.17010796321E+02 -0.21619515437E+02  0.10159384440E+03  0.90627582535E+02 0.  0.
        -24    2    1    2    0    0  0.71352905124E+02  0.27441681933E+02  0.73093884929E+02  0.13320960445E+03  0.80980242814E+02 0.  0.
         13    1    4    4    0    0  0.21893762742E+02 -0.28262084192E+02  0.32802466351E+02  0.48518904033E+02  0.00000000000E+00 0. -1.
        -14    1    4    4    0    0  0.49459142382E+02  0.55703766125E+02  0.40291418578E+02  0.84690700414E+02  0.00000000000E+00 0.  1.
        -11    1    3    3    0    0  0.34453144918E+02  0.22965465847E+02  0.18103656460E+02  0.45190421480E+02  0.00000000000E+00 0.  1.
         11    1    3    3    0    0  0.23052536356E+01 -0.39976262169E+02 -0.39723171897E+02  0.56403422918E+02  0.00000000000E+00 0. -1.
          2    1    1    2  501    0 -0.10811130368E+03 -0.10430885612E+02  0.35736159851E+03  0.37350256953E+03  0.00000000000E+00 0. -1.
<scales pt_clust_5="13000.00000" pt_clust_6="13000.00000" pt_clust_7="13000.00000" pt_clust_8="13000.00000" pt_clust_9="101.30721"></scales>
<clustering>
<clus scale="   80.980">  5  6 -1 -1</clus>
<clus scale="   90.628">  7  8 -1 -1</clus>
<clus scale="   99.267">  2  7  1 -1</clus>
<clus scale="  101.307">  1  9  2 -1</clus>
<clus scale="  101.307">  1  5  2 -1</clus>
</clustering>
</event>
<event>
 9    1  0.9171696E-005  0.1995944E+03  0.7546771E-02  0.1173462E+00
          1   -1    0    0  502    0 -0.00000000000E+00  0.00000000000E+00  0.45812294551E+03  0.45812294551E+03  0.00000000000E+00 0. -1.
         21   -1    0    0  501  502  0.00000000000E+00 -0.00000000000E+00 -0.16138641840E+03  0.16138641840E+03  0.00000000000E+00 0. -1.
        -24    2    1    2    0    0  0.26270035222E+02  0.78026379064E+02  0.18439498054E+03  0.21785207440E+03  0.81729963242E+02 0.  0.
         23    2    1    2    0    0 -0.63198708942E+02  0.13019513617E+03  0.63632562576E+02  0.18464924480E+03  0.95401206964E+02 0.  0.
         11    1    3    3    0    0 -0.12904505139E+02  0.51597003726E+02  0.15070862578E+03  0.15981823091E+03  0.00000000000E+00 0. -1.
        -12    1    3    3    0    0  0.39174540361E+02  0.26429375338E+02  0.33686354760E+02  0.58033843490E+02  0.00000000000E+00 0.  1.
        -11    1    4    4    0    0 -0.57561025203E+02  0.57593117497E+02  0.75291701745E+02  0.11090121351E+03  0.00000000000E+00 0.  1.
         11    1    4    4    0    0 -0.56376837391E+01  0.72602018674E+02 -0.11659139168E+02  0.73748031293E+02  0.00000000000E+00 0. -1.
          2    1    1    2  501    0  0.36928673720E+02 -0.20822151524E+03  0.48708983991E+02  0.21700804471E+03  0.00000000000E+00 0. -1.
<scales pt_clust_5="13000.00000" pt_clust_6="13000.00000" pt_clust_7="13000.00000" pt_clust_8="13000.00000" pt_clust_9="175.31850"></scales>
<clustering>
<clus scale="   81.730">  5  6 -1 -1</clus>
<clus scale="   95.401">  7  8 -1 -1</clus>
<clus scale="  116.009">  1  5  2 -1</clus>
<clus scale="  175.319">  2  9  1 -1</clus>
<clus scale="  175.319">  2  5  1 -1</clus>
</clustering>
</event>
<event>
 9    1  0.9171696E-005  0.1037157E+03  0.7546771E-02  0.1277487E+00
         21   -1    0    0  501  502  0.00000000000E+00  0.00000000000E+00  0.19339651090E+02  0.19339651090E+02  0.00000000000E+00 0.  1.
         -2   -1    0    0    0  501 -0.00000000000E+00 -0.00000000000E+00 -0.11192230665E+04  0.11192230665E+04  0.00000000000E+00 0.  1.
        -24    2    1    2    0    0 -0.55091948442E+02 -0.30404887925E+02 -0.58649377857E+03  0.59519537590E+03  0.79517313772E+02 0.  0.
         23    2    1    2    0    0  0.23770453049E+02 -0.12464026558E+02 -0.15703546332E+03  0.18307984970E+03  0.90209246928E+02 0.  0.
         13    1    3    3    0    0  0.69909665909E+01 -0.29499782061E+02 -0.93138327884E+02  0.97948245908E+02  0.00000000000E+00 0. -1.
        -14    1    3    3    0    0 -0.62082915033E+02 -0.90510586360E+00 -0.49335545069E+03  0.49724712999E+03  0.00000000000E+00 0.  1.
        -11    1    4    4    0    0  0.25430541564E+02 -0.43020001900E+02 -0.46061005554E+02  0.67963587607E+02  0.00000000000E+00 0.  1.
         11    1    4    4    0    0 -0.16600885154E+01  0.30555975341E+02 -0.11097445776E+03  0.11511626210E+03  0.00000000000E+00 0. -1.
         -1    1    1    2    0  502  0.31321495393E+02  0.42868914483E+02 -0.35635417355E+03  0.36028749202E+03  0.00000000000E+00 0.  1.
<scales pt_clust_5="13000.00000" pt_clust_6="13000.00000" pt_clust_7="13000.00000" pt_clust_8="13000.00000" pt_clust_9="53.09221"></scales>
<clustering>
<clus scale="   53.092">  1  9  2 -1</clus>
<clus scale="   79.517">  5  6 -1 -1</clus>
<clus scale="   90.209">  7  8 -1 -1</clus>
<clus scale="   94.563">  2  5  1 -1</clus>
<clus scale="   53.092">  1  5  2 -1</clus>
</clustering>
</event>
<event>
 9    1  0.9171696E-005  0.1236598E+03  0.7546771E-02  0.1240566E+00
         21   -1    0    0  501  502  0.00000000000E+00  0.00000000000E+00  0.15797684267E+03  0.15797684267E+03  0.00000000000E+00 0. -1.
         -4   -1    0    0    0  501 -0.00000000000E+00 -0.00000000000E+00 -0.28567811526E+03  0.28567811526E+03  0.00000000000E+00 0.  1.
        -24    2    1    2    0    0  0.72626207376E+02  0.28662841173E+02 -0.33881542108E+01  0.11100133563E+03  0.78826978000E+02 0.  0.
         23    2    1    2    0    0 -0.10458578534E+03  0.30699629444E+02  0.46446826574E+02  0.14906637780E+03  0.90458960567E+02 0.  0.
         13    1    3    3    0    0  0.41093157613E+02  0.13622063825E+02  0.37461135023E+02  0.57249845962E+02  0.00000000000E+00 0. -1.
        -14    1    3    3    0    0  0.31533049764E+02  0.15040777348E+02 -0.40849289234E+02  0.53751489668E+02  0.00000000000E+00 0.  1.
        -11    1    4    4    0    0 -0.61286496308E+01 -0.21886927244E+02  0.27783989491E+02  0.35896350825E+02  0.00000000000E+00 0.  1.
         11    1    4    4    0    0 -0.98457135710E+02  0.52586556687E+02  0.18662837082E+02  0.11317002697E+03  0.00000000000E+00 0. -1.
         -3    1    1    2    0  502  0.31959577965E+02 -0.59362470616E+02 -0.17075994496E+03  0.18358724451E+03  0.00000000000E+00 0.  1.
<scales pt_clust_5="13000.00000" pt_clust_6="13000.00000" pt_clust_7="13000.00000" pt_clust_8="13000.00000" pt_clust_9="67.41900"></scales>
<clustering>
<clus scale="   67.419">  1  9  2 -1</clus>
<clus scale="   78.827">  5  6 -1 -1</clus>
<clus scale="   90.459">  7  8 -1 -1</clus>
<clus scale="  115.424">  2  5  1 -1</clus>
<clus scale="   67.419">  1  5  2 -1</clus>
</clustering>
</event>
<event>
 9    1  0.9171696E-005  0.2559398E+03  0.7546771E-02  0.1109607E+00
         21   -1    0    0  501  502  0.00000000000E+00  0.00000000000E+00  0.11641662508E+04  0.11641662508E+04  0.00000000000E+00 0. -1.
         -4   -1    0    0    0  501 -0.00000000000E+00 -0.00000000000E+00 -0.38495754717E+02  0.38495754717E+02  0.00000000000E+00 0.  1.
        -24    2    1    2    0    0 -0.43326627328E+02 -0.11373000970E+03  0.28295695726E+03  0.31867683942E+03  0.81722558570E+02 0.  0.
         23    2    1    2    0    0 -0.51545186273E+02 -0.13396524732E+02  0.28765694023E+03  0.30670737819E+03  0.92122350532E+02 0.  0.
         11    1    3    3    0    0 -0.54001465459E+02 -0.65400579755E+02  0.11073199047E+03  0.13948106616E+03  0.00000000000E+00 0. -1.
        -12    1    3    3    0    0  0.10674838132E+02 -0.48329429948E+02  0.17222496680E+03  0.17919577326E+03  0.00000000000E+00 0.  1.
        -13    1    4    4    0    0 -0.68792438306E+02 -0.32233637044E+02  0.24935616281E+03  0.26067202162E+03  0.00000000000E+00 0. -1.
         13    1    4    4    0    0  0.17247252033E+02  0.18837112312E+02  0.38300777425E+02  0.46035356568E+02  0.00000000000E+00 0.  1.
         -3    1    1    2    0  502  0.94871813601E+02  0.12712653444E+03  0.55505659861E+03  0.57727778792E+03  0.00000000000E+00 0.  1.
<scales pt_clust_5="13000.00000" pt_clust_6="13000.00000" pt_clust_7="13000.00000" pt_clust_8="13000.00000" pt_clust_9="158.62477"></scales>
<clustering>
<clus scale="   81.723">  5  6 -1 -1</clus>
<clus scale="   92.122">  7  8 -1 -1</clus>
<clus scale="  106.250">  5  7 -1 -1</clus>
<clus scale="  158.625">  1  9  2 -1</clus>
<clus scale="  158.625">  1  5  2 -1</clus>
</clustering>
</event>
<event>
 9    1  0.9171696E-005  0.2168475E+03  0.7546771E-02  0.1178442E+00
         -4   -1    0    0    0  501 -0.00000000000E+00  0.00000000000E+00  0.62157533874E+03  0.62157533874E+03  0.00000000000E+00 0.  1.
         21   -1    0    0  501  502  0.00000000000E+00 -0.00000000000E+00 -0.13925891893E+03  0.13925891893E+03  0.00000000000E+00 0. -1.
        -24    2    1    2    0    0  0.63743774380E-01 -0.97096211868E+01  0.72710150126E+02  0.10871339370E+03  0.80234376868E+02 0.  0.
         23    2    1    2    0    0  0.19417449823E+03  0.50141007452E+02  0.24243883675E+02  0.21868417863E+03  0.83768417077E+02 0.  0.
         11    1    3    3    0    0 -0.19739930112E+02 -0.37301868735E+02  0.57931347759E+02  0.71673811850E+02  0.00000000000E+00 0. -1.
        -12    1    3    3    0    0  0.19803673886E+02  0.27592247548E+02  0.14778802367E+02  0.37039581849E+02  0.00000000000E+00 0.  1.
        -13    1    4    4    0    0  0.14888092765E+02  0.34201305876E+02  0.25569121592E+01  0.37388800858E+02  0.00000000000E+00 0.  1.
         13    1    4    4    0    0  0.17928640546E+03  0.15939701576E+02  0.21686971516E+02  0.18129537778E+03  0.00000000000E+00 0. -1.
         -3    1    1    2    0  502 -0.19423824200E+03 -0.40431386265E+02  0.38536238601E+03  0.43343668534E+03  0.00000000000E+00 0.  1.
<scales pt_clust_5="13000.00000" pt_clust_6="13000.00000" pt_clust_7="13000.00000" pt_clust_8="13000.00000" pt_clust_9="200.01427"></scales>
<clustering>
<clus scale="   80.234">  5  6 -1 -1</clus>
<clus scale="   80.820">  1  5  2 -1</clus>
<clus scale="   83.768">  7  8 -1 -1</clus>
<clus scale="  200.014">  2  9  1 -1</clus>
<clus scale="  200.014">  2  5  1 -1</clus>
</clustering>
</event>
<event>
 9    1  0.9171696E-005  0.9524896E+02  0.7546771E-02  0.1292581E+00
         -4   -1    0    0    0  501 -0.00000000000E+00  0.00000000000E+00  0.78605693431E+02  0.78605693431E+02  0.00000000000E+00 0.  1.
         21   -1    0    0  501  502  0.00000000000E+00 -0.00000000000E+00 -0.25121133700E+03  0.25121133700E+03  0.00000000000E+00 0.  1.
         23    2    1    2    0    0  0.62428545233E+02  0.60160516585E+00 -0.77231594270E+02  0.12694509550E+03  0.79073718330E+02 0.  0.
        -24    2    1    2    0    0 -0.23910357295E+02 -0.16818281356E+02 -0.12410519926E+03  0.15215595750E+03  0.83034782746E+02 0.  0.
         11    1    4    4    0    0  0.26355917139E+02 -0.25841905286E+02 -0.49565515821E+02  0.61799504817E+02  0.00000000000E+00 0. -1.
        -12    1    4    4    0    0 -0.50266274434E+02  0.90236239304E+01 -0.74539683436E+02  0.90356452681E+02  0.00000000000E+00 0.  1.
        -11    1    3    3    0    0  0.52988810557E+02  0.35394090899E+02 -0.57594355463E+02  0.85893337903E+02  0.00000000000E+00 0.  1.
         11    1    3    3    0    0  0.94397346758E+01 -0.34792485733E+02 -0.19637238806E+02  0.41051757602E+02  0.00000000000E+00 0. -1.
         -3    1    1    2    0  502 -0.38518187937E+02  0.16216676190E+02  0.28731149958E+02  0.50715977429E+02  0.00000000000E+00 0.  1.
<scales pt_clust_5="13000.00000" pt_clust_6="13000.00000" pt_clust_7="13000.00000" pt_clust_8="13000.00000" pt_clust_9="41.79274"></scales>
<clustering>
<clus scale="   41.793">  2  9  1 -1</clus>
<clus scale="   79.074">  7  8 -1 -1</clus>
<clus scale="   83.035">  5  6 -1 -1</clus>
<clus scale="   91.816">  1  7  2 -1</clus>
<clus scale="   41.793">  2  5  1 -1</clus>
</clustering>
</event>
<event>
 9    1  0.9171696E-005  0.1831443E+03  0.7546771E-02  0.1191602E+00
          1   -1    0    0  502    0 -0.00000000000E+00  0.00000000000E+00  0.88002377096E+03  0.88002377096E+03  0.00000000000E+00 0. -1.
         21   -1    0    0  501  502  0.00000000000E+00 -0.00000000000E+00 -0.82191687261E+02  0.82191687261E+02  0.00000000000E+00 0. -1.
         23    2    1    2    0    0  0.17056733890E+02 -0.34101748043E+02  0.15465631595E+02  0.10124167351E+03  0.92503131324E+02 0.  0.
        -24    2    1    2    0    0  0.48785045446E+02 -0.13140121820E+03  0.51446841236E+03  0.53926626002E+03  0.80523854068E+02 0.  0.
         11    1    4    4    0    0  0.57946490234E+02 -0.13802153732E+03  0.46404650356E+03  0.48759296340E+03  0.00000000000E+00 0. -1.
        -12    1    4    4    0    0 -0.91614447878E+01  0.66203191219E+01  0.50421908804E+02  0.51673296618E+02  0.00000000000E+00 0.  1.
        -11    1    3    3    0    0  0.35431169815E+02  0.18487136241E+02  0.21202929783E+02  0.45240537488E+02  0.00000000000E+00 0.  1.
         11    1    3    3    0    0 -0.18374435924E+02 -0.52588884284E+02 -0.57372981877E+01  0.56001136026E+02  0.00000000000E+00 0. -1.
          2    1    1    2  501    0 -0.65841779337E+02  0.16550296624E+03  0.26789803974E+03  0.32170752468E+03  0.00000000000E+00 0. -1.
<scales pt_clust_5="13000.00000" pt_clust_6="13000.00000" pt_clust_7="13000.00000" pt_clust_8="13000.00000" pt_clust_9="164.49237"></scales>
<clustering>
<clus scale="   80.524">  5  6 -1 -1</clus>
<clus scale="   92.503">  7  8 -1 -1</clus>
<clus scale="  100.053">  1  7  2 -1</clus>
<clus scale="  164.492">  2  9  1 -1</clus>
<clus scale="  164.492">  2  5  1 -1</clus>
</clustering>
</event>
<event>
 9    1  0.9171696E-005  0.1649040E+03  0.7546771E-02  0.1208075E+00
         21   -1    0    0  501  502  0.00000000000E+00  0.00000000000E+00  0.65140687891E+02  0.65140687891E+02  0.00000000000E+00 0.  1.
         -4   -1    0    0    0  501 -0.00000000000E+00 -0.00000000000E+00 -0.70530463163E+03  0.70530463163E+03  0.00000000000E+00 0.  1.
        -24    2    1    2    0    0 -0.44344465786E+02 -0.29367400740E+02 -0.26457402300E+03  0.28139297718E+03  0.79710213201E+02 0.  0.
         23    2    1    2    0    0 -0.72913665352E+02  0.11361940426E+03 -0.15434378024E+03  0.22485975331E+03  0.92272068028E+02 0.  0.
         13    1    3    3    0    0 -0.48973819706E+02 -0.14085070339E+02 -0.72283234400E+02  0.88440319981E+02  0.00000000000E+00 0. -1.
        -14    1    3    3    0    0  0.46293539196E+01 -0.15282330401E+02 -0.19229078860E+03  0.19295265720E+03  0.00000000000E+00 0.  1.
        -13    1    4    4    0    0  0.70011016363E+01  0.32719902844E+02 -0.39024834648E+00  0.33462811598E+02  0.00000000000E+00 0. -1.
         13    1    4    4    0    0 -0.79914766988E+02  0.80899501416E+02 -0.15395353190E+03  0.19139694171E+03  0.00000000000E+00 0.  1.
         -3    1    1    2    0  502  0.11725813114E+03 -0.84252003520E+02 -0.22124614049E+03  0.26419258903E+03  0.00000000000E+00 0.  1.
<scales pt_clust_5="13000.00000" pt_clust_6="13000.00000" pt_clust_7="13000.00000" pt_clust_8="13000.00000" pt_clust_9="136.67192"></scales>
<clustering>
<clus scale="   79.710">  5  6 -1 -1</clus>
<clus scale="   92.272">  7  8 -1 -1</clus>
<clus scale="   95.826">  2  5  1 -1</clus>
<clus scale="  136.672">  1  9  2 -1</clus>
<clus scale="  136.672">  1  5  2 -1</clus>
</clustering>
</event>
<event>
 9    1  0.9171696E-005  0.2402833E+03  0.7546771E-02  0.1133002E+00
         21   -1    0    0  501  502  0.00000000000E+00  0.00000000000E+00  0.10828959267E+03  0.10828959267E+03  0.00000000000E+00 0. -1.
          1   -1    0    0  502    0 -0.00000000000E+00 -0.00000000000E+00 -0.12388482720E+04  0.12388482720E+04  0.00000000000E+00 0. -1.
        -24    2    1    2    0    0 -0.14168834517E+03 -0.50497648178E+02 -0.60911892548E+03  0.63308130740E+03  0.84501341784E+02 0.  0.
         23    2    1    2    0    0  0.61988714030E+02 -0.19813453413E+03 -0.25820836000E+03  0.34329954791E+03  0.89906218576E+02 0.  0.
         13    1    3    3    0    0 -0.88800233510E+02 -0.66970619159E+02 -0.47746552368E+03  0.49024878542E+03  0.00000000000E+00 0. -1.
        -14    1    3    3    0    0 -0.52888111657E+02  0.16472970981E+02 -0.13165340180E+03  0.14283252197E+03  0.00000000000E+00 0.  1.
        -11    1    4    4    0    0  0.54161554404E+02 -0.76509590845E+02 -0.16537167746E+03  0.19009203869E+03  0.00000000000E+00 0.  1.
         11    1    4    4    0    0  0.78271596260E+01 -0.12162494328E+03 -0.92836682541E+02  0.15320750922E+03  0.00000000000E+00 0. -1.
          2    1    1    2  501    0  0.79699631137E+02  0.24863218231E+03 -0.26323139383E+03  0.37075700935E+03  0.00000000000E+00 0. -1.
<scales pt_clust_5="13000.00000" pt_clust_6="13000.00000" pt_clust_7="13000.00000" pt_clust_8="13000.00000" pt_clust_9="222.82945"></scales>
<clustering>
<clus scale="   84.501">  5  6 -1 -1</clus>
<clus scale="   89.906">  7  8 -1 -1</clus>
<clus scale="  172.528">  2  5  1 -1</clus>
<clus scale="  222.829">  1  9  2 -1</clus>
<clus scale="  222.829">  1  5  2 -1</clus>
</clustering>
</event>
<event>
 9    1  0.1372848E-004  0.1190608E+03  0.7546771E-02  0.1246012E+00
         -2   -1    0    0    0  501 -0.00000000000E+00  0.00000000000E+00  0.10484129891E+03  0.10484129891E+03  0.00000000000E+00 0.  1.
         21   -1    0    0  501  502  0.00000000000E+00 -0.00000000000E+00 -0.61349126647E+03  0.61349126647E+03  0.00000000000E+00 0.  1.
        -24    2    1    2    0    0  0.54551681129E+01  0.72887097463E+02  0.49243645588E+02  0.12886248748E+03  0.94012319482E+02 0.  0.
         23    2    1    2    0    0 -0.55285980464E+02 -0.67399540522E+02 -0.48564287141E+03  0.50153036661E+03  0.89913694047E+02 0.  0.
         11    1    3    3    0    0 -0.21770693282E+02 -0.12114206886E+02  0.27279968673E+02  0.36944739616E+02  0.00000000000E+00 0. -1.
        -12    1    3    3    0    0  0.27225861395E+02  0.85001304349E+02  0.21963676915E+02  0.91917747869E+02  0.00000000000E+00 0.  1.
        -11    1    4    4    0    0  0.23871777325E+02 -0.19804184861E+02 -0.88168513750E+02  0.93465257222E+02  0.00000000000E+00 0. -1.
         11    1    4    4    0    0 -0.79157757789E+02 -0.47595355661E+02 -0.39747435766E+03  0.40806510939E+03  0.00000000000E+00 0.  1.
         -1    1    1    2    0  502  0.49830812352E+02 -0.54875569411E+01 -0.72250741732E+02  0.87939711289E+02  0.00000000000E+00 0.  1.
<scales pt_clust_5="13000.00000" pt_clust_6="13000.00000" pt_clust_7="13000.00000" pt_clust_8="13000.00000" pt_clust_9="50.13206"></scales>
<clustering>
<clus scale="   50.132">  2  9  1 -1</clus>
<clus scale="   89.914">  7  8 -1 -1</clus>
<clus scale="   94.012">  5  6 -1 -1</clus>
<clus scale="  115.852">  2  7  1 -1</clus>
<clus scale="   50.132">  2  5  1 -1</clus>
</clustering>
</event>
<event>
 9    1  0.9171696E-005  0.9791597E+02  0.7546771E-02  0.1291048E+00
         21   -1    0    0  501  502  0.00000000000E+00  0.00000000000E+00  0.13236159484E+03  0.13236159484E+03  0.00000000000E+00 0. -1.
          1   -1    0    0  502    0 -0.00000000000E+00 -0.00000000000E+00 -0.40988082542E+03  0.40988082542E+03  0.00000000000E+00 0. -1.
         23    2    1    2    0    0  0.15213286293E+02 -0.28048675257E+02 -0.33942359807E+03  0.35295546931E+03  0.91383872351E+02 0.  0.
        -24    2    1    2    0    0  0.13234128877E+02  0.81597654312E+02  0.22311618259E+02  0.11686917428E+03  0.79544177852E+02 0.  0.
         13    1    4    4    0    0  0.46377467811E+02  0.42882272689E+02  0.18225220198E+02  0.65741292068E+02  0.00000000000E+00 0. -1.
        -14    1    4    4    0    0 -0.33143338934E+02  0.38715381624E+02  0.40863980610E+01  0.51127882208E+02  0.00000000000E+00 0.  1.
        -13    1    3    3    0    0  0.22601952099E+02 -0.58718572135E+02 -0.25979373824E+03  0.26730414396E+03  0.00000000000E+00 0. -1.
         13    1    3    3    0    0 -0.73886658057E+01  0.30669896878E+02 -0.79629859834E+02  0.85651325349E+02  0.00000000000E+00 0.  1.
          2    1    1    2  501    0 -0.28447415170E+02 -0.53548979055E+02  0.39592749232E+02  0.72417776681E+02  0.00000000000E+00 0. -1.
<scales pt_clust_5="13000.00000" pt_clust_6="13000.00000" pt_clust_7="13000.00000" pt_clust_8="13000.00000" pt_clust_9="60.63620"></scales>
<clustering>
<clus scale="   60.636">  1  9  2 -1</clus>
<clus scale="   79.544">  5  6 -1 -1</clus>
<clus scale="   86.970">  1  5  2 -1</clus>
<clus scale="   91.384">  7  8 -1 -1</clus>
<clus scale="   60.636">  1  5  2 -1</clus>
</clustering>
</event>
<event>
 9    1  0.9171696E-005  0.2022678E+03  0.7546771E-02  0.1148511E+00
         21   -1    0    0  501  502  0.00000000000E+00  0.00000000000E+00  0.89638808441E+02  0.89638808441E+02  0.00000000000E+00 0.  1.
          1   -1    0    0  502    0 -0.00000000000E+00 -0.00000000000E+00 -0.64430232615E+03  0.64430232615E+03  0.00000000000E+00 0. -1.
        -24    2    1    2    0    0 -0.16387678119E+02 -0.19455022928E+03 -0.38846754563E+03  0.44231515734E+03  0.81346891088E+02 0.  0.
         23    2    1    2    0    0  0.15154722426E+02  0.16119142349E+03 -0.17771144858E+03  0.25631399200E+03  0.88899735206E+02 0.  0.
         13    1    3    3    0    0 -0.28707731059E+02 -0.44173417774E+02 -0.16062540069E+03  0.16904420726E+03  0.00000000000E+00 0. -1.
        -14    1    3    3    0    0  0.12320052941E+02 -0.15037681151E+03 -0.22784214494E+03  0.27327095008E+03  0.00000000000E+00 0.  1.
        -11    1    4    4    0    0  0.64598041852E+01  0.28106387917E+02  0.58410053941E+01  0.29424742239E+02  0.00000000000E+00 0.  1.
         11    1    4    4    0    0  0.86949182404E+01  0.13308503557E+03 -0.18355245397E+03  0.22688924976E+03  0.00000000000E+00 0. -1.
          2    1    1    2  501    0  0.12329556930E+01  0.33358805792E+02  0.11515476506E+02  0.35311985256E+02  0.00000000000E+00 0. -1.
<scales pt_clust_5="13000.00000" pt_clust_6="13000.00000" pt_clust_7="13000.00000" pt_clust_8="13000.00000" pt_clust_9="33.38158"></scales>
<clustering>
<clus scale="   33.382">  1  9  2 -1</clus>
<clus scale="   81.347">  5  6 -1 -1</clus>
<clus scale="   88.900">  7  8 -1 -1</clus>
<clus scale="  199.064">  2  5  1 -1</clus>
<clus scale="   33.382">  1  5  2 -1</clus>
</clustering>
</event>
<event>
 9    1  0.9171696E-005  0.1375842E+03  0.7546771E-02  0.1218320E+00
          1   -1    0    0  502    0 -0.00000000000E+00  0.00000000000E+00  0.47134283540E+03  0.47134283540E+03  0.00000000000E+00 0. -1.
         21   -1    0    0  501  502  0.00000000000E+00 -0.00000000000E+00 -0.10871014115E+03  0.10871014115E+03  0.00000000000E+00 0.  1.
         23    2    1    2    0    0  0.10943393513E+03  0.13438295203E+02  0.33962007980E+03  0.36868403457E+03  0.91813641706E+02 0.  0.
        -24    2    1    2    0    0 -0.77290086224E+02 -0.44565740321E+02  0.74131144775E+02  0.14343331801E+03  0.84367217876E+02 0.  0.
         11    1    4    4    0    0 -0.31390349942E+02  0.24270951156E+02  0.18856694911E+02  0.43931857261E+02  0.00000000000E+00 0. -1.
        -12    1    4    4    0    0 -0.45899736282E+02 -0.68836691477E+02  0.55274449864E+02  0.99501460753E+02  0.00000000000E+00 0.  1.
        -11    1    3    3    0    0  0.79533373144E+02  0.47485013204E+02  0.27152528847E+03  0.28689086114E+03  0.00000000000E+00 0.  1.
         11    1    3    3    0    0  0.29900561986E+02 -0.34046718001E+02  0.68094791328E+02  0.81793173430E+02  0.00000000000E+00 0. -1.
          2    1    1    2  501    0 -0.32143848907E+02  0.31127445118E+02 -0.51118530325E+02  0.67935623974E+02  0.00000000000E+00 0. -1.
<scales pt_clust_5="13000.00000" pt_clust_6="13000.00000" pt_clust_7="13000.00000" pt_clust_8="13000.00000" pt_clust_9="44.74533"></scales>
<clustering>
<clus scale="   44.745">  2  9  1 -1</clus>
<clus scale="   84.367">  5  6 -1 -1</clus>
<clus scale="   91.814">  7  8 -1 -1</clus>
<clus scale="  132.731">  2  5  1 -1</clus>
<clus scale="   44.745">  2  5  1 -1</clus>
</clustering>
</event>
<event>
 9    1  0.9171696E-005  0.1179578E+03  0.7546771E-02  0.1252188E+00
         21   -1    0    0  501  502  0.00000000000E+00  0.00000000000E+00  0.57403014947E+03  0.57403014947E+03  0.00000000000E+00 0. -1.
         -2   -1    0    0    0  501 -0.00000000000E+00 -0.00000000000E+00 -0.47398442000E+02  0.47398442000E+02  0.00000000000E+00 0.  1.
        -24    2    1    2    0    0 -0.16728442819E+02 -0.70749616286E+02  0.20564301717E+03  0.23195348425E+03  0.78917801172E+02 0.  0.
         23    2    1    2    0    0 -0.43015409141E+02  0.67104691891E+02  0.30225826091E+03  0.32675794604E+03  0.95170026345E+02 0.  0.
         11    1    3    3    0    0  0.78928447844E+01 -0.60904229950E+02  0.19307903755E+03  0.20261080170E+03  0.00000000000E+00 0. -1.
        -12    1    3    3    0    0 -0.24621287604E+02 -0.98453863358E+01  0.12563979619E+02  0.29342682550E+02  0.00000000000E+00 0.  1.
        -13    1    4    4    0    0  0.30370486949E+02  0.18492230328E+02  0.73541204317E+02  0.81686215437E+02  0.00000000000E+00 0.  1.
         13    1    4    4    0    0 -0.73385896090E+02  0.48612461563E+02  0.22871705660E+03  0.24507173061E+03  0.00000000000E+00 0. -1.
         -1    1    1    2    0  502  0.59743851960E+02  0.36449243954E+01  0.18730429387E+02  0.62717161176E+02  0.00000000000E+00 0.  1.
<scales pt_clust_5="13000.00000" pt_clust_6="13000.00000" pt_clust_7="13000.00000" pt_clust_8="13000.00000" pt_clust_9="59.85497"></scales>
<clustering>
<clus scale="   59.855">  1  9  2 -1</clus>
<clus scale="   78.918">  5  6 -1 -1</clus>
<clus scale="   95.170">  7  8 -1 -1</clus>
<clus scale="  105.284">  2  5  1 -1</clus>
<clus scale="   59.855">  1  5  2 -1</clus>
</clustering>
</event>
<event>
 9    1  0.9171696E-005  0.1509922E+03  0.7546771E-02  0.1225458E+00
          1   -1    0    0  502    0 -0.00000000000E+00  0.00000000000E+00  0.19025022922E+03  0.19025022922E+03  0.00000000000E+00 0. -1.
         21   -1    0    0  501  502  0.00000000000E+00 -0.00000000000E+00 -0.33263892807E+03  0.33263892807E+03  0.00000000000E+00 0. -1.
        -24    2    1    2    0    0 -0.76902639130E+01 -0.25338256789E+02  0.11413198803E+03  0.14319715595E+03  0.82329504832E+02 0.  0.
         23    2    1    2    0    0 -0.14460796278E+02 -0.10137888436E+03 -0.73151108475E+02  0.15570024788E+03  0.91677094721E+02 0.  0.
         13    1    3    3    0    0 -0.24385273319E+02 -0.43837149315E+02  0.37542624365E+02  0.62656091955E+02  0.00000000000E+00 0. -1.
        -14    1    3    3    0    0  0.16695009406E+02  0.18498892526E+02  0.76589363662E+02  0.80541063998E+02  0.00000000000E+00 0.  1.
        -13    1    4    4    0    0 -0.31818166532E+02 -0.23531544076E+02  0.96488529201E+01  0.40733642738E+02  0.00000000000E+00 0.  1.
         13    1    4    4    0    0  0.17357370253E+02 -0.77847340286E+02 -0.82799961395E+02  0.11496660515E+03  0.00000000000E+00 0. -1.
          2    1    1    2  501    0  0.22151060191E+02  0.12671714115E+03 -0.18336957840E+03  0.22399175345E+03  0.00000000000E+00 0. -1.
<scales pt_clust_5="13000.00000" pt_clust_6="13000.00000" pt_clust_7="13000.00000" pt_clust_8="13000.00000" pt_clust_9="119.97481"></scales>
<clustering>
<clus scale="   82.330">  5  6 -1 -1</clus>
<clus scale="   86.483">  1  5  2 -1</clus>
<clus scale="   91.677">  7  8 -1 -1</clus>
<clus scale="  119.975">  2  9  1 -1</clus>
<clus scale="  119.975">  2  5  1 -1</clus>
</clustering>
</event>
<event>
 9    1  0.9171696E-005  0.9631802E+02  0.7546771E-02  0.1295795E+00
         -2   -1    0    0    0  501 -0.00000000000E+00  0.00000000000E+00  0.58488901470E+03  0.58488901470E+03  0.00000000000E+00 0.  1.
         21   -1    0    0  501  502  0.00000000000E+00 -0.00000000000E+00 -0.30145447107E+02  0.30145447107E+02  0.00000000000E+00 0. -1.
        -24    2    1    2    0    0  0.29425724921E+02  0.14736136982E+02  0.37722568919E+03  0.38718317038E+03  0.80799503841E+02 0.  0.
         23    2    1    2    0    0  0.14279270940E+02  0.35718592990E+01  0.12674999577E+03  0.15840572066E+03  0.93862426748E+02 0.  0.
         11    1    3    3    0    0 -0.21209427694E+02  0.26323118788E+02  0.11515425253E+03  0.12001353374E+03  0.00000000000E+00 0. -1.
        -12    1    3    3    0    0  0.50635152615E+02 -0.11586981806E+02  0.26207143667E+03  0.26716963664E+03  0.00000000000E+00 0.  1.
        -13    1    4    4    0    0  0.23389177459E+02 -0.32007975022E+02  0.11203161454E+03  0.11883874260E+03  0.00000000000E+00 0.  1.
         13    1    4    4    0    0 -0.91099065194E+01  0.35579834321E+02  0.14718381230E+02  0.39566978065E+02  0.00000000000E+00 0. -1.
         -1    1    1    2    0  502 -0.43704995860E+02 -0.18307996281E+02  0.50767882633E+02  0.69445570759E+02  0.00000000000E+00 0.  1.
<scales pt_clust_5="13000.00000" pt_clust_6="13000.00000" pt_clust_7="13000.00000" pt_clust_8="13000.00000" pt_clust_9="47.38470"></scales>
<clustering>
<clus scale="   47.385">  2  9  1 -1</clus>
<clus scale="   80.800">  5  6 -1 -1</clus>
<clus scale="   83.639">  1  5  2 -1</clus>
<clus scale="   93.862">  7  8 -1 -1</clus>
<clus scale="   47.385">  2  5  1 -1</clus>
</clustering>
</event>
<event>
 9    1  0.9171696E-005  0.9779089E+02  0.7546771E-02  0.1291214E+00
         21   -1    0    0  501  502  0.00000000000E+00  0.00000000000E+00  0.91602144869E+02  0.91602144869E+02  0.00000000000E+00 0.  1.
          1   -1    0    0  502    0 -0.00000000000E+00 -0.00000000000E+00 -0.29263390047E+03  0.29263390047E+03  0.00000000000E+00 0. -1.
        -24    2    1    2    0    0 -0.26900814301E+02 -0.16853292748E+02 -0.24125798293E+03  0.25650538116E+03  0.81128964924E+02 0.  0.
         23    2    1    2    0    0  0.35350561536E+02 -0.20331570031E+01  0.25523190516E+02  0.10234808149E+03  0.92573757628E+02 0.  0.
         11    1    3    3    0    0 -0.47216314097E+02 -0.28700418937E+02 -0.21137800255E+03  0.21848055824E+03  0.00000000000E+00 0. -1.
        -12    1    3    3    0    0  0.20315499797E+02  0.11847126189E+02 -0.29879980373E+02  0.38024822918E+02  0.00000000000E+00 0.  1.
        -13    1    4    4    0    0  0.46026517653E+02 -0.39079611165E+02  0.18583876992E+02  0.63174495013E+02  0.00000000000E+00 0.  1.
         13    1    4    4    0    0 -0.10675956116E+02  0.37046454162E+02  0.69393135242E+01  0.39173586473E+02  0.00000000000E+00 0. -1.
          2    1    1    2  501    0 -0.84497472354E+01  0.18886449751E+02  0.14703036815E+02  0.25382582692E+02  0.00000000000E+00 0. -1.
<scales pt_clust_5="13000.00000" pt_clust_6="13000.00000" pt_clust_7="13000.00000" pt_clust_8="13000.00000" pt_clust_9="20.69049"></scales>
<clustering>
<clus scale="   20.690">  1  9  2 -1</clus>
<clus scale="   81.129">  5  6 -1 -1</clus>
<clus scale="   87.035">  2  5  1 -1</clus>
<clus scale="   92.574">  7  8 -1 -1</clus>
<clus scale="   20.690">  1  5  2 -1</clus>
</clustering>
</event>
<event>
 9    1  0.9171696E-005  0.1580995E+03  0.7546771E-02  0.1192572E+00
          1   -1    0    0  502    0 -0.00000000000E+00  0.00000000000E+00  0.45577446564E+03  0.45577446564E+03  0.00000000000E+00 0. -1.
         21   -1    0    0  501  502  0.00000000000E+00 -0.00000000000E+00 -0.70920545160E+02  0.70920545160E+02  0.00000000000E+00 0.  1.
        -24    2    1    2    0    0  0.11627902558E+03 -0.41159764957E+02  0.19027821072E+03  0.24087531608E+03  0.81241506520E+02 0.  0.
         23    2    1    2    0    0 -0.12533828421E+03  0.59377796504E+02  0.11131287836E+03  0.20010700060E+03  0.91743373574E+02 0.  0.
         13    1    3    3    0    0  0.60539350109E+02 -0.30668691841E+02  0.16570326521E+03  0.17906187107E+03  0.00000000000E+00 0. -1.
        -14    1    3    3    0    0  0.55739675473E+02 -0.10491073117E+02  0.24574945505E+02  0.61813445007E+02  0.00000000000E+00 0.  1.
        -11    1    4    4    0    0 -0.10580894144E+03  0.13329158765E+02  0.10505407878E+03  0.14969822321E+03  0.00000000000E+00 0. -1.
         11    1    4    4    0    0 -0.19529342761E+02  0.46048637739E+02  0.62587995853E+01  0.50408777396E+02  0.00000000000E+00 0.  1.
          2    1    1    2  501    0  0.90592586243E+01 -0.18218031546E+02  0.83262831398E+02  0.85712694116E+02  0.00000000000E+00 0. -1.
<scales pt_clust_5="13000.00000" pt_clust_6="13000.00000" pt_clust_7="13000.00000" pt_clust_8="13000.00000" pt_clust_9="20.34619"></scales>
<clustering>
<clus scale="   20.346">  2  9  1 -1</clus>
<clus scale="   81.242">  5  6 -1 -1</clus>
<clus scale="   91.743">  7  8 -1 -1</clus>
<clus scale="  152.246">  1  5  2 -1</clus>
<clus scale="   20.346">  2  5  1 -1</clus>
</clustering>
</event>
<event>
 9    1  0.9171696E-005  0.1088285E+03  0.7546771E-02  0.1266409E+00
          1   -1    0    0  502    0 -0.00000000000E+00  0.00000000000E+00  0.19170420561E+03  0.19170420561E+03  0.00000000000E+00 0. -1.
         21   -1    0    0  501  502  0.00000000000E+00 -0.00000000000E+00 -0.14037554698E+03  0.14037554698E+03  0.00000000000E+00 0. -1.
         23    2    1    2    0    0  0.40576781736E+02 -0.52164229418E+02  0.14264160209E+03  0.18102724885E+03  0.89758877750E+02 0.  0.
        -24    2    1    2    0    0 -0.24174558911E+02  0.35727104368E+02 -0.51228633002E+02  0.10472795367E+03  0.80515440478E+02 0.  0.
         13    1    4    4    0    0  0.83953094942E+01  0.52455841963E+02 -0.20550463175E+02  0.56959793840E+02  0.00000000000E+00 0. -1.
        -14    1    4    4    0    0 -0.32569868406E+02 -0.16728737596E+02 -0.30678169827E+02  0.47768159829E+02  0.00000000000E+00 0.  1.
        -13    1    3    3    0    0 -0.14819317995E+01  0.23938201204E+02  0.23955484994E+02  0.33898360727E+02  0.00000000000E+00 0.  1.
         13    1    3    3    0    0  0.42058713536E+02 -0.76102430622E+02  0.11868611709E+03  0.14712888813E+03  0.00000000000E+00 0. -1.
          2    1    1    2  501    0 -0.16402222825E+02  0.16437125050E+02 -0.40084310457E+02  0.46324550061E+02  0.00000000000E+00 0. -1.
<scales pt_clust_5="13000.00000" pt_clust_6="13000.00000" pt_clust_7="13000.00000" pt_clust_8="13000.00000" pt_clust_9="23.22094"></scales>
<clustering>
<clus scale="   23.221">  2  9  1 -1</clus>
<clus scale="   80.515">  5  6 -1 -1</clus>
<clus scale="   89.759">  7  8 -1 -1</clus>
<clus scale="  101.340">  2  5  1 -1</clus>
<clus scale="   23.221">  2  5  1 -1</clus>
</clustering>
</event>
<event>
 9    1  0.9171696E-005  0.1353497E+03  0.7546771E-02  0.1221426E+00
         21   -1    0    0  501  502  0.00000000000E+00  0.00000000000E+00  0.67665882556E+03  0.67665882556E+03  0.00000000000E+00 0.  1.
          1   -1    0    0  502    0 -0.00000000000E+00 -0.00000000000E+00 -0.60551403218E+02  0.60551403218E+02  0.00000000000E+00 0. -1.
        -24    2    1    2    0    0  0.10000079929E+03  0.16047969281E+02  0.41337683514E+02  0.13627953141E+03  0.81274900341E+02 0.  0.
         23    2    1    2    0    0 -0.11023298969E+03  0.65086242886E+01  0.53984263383E+03  0.55811247348E+03  0.88689286538E+02 0.  0.
         11    1    3    3    0    0  0.11239220743E+03  0.11202769909E+02  0.25864665335E+02  0.11587273734E+03  0.00000000000E+00 0. -1.
        -12    1    3    3    0    0 -0.12391408142E+02  0.48451993711E+01  0.15473018178E+02  0.20406794070E+02  0.00000000000E+00 0.  1.
        -13    1    4    4    0    0 -0.42238740442E+02  0.44478255451E+02  0.18797424174E+03  0.19772896086E+03  0.00000000000E+00 0. -1.
         13    1    4    4    0    0 -0.67994249249E+02 -0.37969631162E+02  0.35186839209E+03  0.36038351263E+03  0.00000000000E+00 0.  1.
          2    1    1    2  501    0  0.10232190402E+02 -0.22556593569E+02  0.34927104999E+02  0.42818223894E+02  0.00000000000E+00 0. -1.
<scales pt_clust_5="13000.00000" pt_clust_6="13000.00000" pt_clust_7="13000.00000" pt_clust_8="13000.00000" pt_clust_9="24.76890"></scales>
<clustering>
<clus scale="   24.769">  1  9  2 -1</clus>
<clus scale="   81.275">  5  6 -1 -1</clus>
<clus scale="   88.689">  7  8 -1 -1</clus>
<clus scale="  130.611">  2  5  1 -1</clus>
<clus scale="   24.769">  1  5  2 -1</clus>
</clustering>
</event>
<event>
 9    1  0.9171696E-005  0.9296228E+02  0.7546771E-02  0.1301388E+00
          3   -1    0    0  502    0 -0.00000000000E+00  0.00000000000E+00  0.23680087804E+03  0.23680087804E+03  0.00000000000E+00 0. -1.
         21   -1    0    0  501  502  0.00000000000E+00 -0.00000000000E+00 -0.14146232194E+03  0.14146232194E+03  0.00000000000E+00 0.  1.
         23    2    1    2    0    0 -0.72035269586E+01  0.55326563264E+01  0.15050982936E+03  0.17683953970E+03  0.92393251827E+02 0.  0.
        -24    2    1    2    0    0 -0.19073385286E+02 -0.42218461213E+02 -0.99782566365E+02  0.13796901608E+03  0.83262814948E+02 0.  0.
         13    1    4    4    0    0  0.15308659964E+02 -0.24862891374E+02  0.18771650604E+01  0.29258198613E+02  0.00000000000E+00 0. -1.
        -14    1    4    4    0    0 -0.34382045251E+02 -0.17355569839E+02 -0.10165973143E+03  0.10871081746E+03  0.00000000000E+00 0.  1.
        -11    1    3    3    0    0  0.55711854282E+01  0.35455304466E+02  0.13697860586E+03  0.14160245473E+03  0.00000000000E+00 0.  1.
         11    1    3    3    0    0 -0.12774712387E+02 -0.29922648140E+02  0.13531223497E+02  0.35237084976E+02  0.00000000000E+00 0. -1.
          4    1    1    2  501    0  0.26276912245E+02  0.36685804887E+02  0.44611293110E+02  0.63454644198E+02  0.00000000000E+00 0. -1.
<scales pt_clust_5="13000.00000" pt_clust_6="13000.00000" pt_clust_7="13000.00000" pt_clust_8="13000.00000" pt_clust_9="45.12567"></scales>
<clustering>
<clus scale="   45.126">  2  9  1 -1</clus>
<clus scale="   83.263">  5  6 -1 -1</clus>
<clus scale="   83.894">  2  5  1 -1</clus>
<clus scale="   92.393">  7  8 -1 -1</clus>
<clus scale="   45.126">  2  5  1 -1</clus>
</clustering>
</event>
<event>
 9    1  0.9171696E-005  0.1279175E+03  0.7546771E-02  0.1233520E+00
          1   -1    0    0  502    0 -0.00000000000E+00  0.00000000000E+00  0.70920717443E+03  0.70920717443E+03  0.00000000000E+00 0. -1.
         21   -1    0    0  501  502  0.00000000000E+00 -0.00000000000E+00 -0.46415384786E+02  0.46415384786E+02  0.00000000000E+00 0.  1.
        -24    2    1    2    0    0  0.52611773674E+01 -0.78364440205E+02  0.28747876370E+03  0.30862866999E+03  0.80243073729E+02 0.  0.
         23    2    1    2    0    0  0.54325361943E+02  0.11882646338E+03  0.18860622689E+03  0.24687602446E+03  0.91128970605E+02 0.  0.
         11    1    3    3    0    0  0.30167459088E+02 -0.81759024980E+02  0.22318302700E+03  0.23959398426E+03  0.00000000000E+00 0. -1.
        -12    1    3    3    0    0 -0.24906281720E+02  0.33945847751E+01  0.64295736705E+02  0.69034685727E+02  0.00000000000E+00 0.  1.
        -13    1    4    4    0    0  0.55030690958E+02  0.17381027434E+02  0.73383427904E+02  0.93357402240E+02  0.00000000000E+00 0.  1.
         13    1    4    4    0    0 -0.70532901544E+00  0.10144543595E+03  0.11522279898E+03  0.15351862222E+03  0.00000000000E+00 0. -1.
          2    1    1    2  501    0 -0.59586539310E+02 -0.40462023177E+02  0.18670679905E+03  0.20011786477E+03  0.00000000000E+00 0. -1.
<scales pt_clust_5="13000.00000" pt_clust_6="13000.00000" pt_clust_7="13000.00000" pt_clust_8="13000.00000" pt_clust_9="72.02594"></scales>
<clustering>
<clus scale="   72.026">  2  9  1 -1</clus>
<clus scale="   80.243">  5  6 -1 -1</clus>
<clus scale="   91.129">  7  8 -1 -1</clus>
<clus scale="  120.405">  1  5  2 -1</clus>
<clus scale="   72.026">  2  5  1 -1</clus>
</clustering>
</event>
<event>
 9    1  0.9171696E-005  0.9552824E+02  0.7546771E-02  0.1290403E+00
         -2   -1    0    0    0  501 -0.00000000000E+00  0.00000000000E+00  0.29603897236E+03  0.29603897236E+03  0.00000000000E+00 0.  1.
         21   -1    0    0  501  502  0.00000000000E+00 -0.00000000000E+00 -0.13782978329E+03  0.13782978329E+03  0.00000000000E+00 0.  1.
        -24    2    1    2    0    0 -0.39974713599E+01  0.51972927965E+02  0.22914535344E+03  0.24849395267E+03  0.80774293528E+02 0.  0.
         23    2    1    2    0    0  0.54333022615E+02 -0.36596394539E+02 -0.84406338672E+01  0.10366925340E+03  0.79904295008E+02 0.  0.
         13    1    3    3    0    0 -0.37970939514E+02  0.48049752036E+02  0.13228631827E+03  0.14577462372E+03  0.00000000000E+00 0. -1.
        -14    1    3    3    0    0  0.33973468155E+02  0.39231759289E+01  0.96859035167E+02  0.10271932896E+03  0.00000000000E+00 0.  1.
        -13    1    4    4    0    0  0.19674045885E+02 -0.45470427622E+01  0.34421670379E+02  0.39907331044E+02  0.00000000000E+00 0.  1.
         13    1    4    4    0    0  0.34658976730E+02 -0.32049351777E+02 -0.42862304246E+02  0.63761922356E+02  0.00000000000E+00 0. -1.
         -1    1    1    2    0  502 -0.50335551255E+02 -0.15376533425E+02 -0.62495530494E+02  0.81705549579E+02  0.00000000000E+00 0.  1.
<scales pt_clust_5="13000.00000" pt_clust_6="13000.00000" pt_clust_7="13000.00000" pt_clust_8="13000.00000" pt_clust_9="52.63179"></scales>
<clustering>
<clus scale="   52.632">  2  9  1 -1</clus>
<clus scale="   79.904">  7  8 -1 -1</clus>
<clus scale="   80.774">  5  6 -1 -1</clus>
<clus scale="   94.794">  2  7  1 -1</clus>
<clus scale="   52.632">  2  5  1 -1</clus>
</clustering>
</event>
<event>
 9    1  0.9171696E-005  0.1672992E+03  0.7546771E-02  0.1199831E+00
          3   -1    0    0  502    0 -0.00000000000E+00  0.00000000000E+00  0.32430366354E+03  0.32430366354E+03  0.00000000000E+00 0. -1.
         21   -1    0    0  501  502  0.00000000000E+00 -0.00000000000E+00 -0.20810456214E+03  0.20810456214E+03  0.00000000000E+00 0. -1.
        -24    2    1    2    0    0  0.56805177528E+02  0.47654703039E+02 -0.78521810844E+02  0.13485183085E+03  0.80756068443E+02 0.  0.
         23    2    1    2    0    0 -0.12888652322E+03  0.77280472391E+02  0.18322718573E+03  0.25286145986E+03  0.88219663404E+02 0.  0.
         11    1    3    3    0    0  0.71607981664E+02  0.45969709286E+02 -0.83425850915E+02  0.11916706680E+03  0.00000000000E+00 0. -1.
        -12    1    3    3    0    0 -0.14802804136E+02  0.16849937528E+01  0.49040400712E+01  0.15684764048E+02  0.00000000000E+00 0.  1.
        -11    1    4    4    0    0  0.10938809699E+02  0.20334126793E+02  0.20404009958E+02  0.30813274614E+02  0.00000000000E+00 0.  1.
         11    1    4    4    0    0 -0.13982533291E+03  0.56946345598E+02  0.16282317578E+03  0.22204818525E+03  0.00000000000E+00 0. -1.
          4    1    1    2  501    0  0.72081345687E+02 -0.12493517543E+03  0.11493726516E+02  0.14469493497E+03  0.00000000000E+00 0. -1.
<scales pt_clust_5="13000.00000" pt_clust_6="13000.00000" pt_clust_7="13000.00000" pt_clust_8="13000.00000" pt_clust_9="142.14886"></scales>
<clustering>
<clus scale="   80.756">  5  6 -1 -1</clus>
<clus scale="   88.220">  7  8 -1 -1</clus>
<clus scale="  109.633">  1  5  2 -1</clus>
<clus scale="  142.149">  2  9  1 -1</clus>
<clus scale="  142.149">  2  5  1 -1</clus>
</clustering>
</event>
<event>
 9    1  0.9171696E-005  0.2064379E+03  0.7546771E-02  0.1145644E+00
          1   -1    0    0  502    0 -0.00000000000E+00  0.00000000000E+00  0.67895827089E+03  0.67895827089E+03  0.00000000000E+00 0. -1.
         21   -1    0    0  501  502  0.00000000000E+00 -0.00000000000E+00 -0.48111185342E+03  0.48111185342E+03  0.00000000000E+00 0. -1.
        -24    2    1    2    0    0 -0.12658889175E+03  0.12294010313E+03  0.49090852166E+03  0.52775099609E+03  0.79943234651E+02 0.  0.
         23    2    1    2    0    0  0.31294716648E+03 -0.14187532956E+03 -0.26260455497E+03  0.44254133272E+03  0.93899631134E+02 0.  0.
         11    1    3    3    0    0 -0.11531363107E+03  0.60448329675E+02  0.32568000957E+03  0.35074022110E+03  0.00000000000E+00 0. -1.
        -12    1    3    3    0    0 -0.11275260687E+02  0.62491773456E+02  0.16522851209E+03  0.17701077499E+03  0.00000000000E+00 0.  1.
        -11    1    4    4    0    0  0.98730146156E+02 -0.77364480323E+02 -0.13790456459E+03  0.18641505709E+03  0.00000000000E+00 0.  1.
         11    1    4    4    0    0  0.21421702032E+03 -0.64510849233E+02 -0.12469999038E+03  0.25612627563E+03  0.00000000000E+00 0. -1.
          2    1    1    2  501    0 -0.18635827473E+03  0.18935226425E+02 -0.30457549221E+02  0.18977779550E+03  0.00000000000E+00 0. -1.
<scales pt_clust_5="13000.00000" pt_clust_6="13000.00000" pt_clust_7="13000.00000" pt_clust_8="13000.00000" pt_clust_9="187.31778"></scales>
<clustering>
<clus scale="   79.943">  5  6 -1 -1</clus>
<clus scale="   93.900">  7  8 -1 -1</clus>
<clus scale="  187.318">  2  9  1 -1</clus>
<clus scale="  200.475">  1  5  2 -1</clus>
<clus scale="  187.318">  2  5  1 -1</clus>
</clustering>
</event>
<event>
 9    1  0.9171696E-005  0.1271721E+03  0.7546771E-02  0.1234749E+00
         21   -1    0    0  501  502  0.00000000000E+00  0.00000000000E+00  0.13044177267E+03  0.13044177267E+03  0.00000000000E+00 0. -1.
         -2   -1    0    0    0  501 -0.00000000000E+00 -0.00000000000E+00 -0.19623494904E+03  0.19623494904E+03  0.00000000000E+00 0.  1.
        -24    2    1    2    0    0 -0.45717780750E+02 -0.79519437702E+02 -0.11550007214E+03  0.16783041247E+03  0.80083233173E+02 0.  0.
         23    2    1    2    0    0  0.26577236683E+02  0.73488027257E+02  0.62184695155E+02  0.13521510495E+03  0.91155628652E+02 0.  0.
         11    1    3    3    0    0  0.12843477938E+02 -0.24547229270E+02 -0.70534207707E+02  0.75779917176E+02  0.00000000000E+00 0. -1.
        -12    1    3    3    0    0 -0.58561258688E+02 -0.54972208432E+02 -0.44965864431E+02  0.92050495289E+02  0.00000000000E+00 0.  1.
        -13    1    4    4    0    0 -0.13446608565E+01  0.88168326241E+02  0.50218515071E+02  0.10147591399E+03  0.00000000000E+00 0. -1.
         13    1    4    4    0    0  0.27921897539E+02 -0.14680298984E+02  0.11966180084E+02  0.33739190955E+02  0.00000000000E+00 0.  1.
         -1    1    1    2    0  502  0.19140544067E+02  0.60314104450E+01 -0.12477799386E+02  0.23631204300E+02  0.00000000000E+00 0.  1.
<scales pt_clust_5="13000.00000" pt_clust_6="13000.00000" pt_clust_7="13000.00000" pt_clust_8="13000.00000" pt_clust_9="20.06835"></scales>
<clustering>
<clus scale="   20.068">  1  9  2 -1</clus>
<clus scale="   80.083">  5  6 -1 -1</clus>
<clus scale="   91.156">  7  8 -1 -1</clus>
<clus scale="  119.485">  2  5  1 -1</clus>
<clus scale="   20.068">  1  5  2 -1</clus>
</clustering>
</event>
<event>
 9    1  0.1215653E-004  0.1044601E+03  0.7546771E-02  0.1281910E+00
         -4   -1    0    0    0  501 -0.00000000000E+00  0.00000000000E+00  0.87900584978E+03  0.87900584978E+03  0.00000000000E+00 0.  1.
         21   -1    0    0  501  502  0.00000000000E+00 -0.00000000000E+00 -0.48505361141E+02  0.48505361141E+02  0.00000000000E+00 0. -1.
        -24    2    1    2    0    0  0.26154557282E+02  0.17491473995E+02  0.74466222446E+03  0.74961899288E+03  0.80104890144E+02 0.  0.
         23    2    1    2    0    0 -0.15403403217E+02  0.25641529968E+02  0.82373078101E+02  0.13330465408E+03  0.10044926040E+03 0.  0.
         11    1    3    3    0    0  0.20299507331E+02 -0.24677024523E+02  0.14652867784E+03  0.14997226065E+03  0.00000000000E+00 0. -1.
        -12    1    3    3    0    0  0.58550499503E+01  0.42168498517E+02  0.59813354662E+03  0.59964673223E+03  0.00000000000E+00 0.  1.
        -11    1    4    4    0    0 -0.51300064262E+02 -0.93315484038E+01  0.27353026466E+02  0.58880917501E+02  0.00000000000E+00 0. -1.
         11    1    4    4    0    0  0.35896661045E+02  0.34973078372E+02  0.55020051635E+02  0.74423736583E+02  0.00000000000E+00 0.  1.
         -3    1    1    2    0  502 -0.10751154065E+02 -0.43133003963E+02  0.34651860766E+01  0.44587563951E+02  0.00000000000E+00 0.  1.
<scales pt_clust_5="13000.00000" pt_clust_6="13000.00000" pt_clust_7="13000.00000" pt_clust_8="13000.00000" pt_clust_9="44.45271"></scales>
<clustering>
<clus scale="   44.453">  2  9  1 -1</clus>
<clus scale="   80.105">  5  6 -1 -1</clus>
<clus scale="   85.080">  1  5  2 -1</clus>
<clus scale="  100.449">  7  8 -1 -1</clus>
<clus scale="   44.453">  2  5  1 -1</clus>
</clustering>
</event>
<event>
 9    1  0.9171696E-005  0.1620155E+03  0.7546771E-02  0.1209918E+00
          1   -1    0    0  502    0 -0.00000000000E+00  0.00000000000E+00  0.34605187279E+03  0.34605187279E+03  0.00000000000E+00 0. -1.
         21   -1    0    0  501  502  0.00000000000E+00 -0.00000000000E+00 -0.10810125959E+03  0.10810125959E+03  0.00000000000E+00 0. -1.
         23    2    1    2    0    0 -0.85437902682E+00  0.36651430306E+02  0.59658165023E+02  0.11399531201E+03  0.89954306172E+02 0.  0.
        -24    2    1    2    0    0 -0.30144486858E+02 -0.13780986458E+03  0.72018151848E+02  0.19019721031E+03  0.10530012227E+03 0.  0.
         13    1    4    4    0    0  0.34861973945E+02 -0.86361988098E+02  0.38264808230E+02  0.10068736646E+03  0.00000000000E+00 0. -1.
        -14    1    4    4    0    0 -0.65006460804E+02 -0.51447876480E+02  0.33753343618E+02  0.89509843849E+02  0.00000000000E+00 0.  1.
        -11    1    3    3    0    0  0.11967489034E+02  0.63402634217E+02  0.53221093809E+02  0.83639701373E+02  0.00000000000E+00 0. -1.
         11    1    3    3    0    0 -0.12821868060E+02 -0.26751203911E+02  0.64370712133E+01  0.30355610635E+02  0.00000000000E+00 0.  1.
          2    1    1    2  501    0  0.30998865885E+02  0.10115843427E+03  0.10627429633E+03  0.14996061007E+03  0.00000000000E+00 0. -1.
<scales pt_clust_5="13000.00000" pt_clust_6="13000.00000" pt_clust_7="13000.00000" pt_clust_8="13000.00000" pt_clust_9="123.12975"></scales>
<clustering>
<clus scale="   89.954">  7  8 -1 -1</clus>
<clus scale="   97.138">  1  7  2 -1</clus>
<clus scale="  105.300">  5  6 -1 -1</clus>
<clus scale="  123.130">  2  9  1 -1</clus>
<clus scale="  123.130">  2  5  1 -1</clus>
</clustering>
</event>
<event>
 9    1  0.9171696E-005  0.9658920E+02  0.7546771E-02  0.1291429E+00
         21   -1    0    0  501  502  0.00000000000E+00  0.00000000000E+00  0.56858955081E+03  0.56858955081E+03  0.00000000000E+00 0.  1.
         -2   -1    0    0    0  501 -0.00000000000E+00 -0.00000000000E+00 -0.85939648192E+02  0.85939648192E+02  0.00000000000E+00 0.  1.
         23    2    1    2    0    0 -0.42689678745E+02 -0.13466526017E+01 -0.30827774424E+02  0.10342297605E+03  0.89004146843E+02 0.  0.
        -24    2    1    2    0    0 -0.16994339921E+01 -0.70581665899E+02  0.21107361651E+03  0.23711212721E+03  0.81764476680E+02 0.  0.
         13    1    4    4    0    0  0.25585860566E+02 -0.20273428066E+01  0.20809893192E+02  0.33042367264E+02  0.00000000000E+00 0. -1.
        -14    1    4    4    0    0 -0.27285294558E+02 -0.68554323093E+02  0.19026372332E+03  0.20406975995E+03  0.00000000000E+00 0.  1.
        -11    1    3    3    0    0 -0.58578494855E+02 -0.29472706473E+02 -0.26912977577E+02  0.70882923532E+02  0.00000000000E+00 0.  1.
         11    1    3    3    0    0  0.15888816110E+02  0.28126053871E+02 -0.39147968469E+01  0.32540052522E+02  0.00000000000E+00 0. -1.
         -1    1    1    2    0  502  0.44389112737E+02  0.71928318501E+02  0.30240406052E+03  0.31399409573E+03  0.00000000000E+00 0.  1.
<scales pt_clust_5="13000.00000" pt_clust_6="13000.00000" pt_clust_7="13000.00000" pt_clust_8="13000.00000" pt_clust_9="84.52264"></scales>
<clustering>
<clus scale="   81.764">  5  6 -1 -1</clus>
<clus scale="   84.523">  1  9  2 -1</clus>
<clus scale="   89.004">  7  8 -1 -1</clus>
<clus scale="   89.962">  1  5  2 -1</clus>
<clus scale="   84.523">  1  5  2 -1</clus>
</clustering>
</event>
<event>
 9    1  0.9171696E-005  0.9270818E+02  0.7546771E-02  0.1300917E+00
         21   -1    0    0  501  502  0.00000000000E+00  0.00000000000E+00  0.20440907074E+03  0.20440907074E+03  0.00000000000E+00 0. -1.
          1   -1    0    0  502    0 -0.00000000000E+00 -0.00000000000E+00 -0.13042739327E+03  0.13042739327E+03  0.00000000000E+00 0. -1.
        -24    2    1    2    0    0  0.12978580430E+02  0.20920397222E+02 -0.84467063049E+02  0.12057403994E+03  0.82445787014E+02 0.  0.
         23    2    1    2    0    0 -0.10354395361E+02  0.10579586338E+02  0.15821020317E+03  0.18265242232E+03  0.90068295424E+02 0.  0.
         11    1    3    3    0    0  0.50811600083E-01  0.47704670699E+02 -0.75859547965E+02  0.89612550492E+02  0.00000000000E+00 0. -1.
        -12    1    3    3    0    0  0.12927768830E+02 -0.26784273477E+02 -0.86075150841E+01  0.30961489443E+02  0.00000000000E+00 0.  1.
        -11    1    4    4    0    0 -0.45867672962E+02 -0.11598506335E+02  0.64289855208E+02  0.79822016103E+02  0.00000000000E+00 0.  1.
         11    1    4    4    0    0  0.35513277601E+02  0.22178092674E+02  0.93920347961E+02  0.10283040621E+03  0.00000000000E+00 0. -1.
          2    1    1    2  501    0 -0.26241850690E+01 -0.31499983561E+02  0.23853735248E+00  0.31610001766E+02  0.00000000000E+00 0. -1.
<scales pt_clust_5="13000.00000" pt_clust_6="13000.00000" pt_clust_7="13000.00000" pt_clust_8="13000.00000" pt_clust_9="31.60912"></scales>
<clustering>
<clus scale="   31.609">  1  9  2 -1</clus>
<clus scale="   82.446">  5  6 -1 -1</clus>
<clus scale="   85.322">  2  5  1 -1</clus>
<clus scale="   90.068">  7  8 -1 -1</clus>
<clus scale="   31.609">  1  5  2 -1</clus>
</clustering>
</event>
<event>
 9    1  0.9171696E-005  0.1133798E+03  0.7546771E-02  0.1254643E+00
         -2   -1    0    0    0  501 -0.00000000000E+00  0.00000000000E+00  0.19119439519E+03  0.19119439519E+03  0.00000000000E+00 0.  1.
         21   -1    0    0  501  502  0.00000000000E+00 -0.00000000000E+00 -0.15077766831E+03  0.15077766831E+03  0.00000000000E+00 0.  1.
        -24    2    1    2    0    0  0.47099311136E+02 -0.31322357385E+02  0.12562806282E+03  0.16784735801E+03  0.95869130807E+02 0.  0.
         23    2    1    2    0    0 -0.73539304468E+02  0.34414993133E+02 -0.69267102291E+02  0.14309478074E+03  0.95319272768E+02 0.  0.
         13    1    3    3    0    0  0.36963272847E+02  0.64458428246E+01  0.13316333651E+01  0.37544715696E+02  0.00000000000E+00 0. -1.
        -14    1    3    3    0    0  0.10136038289E+02 -0.37768200210E+02  0.12429642945E+03  0.13030264231E+03  0.00000000000E+00 0.  1.
        -11    1    4    4    0    0 -0.96413174995E+02  0.33633771931E+02 -0.53271569247E+02  0.11517200622E+03  0.00000000000E+00 0.  1.
         11    1    4    4    0    0  0.22873870527E+02  0.78122120189E+00 -0.15995533044E+02  0.27922774518E+02  0.00000000000E+00 0. -1.
         -1    1    1    2    0  502  0.26439993332E+02 -0.30926357473E+01 -0.15944233643E+02  0.31029924746E+02  0.00000000000E+00 0.  1.
<scales pt_clust_5="13000.00000" pt_clust_6="13000.00000" pt_clust_7="13000.00000" pt_clust_8="13000.00000" pt_clust_9="26.62025"></scales>
<clustering>
<clus scale="   26.620">  2  9  1 -1</clus>
<clus scale="   95.319">  7  8 -1 -1</clus>
<clus scale="   95.869">  5  6 -1 -1</clus>
<clus scale="  112.915">  2  7  1 -1</clus>
<clus scale="   26.620">  2  5  1 -1</clus>
</clustering>
</event>
<event>
 9    1  0.9171696E-005  0.1733022E+03  0.7546771E-02  0.1194042E+00
          1   -1    0    0  502    0 -0.00000000000E+00  0.00000000000E+00  0.71683772821E+03  0.71683772821E+03  0.00000000000E+00 0. -1.
         21   -1    0    0  501  502  0.00000000000E+00 -0.00000000000E+00 -0.80924486900E+02  0.80924486900E+02  0.00000000000E+00 0. -1.
         23    2    1    2    0    0  0.62590550905E+02  0.16311482662E+02  0.56902495483E+02  0.12555261815E+03  0.91334136018E+02 0.  0.
        -24    2    1    2    0    0 -0.19365196677E+03 -0.20423170119E+02  0.36890681446E+03  0.42454518152E+03  0.78918839868E+02 0.  0.
         13    1    4    4    0    0 -0.18362446945E+03 -0.30583368488E+02  0.36502474591E+03  0.40975157515E+03  0.00000000000E+00 0. -1.
        -14    1    4    4    0    0 -0.10027497316E+02  0.10160198369E+02  0.38820685529E+01  0.14793606375E+02  0.00000000000E+00 0.  1.
        -11    1    3    3    0    0  0.80946070892E+02  0.28692560516E+02  0.30594685819E+02  0.91167780614E+02  0.00000000000E+00 0. -1.
         11    1    3    3    0    0 -0.18355519987E+02 -0.12381077854E+02  0.26307809664E+02  0.34384837532E+02  0.00000000000E+00 0.  1.
          2    1    1    2  501    0  0.13106141586E+03  0.41116874571E+01  0.21010393136E+03  0.24766441544E+03  0.00000000000E+00 0. -1.
<scales pt_clust_5="13000.00000" pt_clust_6="13000.00000" pt_clust_7="13000.00000" pt_clust_8="13000.00000" pt_clust_9="154.29022"></scales>
<clustering>
<clus scale="   78.919">  5  6 -1 -1</clus>
<clus scale="   91.334">  7  8 -1 -1</clus>
<clus scale="  111.918">  1  7  2 -1</clus>
<clus scale="  154.290">  2  9  1 -1</clus>
<clus scale="  154.290">  2  5  1 -1</clus>
</clustering>
</event>
<event>
 9    1  0.9171696E-005  0.1445892E+03  0.7546771E-02  0.1208074E+00
         -4   -1    0    0    0  501 -0.00000000000E+00  0.00000000000E+00  0.64112810793E+02  0.64112810793E+02  0.00000000000E+00 0.  1.
         21   -1    0    0  501  502  0.00000000000E+00 -0.00000000000E+00 -0.54227645714E+03  0.54227645714E+03  0.00000000000E+00 0.  1.
         23    2    1    2    0    0 -0.10985384187E+02 -0.10604870553E+03 -0.23357275156E+03  0.27303612320E+03  0.92873503704E+02 0.  0.
        -24    2    1    2    0    0 -0.23692622373E+02  0.11571193315E+03 -0.25593848689E+03  0.29560781450E+03  0.89044253563E+02 0.  0.
         11    1    4    4    0    0  0.22257272384E+01  0.67854616618E+02 -0.54835826077E+02  0.87270674798E+02  0.00000000000E+00 0. -1.
        -12    1    4    4    0    0 -0.25918349612E+02  0.47857316531E+02 -0.20110266082E+03  0.20833713970E+03  0.00000000000E+00 0.  1.
        -13    1    3    3    0    0  0.14726333669E+02 -0.10529990427E+03 -0.21906469830E+03  0.24350416174E+03  0.00000000000E+00 0.  1.
         13    1    3    3    0    0 -0.25711717856E+02 -0.74880126065E+00 -0.14508053262E+02  0.29531961464E+02  0.00000000000E+00 0. -1.
         -3    1    1    2    0  502  0.34678006560E+02 -0.96632276223E+01  0.11347592115E+02  0.37745330226E+02  0.00000000000E+00 0.  1.
<scales pt_clust_5="13000.00000" pt_clust_6="13000.00000" pt_clust_7="13000.00000" pt_clust_8="13000.00000" pt_clust_9="35.99921"></scales>
<clustering>
<clus scale="   35.999">  2  9  1 -1</clus>
<clus scale="   89.044">  5  6 -1 -1</clus>
<clus scale="   92.874">  7  8 -1 -1</clus>
<clus scale="  142.160">  2  5  1 -1</clus>
<clus scale="   35.999">  2  5  1 -1</clus>
</clustering>
</event>
<event>
 9    1  0.9171696E-005  0.9510212E+02  0.7546771E-02  0.1296479E+00
         21   -1    0    0  501  502  0.00000000000E+00  0.00000000000E+00  0.32959838744E+03  0.32959838744E+03  0.00000000000E+00 0. -1.
         -2   -1    0    0    0  501 -0.00000000000E+00 -0.00000000000E+00 -0.12339604363E+03  0.12339604363E+03  0.00000000000E+00 0.  1.
         23    2    1    2    0    0 -0.48245499804E+01 -0.35673896153E+02 -0.93363640580E+02  0.13348884419E+03  0.88354960193E+02 0.  0.
        -24    2    1    2    0    0 -0.15072783527E+02  0.25907615766E+02  0.26900633846E+03  0.28175408263E+03  0.78246786458E+02 0.  0.
         13    1    4    4    0    0 -0.40539247306E+02  0.12079043404E+02  0.22580951402E+03  0.22973739461E+03  0.00000000000E+00 0. -1.
        -14    1    4    4    0    0  0.25466463779E+02  0.13828572362E+02  0.43196824444E+02  0.52016688024E+02  0.00000000000E+00 0.  1.
        -11    1    3    3    0    0 -0.41354516981E+02 -0.19581376220E+02 -0.19932345963E+02  0.49909165340E+02  0.00000000000E+00 0. -1.
         11    1    3    3    0    0  0.36529967000E+02 -0.16092519933E+02 -0.73431294617E+02  0.83579678846E+02  0.00000000000E+00 0.  1.
         -1    1    1    2    0  502  0.19897333508E+02  0.97662803863E+01  0.30559645934E+02  0.37751504247E+02  0.00000000000E+00 0.  1.
<scales pt_clust_5="13000.00000" pt_clust_6="13000.00000" pt_clust_7="13000.00000" pt_clust_8="13000.00000" pt_clust_9="22.16493"></scales>
<clustering>
<clus scale="   22.165">  1  9  2 -1</clus>
<clus scale="   78.247">  5  6 -1 -1</clus>
<clus scale="   85.793">  1  5  2 -1</clus>
<clus scale="   88.355">  7  8 -1 -1</clus>
<clus scale="   22.165">  1  5  2 -1</clus>
</clustering>
</event>
<event>
 9    1  0.9171696E-005  0.1152290E+03  0.7546771E-02  0.1254889E+00
         21   -1    0    0  501  502  0.00000000000E+00  0.00000000000E+00  0.35492998480E+02  0.35492998480E+02  0.00000000000E+00 0.  1.
          1   -1    0    0  502    0 -0.00000000000E+00 -0.00000000000E+00 -0.56028580950E+03  0.56028580950E+03  0.00000000000E+00 0. -1.
         23    2    1    2    0    0 -0.70863982868E+02  0.51249380584E+02 -0.35114555591E+03  0.37319909764E+03  0.91247805286E+02 0.  0.
        -24    2    1    2    0    0  0.29803635507E+02 -0.38799773086E+02 -0.13588237131E+03  0.16542088512E+03  0.80662081041E+02 0.  0.
         13    1    4    4    0    0  0.17029869050E+02  0.22470404047E+02 -0.23154503136E+02  0.36483784252E+02  0.00000000000E+00 0. -1.
        -14    1    4    4    0    0  0.12773766457E+02 -0.61270177133E+02 -0.11272786818E+03  0.12893710086E+03  0.00000000000E+00 0.  1.
        -13    1    3    3    0    0 -0.26971949710E+02 -0.20369897740E+01 -0.16890433088E+02  0.31889216491E+02  0.00000000000E+00 0.  1.
         13    1    3    3    0    0 -0.43892033158E+02  0.53286370358E+02 -0.33425512282E+03  0.34130988115E+03  0.00000000000E+00 0. -1.
          2    1    1    2  501    0  0.41060347361E+02 -0.12449607498E+02 -0.37764883799E+02  0.57158825220E+02  0.00000000000E+00 0. -1.
<scales pt_clust_5="13000.00000" pt_clust_6="13000.00000" pt_clust_7="13000.00000" pt_clust_8="13000.00000" pt_clust_9="42.90623"></scales>
<clustering>
<clus scale="   42.906">  1  9  2 -1</clus>
<clus scale="   80.662">  5  6 -1 -1</clus>
<clus scale="   91.248">  7  8 -1 -1</clus>
<clus scale="  107.042">  1  5  2 -1</clus>
<clus scale="   42.906">  1  5  2 -1</clus>
</clustering>
</event>
<event>
 9    1  0.9171696E-005  0.1149466E+03  0.7546771E-02  0.1260753E+00
         21   -1    0    0  501  502  0.00000000000E+00  0.00000000000E+00  0.24101640714E+02  0.24101640714E+02  0.00000000000E+00 0. -1.
          1   -1    0    0  502    0 -0.00000000000E+00 -0.00000000000E+00 -0.67011346714E+03  0.67011346714E+03  0.00000000000E+00 0. -1.
         23    2    1    2    0    0 -0.58131417708E+02 -0.13320045169E+02 -0.43445050466E+03  0.45063599621E+03  0.10377318899E+03 0.  0.
        -24    2    1    2    0    0  0.29011991484E+02  0.22518361527E+02 -0.15716954963E+03  0.18120111165E+03  0.82357776048E+02 0.  0.
         13    1    4    4    0    0  0.29903385554E+02  0.16447092439E+02 -0.12414147826E+02  0.36315704365E+02  0.00000000000E+00 0. -1.
        -14    1    4    4    0    0 -0.89139406957E+00  0.60712690878E+01 -0.14475540181E+03  0.14488540728E+03  0.00000000000E+00 0.  1.
        -13    1    3    3    0    0  0.29118105232E+02 -0.13824441082E+02 -0.12925802847E+03  0.13321642972E+03  0.00000000000E+00 0.  1.
         13    1    3    3    0    0 -0.87249522939E+02  0.50439591340E+00 -0.30519247619E+03  0.31741956649E+03  0.00000000000E+00 0. -1.
          2    1    1    2  501    0  0.29119426223E+02 -0.91983163582E+01 -0.54391772129E+02  0.62377999990E+02  0.00000000000E+00 0. -1.
<scales pt_clust_5="13000.00000" pt_clust_6="13000.00000" pt_clust_7="13000.00000" pt_clust_8="13000.00000" pt_clust_9="30.53768"></scales>
<clustering>
<clus scale="   30.538">  1  9  2 -1</clus>
<clus scale="   82.358">  5  6 -1 -1</clus>
<clus scale="   96.055">  1  5  2 -1</clus>
<clus scale="  103.773">  7  8 -1 -1</clus>
<clus scale="   30.538">  1  5  2 -1</clus>
</clustering>
</event>
<event>
 9    1  0.9171696E-005  0.1654314E+03  0.7546771E-02  0.1184140E+00
          1   -1    0    0  502    0 -0.00000000000E+00  0.00000000000E+00  0.15171258845E+04  0.15171258845E+04  0.00000000000E+00 0. -1.
         21   -1    0    0  501  502  0.00000000000E+00 -0.00000000000E+00 -0.37185137690E+02  0.37185137690E+02  0.00000000000E+00 0. -1.
        -24    2    1    2    0    0 -0.17671745529E+03 -0.16856061565E+02  0.60776813372E+03  0.63837852310E+03  0.81436162585E+02 0.  0.
         23    2    1    2    0    0  0.81820870752E+02  0.65390791699E+02  0.26250871034E+03  0.29702131313E+03  0.91324842841E+02 0.  0.
         11    1    3    3    0    0 -0.14067281155E+03 -0.15626599793E+02  0.56487777191E+03  0.58234004476E+03  0.00000000000E+00 0. -1.
        -12    1    3    3    0    0 -0.36044643746E+02 -0.12294617720E+01  0.42890361807E+02  0.56038478343E+02  0.00000000000E+00 0.  1.
        -13    1    4    4    0    0 -0.78457516969E+01  0.33465361715E+02  0.29404762723E+02  0.45234127881E+02  0.00000000000E+00 0.  1.
         13    1    4    4    0    0  0.89666622449E+02  0.31925429984E+02  0.23310394762E+03  0.25178718525E+03  0.00000000000E+00 0. -1.
          2    1    1    2  501    0  0.94896584541E+02 -0.48534730134E+02  0.60966390276E+03  0.61891118596E+03  0.00000000000E+00 0. -1.
<scales pt_clust_5="13000.00000" pt_clust_6="13000.00000" pt_clust_7="13000.00000" pt_clust_8="13000.00000" pt_clust_9="106.58796"></scales>
<clustering>
<clus scale="   81.436">  5  6 -1 -1</clus>
<clus scale="   91.325">  7  8 -1 -1</clus>
<clus scale="  106.588">  2  9  1 -1</clus>
<clus scale="  160.185">  1  5  2 -1</clus>
<clus scale="  106.588">  2  5  1 -1</clus>
</clustering>
</event>
<event>
 9    1  0.9171696E-005  0.1009448E+03  0.7546771E-02  0.1283112E+00
         -4   -1    0    0    0  501 -0.00000000000E+00  0.00000000000E+00  0.15726910969E+03  0.15726910969E+03  0.00000000000E+00 0.  1.
         21   -1    0    0  501  502  0.00000000000E+00 -0.00000000000E+00 -0.10821349584E+03  0.10821349584E+03  0.00000000000E+00 0.  1.
         23    2    1    2    0    0  0.12122055792E+01 -0.60935852067E+02  0.50556607341E+02  0.11923701183E+03  0.89145089237E+02 0.  0.
        -24    2    1    2    0    0 -0.17467455908E+02  0.20836583113E+02 -0.35884215220E+02  0.90979053449E+02  0.79058434419E+02 0.  0.
         13    1    4    4    0    0  0.26270835617E+01  0.27879395560E+02 -0.55413009127E+02  0.62086744522E+02  0.00000000000E+00 0. -1.
        -14    1    4    4    0    0 -0.20094539469E+02 -0.70428124474E+01  0.19528793907E+02  0.28892308927E+02  0.00000000000E+00 0.  1.
        -11    1    3    3    0    0  0.32784684052E+02  0.61258685863E+01  0.10399425346E+02  0.34935795709E+02  0.00000000000E+00 0.  1.
         11    1    3    3    0    0 -0.31572478472E+02 -0.67061720653E+02  0.40157181995E+02  0.84301216122E+02  0.00000000000E+00 0. -1.
         -3    1    1    2    0  502  0.16255250328E+02  0.40099268954E+02  0.34383221728E+02  0.55266540241E+02  0.00000000000E+00 0.  1.
<scales pt_clust_5="13000.00000" pt_clust_6="13000.00000" pt_clust_7="13000.00000" pt_clust_8="13000.00000" pt_clust_9="43.26877"></scales>
<clustering>
<clus scale="   43.269">  2  9  1 -1</clus>
<clus scale="   79.058">  5  6 -1 -1</clus>
<clus scale="   89.145">  7  8 -1 -1</clus>
<clus scale="   92.159">  2  5  1 -1</clus>
<clus scale="   43.269">  2  5  1 -1</clus>
</clustering>
</event>
<event>
 9    1  0.9171696E-005  0.1673018E+03  0.7546771E-02  0.1203648E+00
          1   -1    0    0  502    0 -0.00000000000E+00  0.00000000000E+00  0.72396712466E+02  0.72396712466E+02  0.00000000000E+00 0. -1.
         21   -1    0    0  501  502  0.00000000000E+00 -0.00000000000E+00 -0.12232737753E+04  0.12232737753E+04  0.00000000000E+00 0. -1.
        -24    2    1    2    0    0 -0.64151767251E+02 -0.10697348740E+02 -0.25267689864E+03  0.27208921809E+03  0.77181895439E+02 0.  0.
         23    2    1    2    0    0  0.53137780854E+02 -0.13349304810E+03 -0.85669278689E+03  0.87313180701E+03  0.88275725239E+02 0.  0.
         11    1    3    3    0    0 -0.19342543896E+02 -0.41787400884E+02 -0.10454998423E+03  0.11424106127E+03  0.00000000000E+00 0. -1.
        -12    1    3    3    0    0 -0.44809223355E+02  0.31090052145E+02 -0.14812691441E+03  0.15784815682E+03  0.00000000000E+00 0.  1.
        -13    1    4    4    0    0 -0.84670617706E+01 -0.92277767161E+02 -0.41091401795E+03  0.42123296119E+03  0.00000000000E+00 0. -1.
         13    1    4    4    0    0  0.61604842625E+02 -0.41215280937E+02 -0.44577876894E+03  0.45189884582E+03  0.00000000000E+00 0.  1.
          2    1    1    2  501    0  0.11013986397E+02  0.14419039684E+03 -0.41507377271E+02  0.15044946263E+03  0.00000000000E+00 0. -1.
<scales pt_clust_5="13000.00000" pt_clust_6="13000.00000" pt_clust_7="13000.00000" pt_clust_8="13000.00000" pt_clust_9="142.11728"></scales>
<clustering>
<clus scale="   77.182">  5  6 -1 -1</clus>
<clus scale="   88.276">  7  8 -1 -1</clus>
<clus scale="  100.930">  1  5  2 -1</clus>
<clus scale="  142.117">  2  9  1 -1</clus>
<clus scale="  142.117">  2  5  1 -1</clus>
</clustering>
</event>
<event>
 9    1  0.9171696E-005  0.1324448E+03  0.7546771E-02  0.1226995E+00
         21   -1    0    0  501  502  0.00000000000E+00  0.00000000000E+00  0.15742235352E+03  0.15742235352E+03  0.00000000000E+00 0. -1.
          1   -1    0    0  502    0 -0.00000000000E+00 -0.00000000000E+00 -0.15547294985E+03  0.15547294985E+03  0.00000000000E+00 0. -1.
        -24    2    1    2    0    0  0.72837640023E+02 -0.79244416008E+02 -0.16847156324E+02  0.13372406912E+03  0.77545475135E+02 0.  0.
         23    2    1    2    0    0 -0.27332930015E+02  0.82065667079E+02  0.36520122556E+02  0.13025535993E+03  0.90282205676E+02 0.  0.
         13    1    3    3    0    0  0.80649542001E+02 -0.84175690508E+02 -0.27345324354E+02  0.11973997771E+03  0.00000000000E+00 0. -1.
        -14    1    3    3    0    0 -0.78119019785E+01  0.49312745003E+01  0.10498168029E+02  0.13984091414E+02  0.00000000000E+00 0.  1.
        -11    1    4    4    0    0  0.16106112923E+02  0.19040027584E+02  0.46793084484E+02  0.53023789750E+02  0.00000000000E+00 0.  1.
         11    1    4    4    0    0 -0.43439042938E+02  0.63025639495E+02 -0.10272961928E+02  0.77231570177E+02  0.00000000000E+00 0. -1.
          2    1    1    2  501    0 -0.45504710007E+02 -0.28212510713E+01 -0.17723562559E+02  0.48915874318E+02  0.00000000000E+00 0. -1.
<scales pt_clust_5="13000.00000" pt_clust_6="13000.00000" pt_clust_7="13000.00000" pt_clust_8="13000.00000" pt_clust_9="45.59211"></scales>
<clustering>
<clus scale="   45.592">  1  9  2 -1</clus>
<clus scale="   77.545">  5  6 -1 -1</clus>
<clus scale="   90.282">  7  8 -1 -1</clus>
<clus scale="  124.113">  2  5  1 -1</clus>
<clus scale="   45.592">  1  5  2 -1</clus>
</clustering>
</event>
<event>
 9    1  0.9171696E-005  0.9247642E+02  0.7546771E-02  0.1301299E+00
         21   -1    0    0  501  502  0.00000000000E+00  0.00000000000E+00  0.10838405070E+03  0.10838405070E+03  0.00000000000E+00 0. -1.
          1   -1    0    0  502    0 -0.00000000000E+00 -0.00000000000E+00 -0.26411444196E+03  0.26411444196E+03  0.00000000000E+00 0. -1.
        -24    2    1    2    0    0  0.28228733874E+02 -0.95839088945E+01 -0.21915346901E+03  0.23525083097E+03  0.80162321363E+02 0.  0.
         23    2    1    2    0    0 -0.30897164803E+02 -0.16254295546E+02  0.40919555930E+02  0.10287991771E+03  0.87698520474E+02 0.  0.
         13    1    3    3    0    0  0.17675248083E+02 -0.43457541574E+02 -0.15494785498E+03  0.16189444115E+03  0.00000000000E+00 0. -1.
        -14    1    3    3    0    0  0.10553485791E+02  0.33873632680E+02 -0.64205614032E+02  0.73356389814E+02  0.00000000000E+00 0.  1.
        -13    1    4    4    0    0 -0.29990507714E+01  0.20141318972E+02 -0.18711553703E+02  0.27654823764E+02  0.00000000000E+00 0.  1.
         13    1    4    4    0    0 -0.27898114031E+02 -0.36395614518E+02  0.59631109633E+02  0.75225093943E+02  0.00000000000E+00 0. -1.
          2    1    1    2  501    0  0.26684309291E+01  0.25838204441E+02  0.22503521819E+02  0.34367743985E+02  0.00000000000E+00 0. -1.
<scales pt_clust_5="13000.00000" pt_clust_6="13000.00000" pt_clust_7="13000.00000" pt_clust_8="13000.00000" pt_clust_9="25.97563"></scales>
<clustering>
<clus scale="   25.976">  1  9  2 -1</clus>
<clus scale="   80.162">  5  6 -1 -1</clus>
<clus scale="   85.363">  2  5  1 -1</clus>
<clus scale="   87.699">  7  8 -1 -1</clus>
<clus scale="   25.976">  1  5  2 -1</clus>
</clustering>
</event>
<event>
 9    1  0.9171696E-005  0.1701457E+03  0.7546771E-02  0.1204552E+00
         -2   -1    0    0    0  501 -0.00000000000E+00  0.00000000000E+00  0.25852957962E+03  0.25852957962E+03  0.00000000000E+00 0.  1.
         21   -1    0    0  501  502  0.00000000000E+00 -0.00000000000E+00 -0.32558696980E+03  0.32558696980E+03  0.00000000000E+00 0.  1.
         23    2    1    2    0    0 -0.11082017980E+02 -0.21241971907E+02 -0.69397541850E+02  0.11692207401E+03  0.90998461977E+02 0.  0.
        -24    2    1    2    0    0  0.62350399654E+02  0.14168447847E+03 -0.17528599831E+03  0.24654567414E+03  0.78086647127E+02 0.  0.
         13    1    4    4    0    0  0.31842378252E+02  0.21062582335E+02 -0.83875608046E+02  0.92155776013E+02  0.00000000000E+00 0. -1.
        -14    1    4    4    0    0  0.30508021403E+02  0.12062189613E+03 -0.91410390263E+02  0.15438989813E+03  0.00000000000E+00 0.  1.
        -13    1    3    3    0    0  0.39241408574E+02 -0.10886876119E+02 -0.18946600461E+02  0.44915319074E+02  0.00000000000E+00 0. -1.
         13    1    3    3    0    0 -0.50323426554E+02 -0.10355095788E+02 -0.50450941390E+02  0.72006754933E+02  0.00000000000E+00 0.  1.
         -1    1    1    2    0  502 -0.51268381674E+02 -0.12044250656E+03  0.17762614998E+03  0.22064880127E+03  0.00000000000E+00 0.  1.
<scales pt_clust_5="13000.00000" pt_clust_6="13000.00000" pt_clust_7="13000.00000" pt_clust_8="13000.00000" pt_clust_9="151.16893"></scales>
<clustering>
<clus scale="   78.087">  5  6 -1 -1</clus>
<clus scale="   90.998">  7  8 -1 -1</clus>
<clus scale="   94.100">  1  7  2 -1</clus>
<clus scale="  151.169">  2  9  1 -1</clus>
<clus scale="  151.169">  2  5  1 -1</clus>
</clustering>
</event>
<event>
 9    1  0.9171696E-005  0.9948935E+02  0.7546771E-02  0.1286885E+00
          1   -1    0    0  502    0 -0.00000000000E+00  0.00000000000E+00  0.49870366374E+03  0.49870366374E+03  0.00000000000E+00 0. -1.
         21   -1    0    0  501  502  0.00000000000E+00 -0.00000000000E+00 -0.30077848253E+02  0.30077848253E+02  0.00000000000E+00 0. -1.
         23    2    1    2    0    0  0.12276213956E+02  0.33379409561E+02  0.29672336043E+03  0.31248138291E+03  0.91296065792E+02 0.  0.
        -24    2    1    2    0    0 -0.39241244331E+02 -0.31055569583E+02  0.16162504965E+03  0.18734951324E+03  0.80454084910E+02 0.  0.
         11    1    4    4    0    0 -0.57604763283E+02 -0.19177936831E+02  0.15157232437E+03  0.16327973398E+03  0.00000000000E+00 0. -1.
        -12    1    4    4    0    0  0.18363518952E+02 -0.11877632752E+02  0.10052725280E+02  0.24069779260E+02  0.00000000000E+00 0.  1.
        -11    1    3    3    0    0 -0.19609488827E+02 -0.24304458358E+02  0.77202724699E+02  0.83279646067E+02  0.00000000000E+00 0.  1.
         11    1    3    3    0    0  0.31885702783E+02  0.57683867919E+02  0.21952063573E+03  0.22920173685E+03  0.00000000000E+00 0. -1.
          2    1    1    2  501    0  0.26965030375E+02 -0.23238399787E+01  0.10277405398E+02  0.28950615833E+02  0.00000000000E+00 0. -1.
<scales pt_clust_5="13000.00000" pt_clust_6="13000.00000" pt_clust_7="13000.00000" pt_clust_8="13000.00000" pt_clust_9="27.06498"></scales>
<clustering>
<clus scale="   27.065">  2  9  1 -1</clus>
<clus scale="   80.454">  5  6 -1 -1</clus>
<clus scale="   89.644">  2  5  1 -1</clus>
<clus scale="   91.296">  7  8 -1 -1</clus>
<clus scale="   27.065">  2  5  1 -1</clus>
</clustering>
</event>
<event>
 9    1  0.9171696E-005  0.1800030E+03  0.7546771E-02  0.1192653E+00
         21   -1    0    0  501  502  0.00000000000E+00  0.00000000000E+00  0.69661748572E+02  0.69661748572E+02  0.00000000000E+00 0. -1.
          1   -1    0    0  502    0 -0.00000000000E+00 -0.00000000000E+00 -0.10018398898E+04  0.10018398898E+04  0.00000000000E+00 0. -1.
        -24    2    1    2    0    0  0.43709666220E+02 -0.49116520891E+02 -0.48240133850E+03  0.49326905580E+03  0.79248611829E+02 0.  0.
         23    2    1    2    0    0  0.12048965908E+03  0.92457680380E+02 -0.14274455856E+03  0.22736412646E+03  0.90841930807E+02 0.  0.
         11    1    3    3    0    0  0.59643451698E+02 -0.45512552126E+02 -0.26968381329E+03  0.27992515586E+03  0.00000000000E+00 0. -1.
        -12    1    3    3    0    0 -0.15933785478E+02 -0.36039687647E+01 -0.21271752521E+03  0.21334389994E+03  0.00000000000E+00 0.  1.
        -13    1    4    4    0    0  0.28199550138E+02  0.46901564861E+02 -0.10375816288E+03  0.11730612848E+03  0.00000000000E+00 0.  1.
         13    1    4    4    0    0  0.92290108946E+02  0.45556115520E+02 -0.38986395681E+02  0.11005799798E+03  0.00000000000E+00 0. -1.
          2    1    1    2  501    0 -0.16419932530E+03 -0.43341159489E+02 -0.30703224413E+03  0.35086845608E+03  0.00000000000E+00 0. -1.
<scales pt_clust_5="13000.00000" pt_clust_6="13000.00000" pt_clust_7="13000.00000" pt_clust_8="13000.00000" pt_clust_9="155.39895"></scales>
<clustering>
<clus scale="   79.249">  5  6 -1 -1</clus>
<clus scale="   90.842">  7  8 -1 -1</clus>
<clus scale="  102.972">  2  5  1 -1</clus>
<clus scale="  155.399">  1  9  2 -1</clus>
<clus scale="  155.399">  1  5  2 -1</clus>
</clustering>
</event>
<event>
 9    1  0.9171696E-005  0.1030746E+03  0.7546771E-02  0.1278584E+00
         21   -1    0    0  501  502  0.00000000000E+00  0.00000000000E+00  0.24621195586E+02  0.24621195586E+02  0.00000000000E+00 0. -1.
          3   -1    0    0  502    0 -0.00000000000E+00 -0.00000000000E+00 -0.69249428306E+03  0.69249428306E+03  0.00000000000E+00 0. -1.
         23    2    1    2    0    0 -0.35122032402E+02  0.40334772383E+02 -0.46886654577E+03  0.48057554016E+03  0.90865620746E+02 0.  0.
        -24    2    1    2    0    0  0.43078901906E+02 -0.75800773726E+01 -0.12433387220E+03  0.15461198606E+03  0.80825151382E+02 0.  0.
         11    1    4    4    0    0  0.59962394428E+02 -0.26762779355E+02 -0.80628911050E+02  0.10398440461E+03  0.00000000000E+00 0. -1.
        -12    1    4    4    0    0 -0.16883492522E+02  0.19182701982E+02 -0.43704961148E+02  0.50627581456E+02  0.00000000000E+00 0.  1.
        -13    1    3    3    0    0  0.62737503985E+00 -0.26681181129E+02 -0.79215005368E+02  0.83590047861E+02  0.00000000000E+00 0.  1.
         13    1    3    3    0    0 -0.35749407441E+02  0.67015953512E+02 -0.38965154040E+03  0.39698549230E+03  0.00000000000E+00 0. -1.
          4    1    1    2  501    0 -0.79568695041E+01 -0.32754695010E+02 -0.74672669506E+02  0.81927952426E+02  0.00000000000E+00 0. -1.
<scales pt_clust_5="13000.00000" pt_clust_6="13000.00000" pt_clust_7="13000.00000" pt_clust_8="13000.00000" pt_clust_9="33.70730"></scales>
<clustering>
<clus scale="   33.707">  1  9  2 -1</clus>
<clus scale="   80.825">  5  6 -1 -1</clus>
<clus scale="   90.866">  7  8 -1 -1</clus>
<clus scale="   94.343">  1  5  2 -1</clus>
<clus scale="   33.707">  1  5  2 -1</clus>
</clustering>
</event>
<event>
 9    1  0.9171696E-005  0.1296467E+03  0.7546771E-02  0.1229799E+00
          1   -1    0    0  502    0 -0.00000000000E+00  0.00000000000E+00  0.13474476953E+03  0.13474476953E+03  0.00000000000E+00 0. -1.
         21   -1    0    0  501  502  0.00000000000E+00 -0.00000000000E+00 -0.24087311989E+03  0.24087311989E+03  0.00000000000E+00 0. -1.
        -24    2    1    2    0    0  0.78073054595E+02  0.10224157953E+03  0.19426942940E+02  0.15186214659E+03  0.78332388046E+02 0.  0.
         23    2    1    2    0    0 -0.50158316690E+02 -0.24118710215E+02 -0.70846261516E+02  0.12438022542E+03  0.85753593446E+02 0.  0.
         11    1    3    3    0    0  0.68180012190E+02  0.75245931347E+02  0.47121859731E+02  0.11194165405E+03  0.00000000000E+00 0. -1.
        -12    1    3    3    0    0  0.98930424047E+01  0.26995648181E+02 -0.27694916791E+02  0.39920492542E+02  0.00000000000E+00 0.  1.
        -13    1    4    4    0    0 -0.30502819244E+02 -0.40519437525E+02 -0.18089481491E+01  0.50749572339E+02  0.00000000000E+00 0.  1.
         13    1    4    4    0    0 -0.19655497446E+02  0.16400727310E+02 -0.69037313367E+02  0.73630653080E+02  0.00000000000E+00 0. -1.
          2    1    1    2  501    0 -0.27914737905E+02 -0.78122869314E+02 -0.54709031781E+02  0.99375517410E+02  0.00000000000E+00 0. -1.
<scales pt_clust_5="13000.00000" pt_clust_6="13000.00000" pt_clust_7="13000.00000" pt_clust_8="13000.00000" pt_clust_9="82.96032"></scales>
<clustering>
<clus scale="   78.332">  5  6 -1 -1</clus>
<clus scale="   82.960">  2  9  1 -1</clus>
<clus scale="   85.754">  7  8 -1 -1</clus>
<clus scale="  124.862">  1  5  2 -1</clus>
<clus scale="   82.960">  2  5  1 -1</clus>
</clustering>
</event>
<event>
 9    1  0.9171696E-005  0.1281837E+03  0.7546771E-02  0.1251353E+00
         21   -1    0    0  501  502  0.00000000000E+00  0.00000000000E+00  0.10259802512E+03  0.10259802512E+03  0.00000000000E+00 0.  1.
         -4   -1    0    0    0  501 -0.00000000000E+00 -0.00000000000E+00 -0.45453944895E+03  0.45453944895E+03  0.00000000000E+00 0.  1.
        -24    2    1    2    0    0 -0.14522918226E+01 -0.23619213047E+02  0.39190544924E+02  0.92166404309E+02  0.79992317727E+02 0.  0.
         23    2    1    2    0    0  0.57245273554E+02  0.89435754065E+02 -0.33210209312E+03  0.36042825510E+03  0.91328809066E+02 0.  0.
         11    1    3    3    0    0 -0.38892381713E+02 -0.14153438929E+02  0.71789927511E+01  0.42005655878E+02  0.00000000000E+00 0. -1.
        -12    1    3    3    0    0  0.37440089891E+02 -0.94657741180E+01  0.32011552172E+02  0.50160748431E+02  0.00000000000E+00 0.  1.
        -11    1    4    4    0    0  0.36137793085E+02  0.93760222502E+02 -0.32065432458E+03  0.33602993213E+03  0.00000000000E+00 0.  1.
         11    1    4    4    0    0  0.21107480470E+02 -0.43244684373E+01 -0.11447768539E+02  0.24398322966E+02  0.00000000000E+00 0. -1.
         -3    1    1    2    0  502 -0.55792981732E+02 -0.65816541018E+02 -0.59029875622E+02  0.10454281466E+03  0.00000000000E+00 0.  1.
<scales pt_clust_5="13000.00000" pt_clust_6="13000.00000" pt_clust_7="13000.00000" pt_clust_8="13000.00000" pt_clust_9="89.94509"></scales>
<clustering>
<clus scale="   79.992">  5  6 -1 -1</clus>
<clus scale="   83.419">  2  5  1 -1</clus>
<clus scale="   89.945">  1  9  2 -1</clus>
<clus scale="   91.329">  7  8 -1 -1</clus>
<clus scale="   89.945">  1  5  2 -1</clus>
</clustering>
</event>
<event>
 9    1  0.9171696E-005  0.1053809E+03  0.7546771E-02  0.1275050E+00
          1   -1    0    0  502    0 -0.00000000000E+00  0.00000000000E+00  0.48026211318E+03  0.48026211318E+03  0.00000000000E+00 0. -1.
         21   -1    0    0  501  502  0.00000000000E+00 -0.00000000000E+00 -0.10592990542E+03  0.10592990542E+03  0.00000000000E+00 0. -1.
         23    2    1    2    0    0 -0.52985917500E+02  0.31075695121E+02  0.40236227339E+03  0.41739807676E+03  0.92479993240E+02 0.  0.
        -24    2    1    2    0    0 -0.25665739017E+02 -0.83436144055E+01 -0.88947301932E+01  0.84716646275E+02  0.79808820755E+02 0.  0.
         13    1    4    4    0    0 -0.15311718724E+02 -0.41383044924E+02 -0.19873598920E+02  0.48393853655E+02  0.00000000000E+00 0. -1.
        -14    1    4    4    0    0 -0.10354020292E+02  0.33039430519E+02  0.10978868727E+02  0.36322792620E+02  0.00000000000E+00 0.  1.
        -13    1    3    3    0    0  0.78681919241E+01  0.39587715017E+02  0.84420559233E+02  0.93573107491E+02  0.00000000000E+00 0.  1.
         13    1    3    3    0    0 -0.60854109424E+02 -0.85120198962E+01  0.31794171416E+03  0.32382496927E+03  0.00000000000E+00 0. -1.
          2    1    1    2  501    0  0.78651656517E+02 -0.22732080715E+02 -0.19135335445E+02  0.84077295563E+02  0.00000000000E+00 0. -1.
<scales pt_clust_5="13000.00000" pt_clust_6="13000.00000" pt_clust_7="13000.00000" pt_clust_8="13000.00000" pt_clust_9="81.87082"></scales>
<clustering>
<clus scale="   79.809">  5  6 -1 -1</clus>
<clus scale="   81.871">  2  9  1 -1</clus>
<clus scale="   92.480">  7  8 -1 -1</clus>
<clus scale="   94.457">  2  5  1 -1</clus>
<clus scale="   81.871">  2  5  1 -1</clus>
</clustering>
</event>
<event>
 9    1  0.9171696E-005  0.1041854E+03  0.7546771E-02  0.1283706E+00
         21   -1    0    0  501  502  0.00000000000E+00  0.00000000000E+00  0.71762368660E+03  0.71762368660E+03  0.00000000000E+00 0. -1.
          1   -1    0    0  502    0 -0.00000000000E+00 -0.00000000000E+00 -0.24137504647E+02  0.24137504647E+02  0.00000000000E+00 0. -1.
         23    2    1    2    0    0  0.89148259489E+01  0.69616820184E+02  0.19398921782E+03  0.22647069834E+03  0.93440809074E+02 0.  0.
        -24    2    1    2    0    0 -0.48094495913E+01 -0.19299488645E+02  0.22375893798E+03  0.23496898636E+03  0.68896742722E+02 0.  0.
         11    1    4    4    0    0  0.30270315722E+02 -0.13983721936E+02  0.75702413384E+02  0.82720565068E+02  0.00000000000E+00 0. -1.
        -12    1    4    4    0    0 -0.35079765314E+02 -0.53157667089E+01  0.14805652460E+03  0.15224842129E+03  0.00000000000E+00 0.  1.
        -13    1    3    3    0    0  0.40443259820E+02  0.79666039456E+01  0.39131164724E+02  0.56836362445E+02  0.00000000000E+00 0.  1.
         13    1    3    3    0    0 -0.31528433872E+02  0.61650216239E+02  0.15485805310E+03  0.16963433589E+03  0.00000000000E+00 0. -1.
          2    1    1    2  501    0 -0.41053763576E+01 -0.50317331539E+02  0.27573802615E+03  0.28032150655E+03  0.00000000000E+00 0. -1.
<scales pt_clust_5="13000.00000" pt_clust_6="13000.00000" pt_clust_7="13000.00000" pt_clust_8="13000.00000" pt_clust_9="50.48453"></scales>
<clustering>
<clus scale="   50.485">  1  9  2 -1</clus>
<clus scale="   68.897">  5  6 -1 -1</clus>
<clus scale="   82.887">  1  5  2 -1</clus>
<clus scale="   93.441">  7  8 -1 -1</clus>
<clus scale="   50.485">  1  5  2 -1</clus>
</clustering>
</event>
<event>
 9    1  0.9171696E-005  0.1784799E+03  0.7546771E-02  0.1170375E+00
         -2   -1    0    0    0  501 -0.00000000000E+00  0.00000000000E+00  0.21903368840E+03  0.21903368840E+03  0.00000000000E+00 0.  1.
         21   -1    0    0  501  502  0.00000000000E+00 -0.00000000000E+00 -0.17081331211E+03  0.17081331211E+03  0.00000000000E+00 0. -1.
        -24    2    1    2    0    0 -0.13462614966E+03  0.53695144580E+02  0.39765402340E+02  0.17150222920E+03  0.82609676628E+02 0.  0.
         23    2    1    2    0    0  0.15755902120E+03 -0.45601773879E+02  0.24179805392E+02  0.18938463370E+03  0.91528736187E+02 0.  0.
         11    1    3    3    0    0 -0.12459528504E+03  0.25058481398E+02  0.76504189043E+01  0.12732023191E+03  0.00000000000E+00 0. -1.
        -12    1    3    3    0    0 -0.10030864620E+02  0.28636663182E+02  0.32114983436E+02  0.44181997287E+02  0.00000000000E+00 0.  1.
        -11    1    4    4    0    0  0.47889829793E+02 -0.54959606066E+02 -0.11239203514E+02  0.73758482849E+02  0.00000000000E+00 0.  1.
         11    1    4    4    0    0  0.10966919141E+03  0.93578321875E+01  0.35419008906E+02  0.11562615085E+03  0.00000000000E+00 0. -1.
         -1    1    1    2    0  502 -0.22932871544E+02 -0.80933707011E+01 -0.15724831452E+02  0.28960137616E+02  0.00000000000E+00 0.  1.
<scales pt_clust_5="13000.00000" pt_clust_6="13000.00000" pt_clust_7="13000.00000" pt_clust_8="13000.00000" pt_clust_9="24.31911"></scales>
<clustering>
<clus scale="   24.319">  2  9  1 -1</clus>
<clus scale="   82.610">  5  6 -1 -1</clus>
<clus scale="   91.529">  7  8 -1 -1</clus>
<clus scale="  174.074">  1  5  2 -1</clus>
<clus scale="   24.319">  2  5  1 -1</clus>
</clustering>
</event>
<event>
 9    1  0.9171696E-005  0.1506627E+03  0.7546771E-02  0.1218627E+00
         21   -1    0    0  501  502  0.00000000000E+00  0.00000000000E+00  0.70308668000E+02  0.70308668000E+02  0.00000000000E+00 0.  1.
          1   -1    0    0  502    0 -0.00000000000E+00 -0.00000000000E+00 -0.85357266264E+03  0.85357266264E+03  0.00000000000E+00 0. -1.
        -24    2    1    2    0    0 -0.52131179331E+02  0.24559712046E+02 -0.10155918788E+02  0.10094036330E+03  0.82249467733E+02 0.  0.
         23    2    1    2    0    0  0.57829438368E+02 -0.12498559976E+03 -0.33973484130E+03  0.37804750874E+03  0.92382424627E+02 0.  0.
         13    1    3    3    0    0 -0.11429131221E+02  0.33559717959E+02 -0.37091864180E+02  0.51309707642E+02  0.00000000000E+00 0. -1.
        -14    1    3    3    0    0 -0.40702048110E+02 -0.90000059135E+01  0.26935945392E+02  0.49630655657E+02  0.00000000000E+00 0.  1.
        -13    1    4    4    0    0  0.48168496493E+02 -0.13503043768E+02 -0.14581820159E+03  0.15416057914E+03  0.00000000000E+00 0.  1.
         13    1    4    4    0    0  0.96609418757E+01 -0.11148255600E+03 -0.19391663971E+03  0.22388692960E+03  0.00000000000E+00 0. -1.
          2    1    1    2  501    0 -0.56982590374E+01  0.10042588772E+03 -0.43337323455E+03  0.44489345860E+03  0.00000000000E+00 0. -1.
<scales pt_clust_5="13000.00000" pt_clust_6="13000.00000" pt_clust_7="13000.00000" pt_clust_8="13000.00000" pt_clust_9="119.01581"></scales>
<clustering>
<clus scale="   82.249">  5  6 -1 -1</clus>
<clus scale="   92.382">  7  8 -1 -1</clus>
<clus scale="  100.428">  2  5  1 -1</clus>
<clus scale="  119.016">  1  9  2 -1</clus>
<clus scale="  119.016">  1  5  2 -1</clus>
</clustering>
</event>
<event>
 9    1  0.9171696E-005  0.9588299E+02  0.7546771E-02  0.1296206E+00
          1   -1    0    0  502    0 -0.00000000000E+00  0.00000000000E+00  0.51261549664E+02  0.51261549664E+02  0.00000000000E+00 0. -1.
         21   -1    0    0  501  502  0.00000000000E+00 -0.00000000000E+00 -0.43486527406E+03  0.43486527406E+03  0.00000000000E+00 0.  1.
         23    2    1    2    0    0  0.31194524564E+02 -0.30773947080E+01 -0.10377397295E+02  0.97383449736E+02  0.91614830605E+02 0.  0.
        -24    2    1    2    0    0 -0.95674706168E+01  0.18744716040E+02 -0.27672778770E+03  0.28861764040E+03  0.79239970920E+02 0.  0.
         11    1    4    4    0    0  0.25939416964E+02  0.17779219803E+02 -0.49599831574E+02  0.58729015839E+02  0.00000000000E+00 0. -1.
        -12    1    4    4    0    0 -0.35506887580E+02  0.96549623652E+00 -0.22712795613E+03  0.22988862456E+03  0.00000000000E+00 0.  1.
        -11    1    3    3    0    0  0.42458338206E+02  0.16078235396E+02  0.27781064466E+02  0.53226005670E+02  0.00000000000E+00 0. -1.
         11    1    3    3    0    0 -0.11263813642E+02 -0.19155630104E+02 -0.38158461762E+02  0.44157444066E+02  0.00000000000E+00 0.  1.
          2    1    1    2  501    0 -0.21627053947E+02 -0.15667321332E+02 -0.96498539403E+02  0.10012573359E+03  0.00000000000E+00 0. -1.
<scales pt_clust_5="13000.00000" pt_clust_6="13000.00000" pt_clust_7="13000.00000" pt_clust_8="13000.00000" pt_clust_9="26.70570"></scales>
<clustering>
<clus scale="   26.706">  2  9  1 -1</clus>
<clus scale="   79.240">  5  6 -1 -1</clus>
<clus scale="   84.138">  2  5  1 -1</clus>
<clus scale="   91.615">  7  8 -1 -1</clus>
<clus scale="   26.706">  2  5  1 -1</clus>
</clustering>
</event>
<event>
 9    1  0.9171696E-005  0.2326707E+03  0.7546771E-02  0.1125512E+00
         -2   -1    0    0    0  501 -0.00000000000E+00  0.00000000000E+00  0.42284297865E+03  0.42284297865E+03  0.00000000000E+00 0.  1.
         21   -1    0    0  501  502  0.00000000000E+00 -0.00000000000E+00 -0.18882188243E+03  0.18882188243E+03  0.00000000000E+00 0.  1.
        -24    2    1    2    0    0 -0.47840601452E+02  0.20319389068E+03  0.15132060965E+03  0.26978497741E+03  0.79432529697E+02 0.  0.
         23    2    1    2    0    0 -0.16422077096E+02 -0.23074603536E+03  0.22381990015E+02  0.24953740398E+03  0.90854526903E+02 0.  0.
         11    1    3    3    0    0  0.20721341891E+02  0.25534444937E+02  0.24047985813E+02  0.40739262508E+02  0.00000000000E+00 0. -1.
        -12    1    3    3    0    0 -0.68561943343E+02  0.17765944574E+03  0.12727262384E+03  0.22904571490E+03  0.00000000000E+00 0.  1.
        -11    1    4    4    0    0 -0.64557766219E+01 -0.20897399604E+03  0.47956338724E+02  0.21450318994E+03  0.00000000000E+00 0.  1.
         11    1    4    4    0    0 -0.99663004746E+01 -0.21772039318E+02 -0.25574348709E+02  0.35034214036E+02  0.00000000000E+00 0. -1.
         -1    1    1    2    0  502  0.64262678548E+02  0.27552144674E+02  0.60318496552E+02  0.92342479698E+02  0.00000000000E+00 0.  1.
<scales pt_clust_5="13000.00000" pt_clust_6="13000.00000" pt_clust_7="13000.00000" pt_clust_8="13000.00000" pt_clust_9="69.92008"></scales>
<clustering>
<clus scale="   69.920">  2  9  1 -1</clus>
<clus scale="   79.433">  5  6 -1 -1</clus>
<clus scale="   90.855">  7  8 -1 -1</clus>
<clus scale="  228.453">  1  5  2 -1</clus>
<clus scale="   69.920">  2  5  1 -1</clus>
</clustering>
</event>
<event>
 9    1  0.9171696E-005  0.2309674E+03  0.7546771E-02  0.1126696E+00
         21   -1    0    0  501  502  0.00000000000E+00  0.00000000000E+00  0.13158432530E+03  0.13158432530E+03  0.00000000000E+00 0. -1.
          1   -1    0    0  502    0 -0.00000000000E+00 -0.00000000000E+00 -0.88946507921E+03  0.88946507921E+03  0.00000000000E+00 0. -1.
        -24    2    1    2    0    0 -0.81699522329E+02 -0.17572253205E+03 -0.14155330632E+03  0.25275930877E+03  0.79351807939E+02 0.  0.
         23    2    1    2    0    0  0.34959912836E+02  0.23954172235E+03 -0.15744819257E+03  0.30264253499E+03  0.90554615518E+02 0.  0.
         13    1    3    3    0    0 -0.72726512026E+02 -0.63858645959E+02 -0.57811643176E+02  0.11273534628E+03  0.00000000000E+00 0. -1.
        -14    1    3    3    0    0 -0.89730103030E+01 -0.11186388609E+03 -0.83741663140E+02  0.14002396249E+03  0.00000000000E+00 0.  1.
        -13    1    4    4    0    0  0.10887338237E+02  0.12089286868E+03 -0.26378670008E+02  0.12421535357E+03  0.00000000000E+00 0. -1.
         13    1    4    4    0    0  0.24072574600E+02  0.11864885367E+03 -0.13106952256E+03  0.17842718142E+03  0.00000000000E+00 0.  1.
          2    1    1    2  501    0  0.46739609493E+02 -0.63819190296E+02 -0.45887925502E+03  0.46564756076E+03  0.00000000000E+00 0. -1.
<scales pt_clust_5="13000.00000" pt_clust_6="13000.00000" pt_clust_7="13000.00000" pt_clust_8="13000.00000" pt_clust_9="79.10428"></scales>
<clustering>
<clus scale="   79.104">  1  9  2 -1</clus>
<clus scale="   79.352">  5  6 -1 -1</clus>
<clus scale="   90.555">  7  8 -1 -1</clus>
<clus scale="  226.809">  2  5  1 -1</clus>
<clus scale="   79.104">  1  5  2 -1</clus>
</clustering>
</event>
<event>
 9    1  0.9171696E-005  0.1311891E+03  0.7546771E-02  0.1228119E+00
         21   -1    0    0  501  502  0.00000000000E+00  0.00000000000E+00  0.95628911697E+02  0.95628911697E+02  0.00000000000E+00 0. -1.
         -2   -1    0    0    0  501 -0.00000000000E+00 -0.00000000000E+00 -0.30703061213E+03  0.30703061213E+03  0.00000000000E+00 0.  1.
        -24    2    1    2    0    0  0.67262283308E+02 -0.74246677799E+02 -0.20578958344E+03  0.24316322322E+03  0.82111001413E+02 0.  0.
         23    2    1    2    0    0 -0.43239405087E+02  0.55812208486E+02  0.22933765581E+02  0.11788145051E+03  0.91571993548E+02 0.  0.
         13    1    3    3    0    0  0.28889170871E+02  0.11040054621E+02 -0.25592621792E+02  0.40142861006E+02  0.00000000000E+00 0. -1.
        -14    1    3    3    0    0  0.38373112438E+02 -0.85286732420E+02 -0.18019696165E+03  0.20302036221E+03  0.00000000000E+00 0.  1.
        -11    1    4    4    0    0 -0.31637274207E+02  0.14476488373E+02 -0.32605767964E+02  0.47682511882E+02  0.00000000000E+00 0.  1.
         11    1    4    4    0    0 -0.11602130880E+02  0.41335720112E+02  0.55539533544E+02  0.70198938628E+02  0.00000000000E+00 0. -1.
         -1    1    1    2    0  502 -0.24022878222E+02  0.18434469313E+02 -0.28545882573E+02  0.41614850099E+02  0.00000000000E+00 0.  1.
<scales pt_clust_5="13000.00000" pt_clust_6="13000.00000" pt_clust_7="13000.00000" pt_clust_8="13000.00000" pt_clust_9="30.28084"></scales>
<clustering>
<clus scale="   30.281">  1  9  2 -1</clus>
<clus scale="   82.111">  5  6 -1 -1</clus>
<clus scale="   91.572">  7  8 -1 -1</clus>
<clus scale="  124.769">  2  5  1 -1</clus>
<clus scale="   30.281">  1  5  2 -1</clus>
</clustering>
</event>
<event>
 9    1  0.2780145E-004  0.9211475E+02  0.7546771E-02  0.1302645E+00
         21   -1    0    0  501  502  0.00000000000E+00  0.00000000000E+00  0.13987834221E+03  0.13987834221E+03  0.00000000000E+00 0. -1.
         -4   -1    0    0    0  501 -0.00000000000E+00 -0.00000000000E+00 -0.39078045431E+03  0.39078045431E+03  0.00000000000E+00 0.  1.
        -24    2    1    2    0    0 -0.85108276106E+01  0.13469785049E+02 -0.34261438472E+03  0.35291441673E+03  0.83127008988E+02 0.  0.
         23    2    1    2    0    0 -0.37175399807E+01  0.34020015828E+02  0.83103412432E+02  0.12795555941E+03  0.91078353337E+02 0.  0.
         13    1    3    3    0    0  0.69728919599E+01 -0.32193746703E+02 -0.92385247756E+02  0.98082070492E+02  0.00000000000E+00 0. -1.
        -14    1    3    3    0    0 -0.15483719571E+02  0.45663531751E+02 -0.25022913696E+03  0.25483234623E+03  0.00000000000E+00 0.  1.
        -11    1    4    4    0    0 -0.13128847112E+02  0.59828207437E+02  0.79333178614E+02  0.10022741272E+03  0.00000000000E+00 0. -1.
         11    1    4    4    0    0  0.94113071312E+01 -0.25808191609E+02  0.37702338187E+01  0.27728146694E+02  0.00000000000E+00 0.  1.
         -3    1    1    2    0  502  0.12228367591E+02 -0.47489800877E+02  0.86088601818E+01  0.49788820381E+02  0.00000000000E+00 0.  1.
<scales pt_clust_5="13000.00000" pt_clust_6="13000.00000" pt_clust_7="13000.00000" pt_clust_8="13000.00000" pt_clust_9="49.03890"></scales>
<clustering>
<clus scale="   49.039">  1  9  2 -1</clus>
<clus scale="   83.127">  5  6 -1 -1</clus>
<clus scale="   84.261">  2  5  1 -1</clus>
<clus scale="   91.078">  7  8 -1 -1</clus>
<clus scale="   49.039">  1  5  2 -1</clus>
</clustering>
</event>
<event>
 9    1  0.9171696E-005  0.8513319E+02  0.7546771E-02  0.1316969E+00
          1   -1    0    0  502    0 -0.00000000000E+00  0.00000000000E+00  0.28183898101E+03  0.28183898101E+03  0.00000000000E+00 0. -1.
         21   -1    0    0  501  502  0.00000000000E+00 -0.00000000000E+00 -0.20657248274E+03  0.20657248274E+03  0.00000000000E+00 0. -1.
         23    2    1    2    0    0 -0.14479988212E+02  0.22405602406E+02  0.23795700028E+03  0.25202748264E+03  0.78629745932E+02 0.  0.
        -24    2    1    2    0    0 -0.78974411563E+01 -0.13996289940E+02 -0.12251784248E+02  0.84057772984E+02  0.81592507456E+02 0.  0.
         13    1    4    4    0    0 -0.21251149190E+02 -0.18380883249E+02  0.29059010554E+02  0.40421458476E+02  0.00000000000E+00 0. -1.
        -14    1    4    4    0    0  0.13353708034E+02  0.43845933096E+01 -0.41310794801E+02  0.43636314508E+02  0.00000000000E+00 0.  1.
        -11    1    3    3    0    0 -0.45744691244E+02  0.23744458380E+02  0.15636917961E+03  0.16464415086E+03  0.00000000000E+00 0. -1.
         11    1    3    3    0    0  0.31264703032E+02 -0.13388559742E+01  0.81587820667E+02  0.87383331775E+02  0.00000000000E+00 0.  1.
          2    1    1    2  501    0  0.22377429368E+02 -0.84093124663E+01 -0.15043871776E+03  0.15232620813E+03  0.00000000000E+00 0. -1.
<scales pt_clust_5="13000.00000" pt_clust_6="13000.00000" pt_clust_7="13000.00000" pt_clust_8="13000.00000" pt_clust_9="23.90535"></scales>
<clustering>
<clus scale="   23.905">  2  9  1 -1</clus>
<clus scale="   78.630">  7  8 -1 -1</clus>
<clus scale="   81.593">  5  6 -1 -1</clus>
<clus scale="   82.298">  1  7  2 -1</clus>
<clus scale="   23.905">  2  5  1 -1</clus>
</clustering>
</event>
<event>
 9    1  0.9171696E-005  0.1046754E+03  0.7546771E-02  0.1275508E+00
         21   -1    0    0  501  502  0.00000000000E+00  0.00000000000E+00  0.23362427007E+02  0.23362427007E+02  0.00000000000E+00 0. -1.
          3   -1    0    0  502    0 -0.00000000000E+00 -0.00000000000E+00 -0.11983019029E+04  0.11983019029E+04  0.00000000000E+00 0. -1.
        -24    2    1    2    0    0 -0.27681497546E+02 -0.82819504978E+02 -0.39416051784E+03  0.41168986003E+03  0.80626864733E+02 0.  0.
         23    2    1    2    0    0  0.45562885483E+01  0.16317339496E+01 -0.16663034470E+03  0.19005129017E+03  0.91271018397E+02 0.  0.
         11    1    3    3    0    0 -0.33231917002E+02 -0.12752326787E+02 -0.56394323798E+02  0.66688094160E+02  0.00000000000E+00 0. -1.
        -12    1    3    3    0    0  0.55504194558E+01 -0.70067178191E+02 -0.33776619405E+03  0.34500176587E+03  0.00000000000E+00 0.  1.
        -13    1    4    4    0    0  0.14878948539E+02  0.35688988612E+02 -0.30218625054E+02  0.49073947446E+02  0.00000000000E+00 0. -1.
         13    1    4    4    0    0 -0.10322659990E+02 -0.34057254662E+02 -0.13641171965E+03  0.14097734273E+03  0.00000000000E+00 0.  1.
          4    1    1    2  501    0  0.23125208997E+02  0.81187771028E+02 -0.61414861334E+03  0.61992317969E+03  0.00000000000E+00 0. -1.
<scales pt_clust_5="13000.00000" pt_clust_6="13000.00000" pt_clust_7="13000.00000" pt_clust_8="13000.00000" pt_clust_9="84.41704"></scales>
<clustering>
<clus scale="   80.627">  5  6 -1 -1</clus>
<clus scale="   84.417">  1  9  2 -1</clus>
<clus scale="   91.271">  7  8 -1 -1</clus>
<clus scale="   95.537">  2  5  1 -1</clus>
<clus scale="   84.417">  1  5  2 -1</clus>
</clustering>
</event>
<event>
 9    1  0.9171696E-005  0.1117227E+03  0.7546771E-02  0.1267905E+00
          1   -1    0    0  502    0 -0.00000000000E+00  0.00000000000E+00  0.32391764894E+03  0.32391764894E+03  0.00000000000E+00 0. -1.
         21   -1    0    0  501  502  0.00000000000E+00 -0.00000000000E+00 -0.23724220640E+03  0.23724220640E+03  0.00000000000E+00 0. -1.
        -24    2    1    2    0    0  0.16432154856E+02 -0.23598427607E+01 -0.59428731051E+02  0.10867278143E+03  0.89456217104E+02 0.  0.
         23    2    1    2    0    0  0.13323926116E+02 -0.86618001003E+02  0.27385513935E+03  0.29398536954E+03  0.61241775368E+02 0.  0.
         11    1    3    3    0    0 -0.23086883737E+02  0.60239569046E+01  0.11926926660E+02  0.26674779044E+02  0.00000000000E+00 0. -1.
        -12    1    3    3    0    0  0.39519038593E+02 -0.83837996653E+01 -0.71355657711E+02  0.81998002388E+02  0.00000000000E+00 0.  1.
        -11    1    4    4    0    0  0.28742980584E+02 -0.52629129941E+02  0.22288789331E+03  0.23081377176E+03  0.00000000000E+00 0. -1.
         11    1    4    4    0    0 -0.15419054469E+02 -0.33988871062E+02  0.50967246037E+02  0.63171597774E+02  0.00000000000E+00 0.  1.
          2    1    1    2  501    0 -0.29756080972E+02  0.88977843764E+02 -0.12775096576E+03  0.15850170437E+03  0.00000000000E+00 0. -1.
<scales pt_clust_5="13000.00000" pt_clust_6="13000.00000" pt_clust_7="13000.00000" pt_clust_8="13000.00000" pt_clust_9="93.44195"></scales>
<clustering>
<clus scale="   61.242">  7  8 -1 -1</clus>
<clus scale="   89.456">  5  6 -1 -1</clus>
<clus scale="   90.984">  1  5  2 -1</clus>
<clus scale="   93.442">  2  9  1 -1</clus>
<clus scale="   93.442">  2  5  1 -1</clus>
</clustering>
</event>
<event>
 9    1  0.9171696E-005  0.1887543E+03  0.7546771E-02  0.1160841E+00
          1   -1    0    0  502    0 -0.00000000000E+00  0.00000000000E+00  0.82795560951E+03  0.82795560951E+03  0.00000000000E+00 0. -1.
         21   -1    0    0  501  502  0.00000000000E+00 -0.00000000000E+00 -0.81924913396E+02  0.81924913396E+02  0.00000000000E+00 0.  1.
        -24    2    1    2    0    0 -0.64874680000E+02  0.10976521704E+03  0.24577507381E+03  0.28797981571E+03  0.79182449911E+02 0.  0.
         23    2    1    2    0    0  0.10994323304E+03 -0.21314689294E+03  0.35589748642E+03  0.43871168793E+03  0.91026434742E+02 0.  0.
         13    1    3    3    0    0 -0.19012179292E+02  0.98536814905E+02  0.19023091465E+03  0.21507851530E+03  0.00000000000E+00 0. -1.
        -14    1    3    3    0    0 -0.45862500708E+02  0.11228402138E+02  0.55544159160E+02  0.72901300417E+02  0.00000000000E+00 0.  1.
        -11    1    4    4    0    0  0.70124427868E+02 -0.74779129871E+02  0.90378340005E+02  0.13666600891E+03  0.00000000000E+00 0. -1.
         11    1    4    4    0    0  0.39818805172E+02 -0.13836776307E+03  0.26551914642E+03  0.30204567902E+03  0.00000000000E+00 0.  1.
          2    1    1    2  501    0 -0.45068553041E+02  0.10338167590E+03  0.14435813588E+03  0.18318901926E+03  0.00000000000E+00 0. -1.
<scales pt_clust_5="13000.00000" pt_clust_6="13000.00000" pt_clust_7="13000.00000" pt_clust_8="13000.00000" pt_clust_9="112.77830"></scales>
<clustering>
<clus scale="   79.182">  5  6 -1 -1</clus>
<clus scale="   91.026">  7  8 -1 -1</clus>
<clus scale="  112.778">  2  9  1 -1</clus>
<clus scale="  183.336">  1  5  2 -1</clus>
<clus scale="  112.778">  2  5  1 -1</clus>
</clustering>
</event>
<event>
 9    1  0.9171696E-005  0.1376540E+03  0.7546771E-02  0.1218354E+00
         21   -1    0    0  501  502  0.00000000000E+00  0.00000000000E+00  0.27490458304E+03  0.27490458304E+03  0.00000000000E+00 0.  1.
         -4   -1    0    0    0  501 -0.00000000000E+00 -0.00000000000E+00 -0.94894307932E+02  0.94894307932E+02  0.00000000000E+00 0.  1.
         23    2    1    2    0    0 -0.75340858226E+02 -0.44413455943E+02  0.65503186468E+02  0.14056022906E+03  0.88417818162E+02 0.  0.
        -24    2    1    2    0    0  0.11905314973E+03  0.42647563575E+02  0.65005282202E+02  0.16317572492E+03  0.80051004673E+02 0.  0.
         11    1    4    4    0    0 -0.51442332999E+01  0.22850686023E+02  0.15115555997E+02  0.27876459980E+02  0.00000000000E+00 0. -1.
        -12    1    4    4    0    0  0.12419738303E+03  0.19796877552E+02  0.49889726206E+02  0.13529926494E+03  0.00000000000E+00 0.  1.
        -13    1    3    3    0    0 -0.68733047446E+02  0.62000986279E+01  0.55467566008E+02  0.88539956591E+02  0.00000000000E+00 0. -1.
         13    1    3    3    0    0 -0.66078107800E+01 -0.50613554571E+02  0.10035620459E+02  0.52020272468E+02  0.00000000000E+00 0.  1.
         -3    1    1    2    0  502 -0.43712291500E+02  0.17658923683E+01  0.49501806436E+02  0.66062936995E+02  0.00000000000E+00 0.  1.
<scales pt_clust_5="13000.00000" pt_clust_6="13000.00000" pt_clust_7="13000.00000" pt_clust_8="13000.00000" pt_clust_9="43.74795"></scales>
<clustering>
<clus scale="   43.748">  1  9  2 -1</clus>
<clus scale="   80.051">  5  6 -1 -1</clus>
<clus scale="   88.418">  7  8 -1 -1</clus>
<clus scale="  132.435">  1  5  2 -1</clus>
<clus scale="   43.748">  1  5  2 -1</clus>
</clustering>
</event>
<event>
 9    1  0.9171696E-005  0.1086487E+03  0.7546771E-02  0.1267759E+00
          1   -1    0    0  502    0 -0.00000000000E+00  0.00000000000E+00  0.20342143971E+03  0.20342143971E+03  0.00000000000E+00 0. -1.
         21   -1    0    0  501  502  0.00000000000E+00 -0.00000000000E+00 -0.47411090465E+03  0.47411090465E+03  0.00000000000E+00 0. -1.
         23    2    1    2    0    0  0.25933478850E+02  0.60491209665E+02  0.15810683053E+03  0.19446602247E+03  0.92127803955E+02 0.  0.
        -24    2    1    2    0    0 -0.47950492552E+02  0.76058146899E+01 -0.70509059101E+02  0.11770116569E+03  0.80777093517E+02 0.  0.
         13    1    4    4    0    0 -0.65725198703E+02  0.63086963004E-01 -0.73004522676E+02  0.98231695779E+02  0.00000000000E+00 0. -1.
        -14    1    4    4    0    0  0.17774706150E+02  0.75427277269E+01  0.24954635745E+01  0.19469469914E+02  0.00000000000E+00 0.  1.
        -13    1    3    3    0    0  0.50331953489E+02  0.92417219535E+01  0.46002069985E+02  0.68810648955E+02  0.00000000000E+00 0.  1.
         13    1    3    3    0    0 -0.24398474639E+02  0.51249487711E+02  0.11210476054E+03  0.12565537351E+03  0.00000000000E+00 0. -1.
          2    1    1    2  501    0  0.22017013702E+02 -0.68097024355E+02 -0.35828723637E+03  0.36536515620E+03  0.00000000000E+00 0. -1.
<scales pt_clust_5="13000.00000" pt_clust_6="13000.00000" pt_clust_7="13000.00000" pt_clust_8="13000.00000" pt_clust_9="71.56783"></scales>
<clustering>
<clus scale="   71.568">  2  9  1 -1</clus>
<clus scale="   80.777">  5  6 -1 -1</clus>
<clus scale="   92.128">  7  8 -1 -1</clus>
<clus scale="   99.207">  2  5  1 -1</clus>
<clus scale="   71.568">  2  5  1 -1</clus>
</clustering>
</event>
<event>
 9    1  0.9171696E-005  0.1051830E+03  0.7546771E-02  0.1273856E+00
         21   -1    0    0  501  502  0.00000000000E+00  0.00000000000E+00  0.73030731541E+02  0.73030731541E+02  0.00000000000E+00 0.  1.
          1   -1    0    0  502    0 -0.00000000000E+00 -0.00000000000E+00 -0.33336397305E+03  0.33336397305E+03  0.00000000000E+00 0. -1.
        -24    2    1    2    0    0  0.46806098073E+02  0.15707789261E+02 -0.21967743728E+03  0.23962166065E+03  0.81992794457E+02 0.  0.
         23    2    1    2    0    0 -0.72384339131E+02  0.40810697161E+01 -0.23263573740E+01  0.11662334951E+03  0.91320567402E+02 0.  0.
         11    1    3    3    0    0  0.41544820237E+02 -0.12324408578E+02 -0.20079048920E+03  0.20541344573E+03  0.00000000000E+00 0. -1.
        -12    1    3    3    0    0  0.52612778362E+01  0.28032197839E+02 -0.18886948086E+02  0.34208214922E+02  0.00000000000E+00 0.  1.
        -11    1    4    4    0    0 -0.56691897892E+02  0.43533631128E+02  0.10555107894E+02  0.72253433333E+02  0.00000000000E+00 0. -1.
         11    1    4    4    0    0 -0.15692441239E+02 -0.39452561412E+02 -0.12881465268E+02  0.44369916176E+02  0.00000000000E+00 0.  1.
          2    1    1    2  501    0  0.25578241058E+02 -0.19788858977E+02 -0.38329446847E+02  0.50149694424E+02  0.00000000000E+00 0. -1.
<scales pt_clust_5="13000.00000" pt_clust_6="13000.00000" pt_clust_7="13000.00000" pt_clust_8="13000.00000" pt_clust_9="32.33955"></scales>
<clustering>
<clus scale="   32.340">  1  9  2 -1</clus>
<clus scale="   81.993">  5  6 -1 -1</clus>
<clus scale="   91.321">  7  8 -1 -1</clus>
<clus scale="   97.195">  2  5  1 -1</clus>
<clus scale="   32.340">  1  5  2 -1</clus>
</clustering>
</event>
<event>
 9    1  0.9171696E-005  0.1317892E+03  0.7546771E-02  0.1227337E+00
          1   -1    0    0  502    0 -0.00000000000E+00  0.00000000000E+00  0.93133127915E+03  0.93133127915E+03  0.00000000000E+00 0. -1.
         21   -1    0    0  501  502  0.00000000000E+00 -0.00000000000E+00 -0.30962601197E+02  0.30962601197E+02  0.00000000000E+00 0. -1.
         23    2    1    2    0    0 -0.63146594999E+02 -0.51652585845E+02  0.49380090109E+03  0.50880454669E+03  0.91581956379E+02 0.  0.
        -24    2    1    2    0    0  0.11020128611E+03  0.54036043618E+02  0.35061557918E+03  0.38034240445E+03  0.81638488422E+02 0.  0.
         11    1    4    4    0    0  0.29151416413E+02 -0.18538010042E+02  0.12777139742E+03  0.13235933248E+03  0.00000000000E+00 0. -1.
        -12    1    4    4    0    0  0.81049869693E+02  0.72574053660E+02  0.22284418176E+03  0.24798307197E+03  0.00000000000E+00 0.  1.
        -13    1    3    3    0    0 -0.79302086643E+02 -0.64323671375E+02  0.41320864266E+03  0.42563803638E+03  0.00000000000E+00 0. -1.
         13    1    3    3    0    0  0.16155491643E+02  0.12671085530E+02  0.80592258427E+02  0.83166510310E+02  0.00000000000E+00 0.  1.
          2    1    1    2  501    0 -0.47054691107E+02 -0.23834577734E+01  0.55952197690E+02  0.73146929207E+02  0.00000000000E+00 0. -1.
<scales pt_clust_5="13000.00000" pt_clust_6="13000.00000" pt_clust_7="13000.00000" pt_clust_8="13000.00000" pt_clust_9="47.11502"></scales>
<clustering>
<clus scale="   47.115">  2  9  1 -1</clus>
<clus scale="   81.638">  5  6 -1 -1</clus>
<clus scale="   91.582">  7  8 -1 -1</clus>
<clus scale="  125.084">  2  5  1 -1</clus>
<clus scale="   47.115">  2  5  1 -1</clus>
</clustering>
</event>
<event>
 9    1  0.9171696E-005  0.1196263E+03  0.7546771E-02  0.1247349E+00
         21   -1    0    0  501  502  0.00000000000E+00  0.00000000000E+00  0.95074997572E+02  0.95074997572E+02  0.00000000000E+00 0. -1.
          1   -1    0    0  502    0 -0.00000000000E+00 -0.00000000000E+00 -0.24474480488E+03  0.24474480488E+03  0.00000000000E+00 0. -1.
         23    2    1    2    0    0 -0.35663159692E+02  0.81427052685E+02 -0.14944399164E+03  0.19671534168E+03  0.91984744090E+02 0.  0.
        -24    2    1    2    0    0  0.41266841925E+02 -0.36326600982E+02 -0.58474460935E+00  0.97655799316E+02  0.80707738368E+02 0.  0.
         13    1    4    4    0    0  0.51250899916E+02  0.83006330096E+01 -0.79857394840E+00  0.51924878151E+02  0.00000000000E+00 0. -1.
        -14    1    4    4    0    0 -0.99840579913E+01 -0.44627233991E+02  0.21382933905E+00  0.45730921166E+02  0.00000000000E+00 0.  1.
        -11    1    3    3    0    0 -0.23664239599E+02 -0.85486462166E+00  0.21876855403E+01  0.23780517180E+02  0.00000000000E+00 0.  1.
         11    1    3    3    0    0 -0.11998920094E+02  0.82281917307E+02 -0.15163167718E+03  0.17293482450E+03  0.00000000000E+00 0. -1.
          2    1    1    2  501    0 -0.56036822326E+01 -0.45100451704E+02  0.35892894178E+00  0.45448661459E+02  0.00000000000E+00 0. -1.
<scales pt_clust_5="13000.00000" pt_clust_6="13000.00000" pt_clust_7="13000.00000" pt_clust_8="13000.00000" pt_clust_9="45.44724"></scales>
<clustering>
<clus scale="   45.447">  1  9  2 -1</clus>
<clus scale="   80.708">  5  6 -1 -1</clus>
<clus scale="   91.985">  7  8 -1 -1</clus>
<clus scale="  111.189">  1  5  2 -1</clus>
<clus scale="   45.447">  1  5  2 -1</clus>
</clustering>
</event>
<event>
 9    1  0.9171696E-005  0.1265550E+03  0.7546771E-02  0.1235430E+00
          1   -1    0    0  502    0 -0.00000000000E+00  0.00000000000E+00  0.44426682491E+03  0.44426682491E+03  0.00000000000E+00 0. -1.
         21   -1    0    0  501  502  0.00000000000E+00 -0.00000000000E+00 -0.35062799336E+03  0.35062799336E+03  0.00000000000E+00 0. -1.
         23    2    1    2    0    0 -0.40315925641E+01  0.86076822286E+02  0.36670676047E+03  0.38733454601E+03  0.90159465862E+02 0.  0.
        -24    2    1    2    0    0  0.57292452971E+02 -0.10520611530E+03 -0.16725800190E+02  0.14504563255E+03  0.80048305831E+02 0.  0.
         11    1    4    4    0    0  0.42373716483E+02 -0.11412936218E+03 -0.27209528511E+02  0.12474534702E+03  0.00000000000E+00 0. -1.
        -12    1    4    4    0    0  0.14918736489E+02  0.89232468809E+01  0.10483728321E+02  0.20300285536E+02  0.00000000000E+00 0.  1.
        -13    1    3    3    0    0 -0.30832447675E+02  0.84428767036E+02  0.32891433021E+03  0.34097432916E+03  0.00000000000E+00 0. -1.
         13    1    3    3    0    0  0.26800855111E+02  0.16480552500E+01  0.37792430259E+02  0.46360216842E+02  0.00000000000E+00 0.  1.
          2    1    1    2  501    0 -0.53260860407E+02  0.19129293016E+02 -0.25634212873E+03  0.26251463971E+03  0.00000000000E+00 0. -1.
<scales pt_clust_5="13000.00000" pt_clust_6="13000.00000" pt_clust_7="13000.00000" pt_clust_8="13000.00000" pt_clust_9="56.59195"></scales>
<clustering>
<clus scale="   56.592">  2  9  1 -1</clus>
<clus scale="   80.048">  5  6 -1 -1</clus>
<clus scale="   90.159">  7  8 -1 -1</clus>
<clus scale="  119.562">  2  5  1 -1</clus>
<clus scale="   56.592">  2  5  1 -1</clus>
</clustering>
</event>
<event>
 9    1  0.9171696E-005  0.9227268E+02  0.7546771E-02  0.1304091E+00
          1   -1    0    0  502    0 -0.00000000000E+00  0.00000000000E+00  0.66292874483E+03  0.66292874483E+03  0.00000000000E+00 0. -1.
         21   -1    0    0  501  502  0.00000000000E+00 -0.00000000000E+00 -0.30568630302E+02  0.30568630302E+02  0.00000000000E+00 0.  1.
        -24    2    1    2    0    0  0.55642880396E+01  0.24105060062E+02  0.38691557771E+03  0.39581136407E+03  0.79692888174E+02 0.  0.
         23    2    1    2    0    0 -0.16153612982E+02  0.24285878083E+02  0.77871540046E+02  0.12294469957E+03  0.90557602200E+02 0.  0.
         13    1    3    3    0    0 -0.30888280876E+01  0.50110415877E+02  0.17269944235E+03  0.17984908125E+03  0.00000000000E+00 0. -1.
        -14    1    3    3    0    0  0.86531161272E+01 -0.26005355815E+02  0.21421613536E+03  0.21596228282E+03  0.00000000000E+00 0.  1.
        -11    1    4    4    0    0  0.20565396687E+02  0.30032195487E+02  0.77672639267E+02  0.85778244313E+02  0.00000000000E+00 0. -1.
         11    1    4    4    0    0 -0.36719009669E+02 -0.57463174037E+01  0.19890077906E+00  0.37166455256E+02  0.00000000000E+00 0.  1.
          2    1    1    2  501    0  0.10589324942E+02 -0.48390938145E+02  0.16757299677E+03  0.17474131150E+03  0.00000000000E+00 0. -1.
<scales pt_clust_5="13000.00000" pt_clust_6="13000.00000" pt_clust_7="13000.00000" pt_clust_8="13000.00000" pt_clust_9="49.53604"></scales>
<clustering>
<clus scale="   49.536">  2  9  1 -1</clus>
<clus scale="   79.693">  5  6 -1 -1</clus>
<clus scale="   81.637">  1  5  2 -1</clus>
<clus scale="   90.558">  7  8 -1 -1</clus>
<clus scale="   49.536">  2  5  1 -1</clus>
</clustering>
</event>
<event>
 9    1  0.9171696E-005  0.1654384E+03  0.7546771E-02  0.1211236E+00
          1   -1    0    0  502    0 -0.00000000000E+00  0.00000000000E+00  0.31498369588E+03  0.31498369588E+03  0.00000000000E+00 0. -1.
         21   -1    0    0  501  502  0.00000000000E+00 -0.00000000000E+00 -0.34369530575E+03  0.34369530575E+03  0.00000000000E+00 0. -1.
        -24    2    1    2    0    0 -0.37908247692E+02  0.11419948145E+02  0.21596470072E+03  0.23347180290E+03  0.79378084712E+02 0.  0.
         23    2    1    2    0    0 -0.49391598465E+02  0.10383674353E+03 -0.75290827998E+01  0.14745879502E+03  0.92009835529E+02 0.  0.
         13    1    3    3    0    0 -0.44311269162E+00  0.40475536304E+02  0.11534937941E+03  0.12224542821E+03  0.00000000000E+00 0. -1.
        -14    1    3    3    0    0 -0.37465135000E+02 -0.29055588160E+02  0.10061532132E+03  0.11122637469E+03  0.00000000000E+00 0.  1.
        -11    1    4    4    0    0 -0.10877838537E+02  0.27933663222E+02 -0.45315285197E+02  0.54333157324E+02  0.00000000000E+00 0.  1.
         11    1    4    4    0    0 -0.38513759928E+02  0.75903080311E+02  0.37786202398E+02  0.93125637695E+02  0.00000000000E+00 0. -1.
          2    1    1    2  501    0  0.87299846157E+02 -0.11525669168E+03 -0.23714722779E+03  0.27774840371E+03  0.00000000000E+00 0. -1.
<scales pt_clust_5="13000.00000" pt_clust_6="13000.00000" pt_clust_7="13000.00000" pt_clust_8="13000.00000" pt_clust_9="137.49204"></scales>
<clustering>
<clus scale="   79.378">  5  6 -1 -1</clus>
<clus scale="   88.704">  1  5  2 -1</clus>
<clus scale="   92.010">  7  8 -1 -1</clus>
<clus scale="  137.492">  2  9  1 -1</clus>
<clus scale="  137.492">  2  5  1 -1</clus>
</clustering>
</event>
<event>
 9    1  0.9171696E-005  0.1518412E+03  0.7546771E-02  0.1213188E+00
         21   -1    0    0  501  502  0.00000000000E+00  0.00000000000E+00  0.50026756163E+02  0.50026756163E+02  0.00000000000E+00 0. -1.
          1   -1    0    0  502    0 -0.00000000000E+00 -0.00000000000E+00 -0.99128113021E+03  0.99128113021E+03  0.00000000000E+00 0. -1.
        -24    2    1    2    0    0  0.68904110265E+02  0.31254723136E+02 -0.28597032037E+03  0.30641994429E+03  0.79934498153E+02 0.  0.
         23    2    1    2    0    0 -0.34405863350E+02  0.82604350295E+02 -0.13794269005E+03  0.20404323395E+03  0.12082306675E+03 0.  0.
         11    1    3    3    0    0 -0.82845036678E+01  0.31768204655E+02 -0.89315420630E+02  0.95158269165E+02  0.00000000000E+00 0. -1.
        -12    1    3    3    0    0  0.77188613932E+02 -0.51348151915E+00 -0.19665489974E+03  0.21126167512E+03  0.00000000000E+00 0.  1.
        -13    1    4    4    0    0 -0.66653686692E+02  0.87812776333E+02 -0.75645564802E+02  0.13370134297E+03  0.00000000000E+00 0. -1.
         13    1    4    4    0    0  0.32247823342E+02 -0.52084260385E+01 -0.62297125249E+02  0.70341890978E+02  0.00000000000E+00 0.  1.
          2    1    1    2  501    0 -0.34498246915E+02 -0.11385907343E+03 -0.51734136362E+03  0.53084470814E+03  0.00000000000E+00 0. -1.
<scales pt_clust_5="13000.00000" pt_clust_6="13000.00000" pt_clust_7="13000.00000" pt_clust_8="13000.00000" pt_clust_9="91.96487"></scales>
<clustering>
<clus scale="   79.934">  5  6 -1 -1</clus>
<clus scale="  110.064">  2  5  1 -1</clus>
<clus scale="   91.965">  1  9  2 -1</clus>
<clus scale="  120.823">  7  8 -1 -1</clus>
<clus scale="   91.965">  1  5  2 -1</clus>
</clustering>
</event>
<event>
 9    1  0.9171696E-005  0.1097378E+03  0.7546771E-02  0.1264577E+00
          1   -1    0    0  502    0 -0.00000000000E+00  0.00000000000E+00  0.40464693957E+02  0.40464693957E+02  0.00000000000E+00 0. -1.
         21   -1    0    0  501  502  0.00000000000E+00 -0.00000000000E+00 -0.52750885693E+03  0.52750885693E+03  0.00000000000E+00 0. -1.
         23    2    1    2    0    0  0.69645029803E+02 -0.15745017567E+02 -0.11496503485E+03  0.16214050795E+03  0.89298652436E+02 0.  0.
        -24    2    1    2    0    0 -0.30661676029E+02  0.54955482819E+02 -0.28512154816E+03  0.30278556276E+03  0.80153330074E+02 0.  0.
         13    1    4    4    0    0 -0.45068412385E+02  0.53913125524E+02 -0.13708243495E+03  0.15404343826E+03  0.00000000000E+00 0. -1.
        -14    1    4    4    0    0  0.14406736356E+02  0.10423572945E+01 -0.14803911321E+03  0.14874212450E+03  0.00000000000E+00 0.  1.
        -13    1    3    3    0    0  0.12857288283E+02  0.17983378624E+02  0.72117704083E+01  0.23253416978E+02  0.00000000000E+00 0.  1.
         13    1    3    3    0    0  0.56787741520E+02 -0.33728396192E+02 -0.12217680526E+03  0.13888709097E+03  0.00000000000E+00 0. -1.
          2    1    1    2  501    0 -0.38983353774E+02 -0.39210465252E+02 -0.86957579963E+02  0.10304748017E+03  0.00000000000E+00 0. -1.
<scales pt_clust_5="13000.00000" pt_clust_6="13000.00000" pt_clust_7="13000.00000" pt_clust_8="13000.00000" pt_clust_9="55.29164"></scales>
<clustering>
<clus scale="   55.292">  2  9  1 -1</clus>
<clus scale="   80.153">  5  6 -1 -1</clus>
<clus scale="   89.299">  7  8 -1 -1</clus>
<clus scale="  102.434">  2  5  1 -1</clus>
<clus scale="   55.292">  2  5  1 -1</clus>
</clustering>
</event>
<event>
 9    1  0.9171696E-005  0.9421267E+02  0.7546771E-02  0.1297848E+00
          1   -1    0    0  502    0 -0.00000000000E+00  0.00000000000E+00  0.15267750921E+03  0.15267750921E+03  0.00000000000E+00 0. -1.
         21   -1    0    0  501  502  0.00000000000E+00 -0.00000000000E+00 -0.18890673927E+03  0.18890673927E+03  0.00000000000E+00 0.  1.
         23    2    1    2    0    0 -0.21537048762E+02 -0.27227694684E+02  0.11416780372E+03  0.14916862144E+03  0.89508649799E+02 0.  0.
        -24    2    1    2    0    0  0.49976641815E+00  0.14343238101E+00 -0.78205171281E+02  0.11249197894E+03  0.80858680242E+02 0.  0.
         13    1    4    4    0    0 -0.12840642350E+02 -0.31456744905E+02 -0.88374607067E+01  0.35107116198E+02  0.00000000000E+00 0. -1.
        -14    1    4    4    0    0  0.13340408768E+02  0.31600177286E+02 -0.69367710574E+02  0.77384862738E+02  0.00000000000E+00 0.  1.
        -13    1    3    3    0    0  0.12594193136E+02  0.27360873803E+02  0.49317961376E+02  0.57788341647E+02  0.00000000000E+00 0.  1.
         13    1    3    3    0    0 -0.34131241898E+02 -0.54588568488E+02  0.64849842348E+02  0.91380279796E+02  0.00000000000E+00 0. -1.
          2    1    1    2  501    0  0.21037282344E+02  0.27084262303E+02 -0.72191862505E+02  0.79923648096E+02  0.00000000000E+00 0. -1.
<scales pt_clust_5="13000.00000" pt_clust_6="13000.00000" pt_clust_7="13000.00000" pt_clust_8="13000.00000" pt_clust_9="34.29467"></scales>
<clustering>
<clus scale="   34.295">  2  9  1 -1</clus>
<clus scale="   80.859">  5  6 -1 -1</clus>
<clus scale="   86.037">  2  5  1 -1</clus>
<clus scale="   89.509">  7  8 -1 -1</clus>
<clus scale="   34.295">  2  5  1 -1</clus>
</clustering>
</event>
<event>
 9    1  0.9171696E-005  0.1167809E+03  0.7546771E-02  0.1252042E+00
          3   -1    0    0  502    0 -0.00000000000E+00  0.00000000000E+00  0.72019044572E+03  0.72019044572E+03  0.00000000000E+00 0. -1.
         21   -1    0    0  501  502  0.00000000000E+00 -0.00000000000E+00 -0.52440486218E+02  0.52440486218E+02  0.00000000000E+00 0. -1.
        -24    2    1    2    0    0  0.53422554508E+02 -0.79274858916E+02  0.48428506371E+03  0.50016475639E+03  0.80587145495E+02 0.  0.
         23    2    1    2    0    0 -0.18297050260E+02  0.34519179519E+02  0.19090673273E+03  0.21508801922E+03  0.91055585268E+02 0.  0.
         11    1    3    3    0    0  0.54628411951E+02 -0.94113607055E+02  0.39817214268E+03  0.41277438103E+03  0.00000000000E+00 0. -1.
        -12    1    3    3    0    0 -0.12058574426E+01  0.14838748139E+02  0.86112921026E+02  0.87390375364E+02  0.00000000000E+00 0.  1.
        -13    1    4    4    0    0 -0.50904756519E+02  0.33795088779E+02  0.15484646478E+03  0.16646570193E+03  0.00000000000E+00 0.  1.
         13    1    4    4    0    0  0.32607706259E+02  0.72409073985E+00  0.36060267948E+02  0.48622317297E+02  0.00000000000E+00 0. -1.
          4    1    1    2  501    0 -0.35125504248E+02  0.44755679397E+02 -0.74418369299E+01  0.57378156330E+02  0.00000000000E+00 0. -1.
<scales pt_clust_5="13000.00000" pt_clust_6="13000.00000" pt_clust_7="13000.00000" pt_clust_8="13000.00000" pt_clust_9="56.89351"></scales>
<clustering>
<clus scale="   56.894">  2  9  1 -1</clus>
<clus scale="   80.587">  5  6 -1 -1</clus>
<clus scale="   91.056">  7  8 -1 -1</clus>
<clus scale="  108.816">  1  5  2 -1</clus>
<clus scale="   56.894">  2  5  1 -1</clus>
</clustering>
</event>
<event>
 9    1  0.9171696E-005  0.1602681E+03  0.7546771E-02  0.1188795E+00
          1   -1    0    0  502    0 -0.00000000000E+00  0.00000000000E+00  0.96689018655E+03  0.96689018655E+03  0.00000000000E+00 0. -1.
         21   -1    0    0  501  502  0.00000000000E+00 -0.00000000000E+00 -0.62329843611E+02  0.62329843611E+02  0.00000000000E+00 0. -1.
         23    2    1    2    0    0  0.47072633418E+02  0.77948052176E+02  0.15183467106E+03  0.19889379577E+03  0.90626944161E+02 0.  0.
        -24    2    1    2    0    0  0.12614075710E+01 -0.19358282762E+03  0.36053470172E+03  0.41859654407E+03  0.88101607626E+02 0.  0.
         13    1    4    4    0    0  0.39834484815E+02 -0.75029761385E+02  0.11226224519E+03  0.14078019381E+03  0.00000000000E+00 0. -1.
        -14    1    4    4    0    0 -0.38573077244E+02 -0.11855306623E+03  0.24827245653E+03  0.27781635026E+03  0.00000000000E+00 0.  1.
        -13    1    3    3    0    0  0.65505508661E+02  0.85959746554E+02  0.12284452464E+03  0.16361792972E+03  0.00000000000E+00 0. -1.
         13    1    3    3    0    0 -0.18432875243E+02 -0.80116943782E+01  0.28990146414E+02  0.35275866051E+02  0.00000000000E+00 0.  1.
          2    1    1    2  501    0 -0.48334040989E+02  0.11563477544E+03  0.39219097016E+03  0.41172969032E+03  0.00000000000E+00 0. -1.
<scales pt_clust_5="13000.00000" pt_clust_6="13000.00000" pt_clust_7="13000.00000" pt_clust_8="13000.00000" pt_clust_9="125.32995"></scales>
<clustering>
<clus scale="   88.102">  5  6 -1 -1</clus>
<clus scale="   90.627">  7  8 -1 -1</clus>
<clus scale="  125.330">  2  9  1 -1</clus>
<clus scale="  158.854">  2  5  1 -1</clus>
<clus scale="  125.330">  2  5  1 -1</clus>
</clustering>
</event>
<event>
 9    1  0.9171696E-005  0.1728187E+03  0.7546771E-02  0.1176119E+00
         21   -1    0    0  501  502  0.00000000000E+00  0.00000000000E+00  0.16846562118E+03  0.16846562118E+03  0.00000000000E+00 0.  1.
          3   -1    0    0  502    0 -0.00000000000E+00 -0.00000000000E+00 -0.47522689812E+03  0.47522689812E+03  0.00000000000E+00 0. -1.
        -24    2    1    2    0    0  0.32267954282E+02 -0.13697792653E+03 -0.33172194246E+03  0.36964224683E+03  0.82412197575E+02 0.  0.
         23    2    1    2    0    0 -0.26637989878E+02  0.16971742007E+03 -0.42223545327E+02  0.19910169594E+03  0.91351367639E+02 0.  0.
         13    1    3    3    0    0  0.14654354189E+02 -0.12921756939E+03 -0.21444153355E+03  0.25079294577E+03  0.00000000000E+00 0. -1.
        -14    1    3    3    0    0  0.17613600093E+02 -0.77603571391E+01 -0.11728040891E+03  0.11884930107E+03  0.00000000000E+00 0.  1.
        -11    1    4    4    0    0  0.20393519019E+01  0.16405257279E+03 -0.27438585717E+02  0.16634386548E+03  0.00000000000E+00 0.  1.
         11    1    4    4    0    0 -0.28677341780E+02  0.56648472727E+01 -0.14784959610E+02  0.32757830466E+02  0.00000000000E+00 0. -1.
          4    1    1    2  501    0 -0.56299644044E+01 -0.32739493541E+02  0.67184210844E+02  0.74948576526E+02  0.00000000000E+00 0. -1.
<scales pt_clust_5="13000.00000" pt_clust_6="13000.00000" pt_clust_7="13000.00000" pt_clust_8="13000.00000" pt_clust_9="33.22004"></scales>
<clustering>
<clus scale="   33.220">  1  9  2 -1</clus>
<clus scale="   82.412">  5  6 -1 -1</clus>
<clus scale="   91.351">  7  8 -1 -1</clus>
<clus scale="  168.265">  2  5  1 -1</clus>
<clus scale="   33.220">  1  5  2 -1</clus>
</clustering>
</event>
<event>
 9    1  0.9171696E-005  0.1364691E+03  0.7546771E-02  0.1220575E+00
         21   -1    0    0  501  502  0.00000000000E+00  0.00000000000E+00  0.30905019821E+03  0.30905019821E+03  0.00000000000E+00 0.  1.
          3   -1    0    0  502    0 -0.00000000000E+00 -0.00000000000E+00 -0.13067554479E+03  0.13067554479E+03  0.00000000000E+00 0. -1.
        -24    2    1    2    0    0  0.35549034701E+00  0.98939195043E+02 -0.59260657639E+02  0.14120160327E+03  0.81467641018E+02 0.  0.
         23    2    1    2    0    0  0.18195199189E+02 -0.11314632371E+03  0.23185686749E+03  0.27445422080E+03  0.91838752552E+02 0.  0.
         13    1    3    3    0    0  0.33570344613E+02  0.85414835847E+02 -0.48255694224E+02  0.10368835154E+03  0.00000000000E+00 0. -1.
        -14    1    3    3    0    0 -0.33214854266E+02  0.13524359197E+02 -0.11004963415E+02  0.37513251730E+02  0.00000000000E+00 0.  1.
        -13    1    4    4    0    0  0.53712786221E+02 -0.64231503158E+02  0.10820903636E+03  0.13682084985E+03  0.00000000000E+00 0.  1.
         13    1    4    4    0    0 -0.35517587033E+02 -0.48914820552E+02  0.12364783113E+03  0.13763337096E+03  0.00000000000E+00 0. -1.
          4    1    1    2  501    0 -0.18550689536E+02  0.14207128667E+02  0.57784435662E+01  0.24069918929E+02  0.00000000000E+00 0. -1.
<scales pt_clust_5="13000.00000" pt_clust_6="13000.00000" pt_clust_7="13000.00000" pt_clust_8="13000.00000" pt_clust_9="23.36603"></scales>
<clustering>
<clus scale="   23.366">  1  9  2 -1</clus>
<clus scale="   81.468">  5  6 -1 -1</clus>
<clus scale="   91.839">  7  8 -1 -1</clus>
<clus scale="  129.717">  2  5  1 -1</clus>
<clus scale="   23.366">  1  5  2 -1</clus>
</clustering>
</event>
<event>
 9    1  0.9171696E-005  0.2511940E+03  0.7546771E-02  0.1113129E+00
         21   -1    0    0  501  502  0.00000000000E+00  0.00000000000E+00  0.58886091553E+03  0.58886091553E+03  0.00000000000E+00 0. -1.
          1   -1    0    0  502    0 -0.00000000000E+00 -0.00000000000E+00 -0.61465793406E+03  0.61465793406E+03  0.00000000000E+00 0. -1.
        -24    2    1    2    0    0  0.24336804097E+03  0.43169891717E+02 -0.54722727389E+03  0.60576287022E+03  0.79995766947E+02 0.  0.
         23    2    1    2    0    0 -0.13254322171E+03 -0.11441379414E+02  0.20285983117E+03  0.25896997874E+03  0.90635136695E+02 0.  0.
         11    1    3    3    0    0  0.14291609324E+03  0.93867409368E+01 -0.22654608699E+03  0.26802285377E+03  0.00000000000E+00 0. -1.
        -12    1    3    3    0    0  0.10045194773E+03  0.33783150780E+02 -0.32068118690E+03  0.33774001645E+03  0.00000000000E+00 0.  1.
        -11    1    4    4    0    0 -0.24015292663E+02 -0.29320297831E+02  0.10542110004E+03  0.11202688285E+03  0.00000000000E+00 0. -1.
         11    1    4    4    0    0 -0.10852792905E+03  0.17878918417E+02  0.97438731123E+02  0.14694309589E+03  0.00000000000E+00 0.  1.
          2    1    1    2  501    0 -0.11082481926E+03 -0.31728512303E+02  0.31857042419E+03  0.33878600063E+03  0.00000000000E+00 0. -1.
<scales pt_clust_5="13000.00000" pt_clust_6="13000.00000" pt_clust_7="13000.00000" pt_clust_8="13000.00000" pt_clust_9="115.27723"></scales>
<clustering>
<clus scale="   79.996">  5  6 -1 -1</clus>
<clus scale="   90.635">  7  8 -1 -1</clus>
<clus scale="  115.277">  1  9  2 -1</clus>
<clus scale="  247.554">  2  5  1 -1</clus>
<clus scale="  115.277">  1  5  2 -1</clus>
</clustering>
</event>
<event>
 9    1  0.9171696E-005  0.1398041E+03  0.7546771E-02  0.1232330E+00
         21   -1    0    0  501  502  0.00000000000E+00  0.00000000000E+00  0.24982622624E+03  0.24982622624E+03  0.00000000000E+00 0. -1.
          1   -1    0    0  502    0 -0.00000000000E+00 -0.00000000000E+00 -0.12634901746E+03  0.12634901746E+03  0.00000000000E+00 0. -1.
        -24    2    1    2    0    0 -0.30141784375E+02 -0.10180524981E+02 -0.51104895958E+01  0.94651562391E+02  0.88997926408E+02 0.  0.
         23    2    1    2    0    0  0.87925912780E+02 -0.75853361762E+02  0.86946334347E+02  0.16983286539E+03  0.88311032607E+02 0.  0.
         13    1    3    3    0    0 -0.51140301700E+02  0.16311038878E+01  0.24291107471E+02  0.56639640360E+02  0.00000000000E+00 0. -1.
        -14    1    3    3    0    0  0.20998517326E+02 -0.11811628869E+02 -0.29401597067E+02  0.38011922031E+02  0.00000000000E+00 0.  1.
        -11    1    4    4    0    0  0.81355621140E+02 -0.19842830545E+02  0.28106479095E+02  0.88331473339E+02  0.00000000000E+00 0. -1.
         11    1    4    4    0    0  0.65702916399E+01 -0.56010531217E+02  0.58839855253E+02  0.81501392047E+02  0.00000000000E+00 0.  1.
          2    1    1    2  501    0 -0.57784128405E+02  0.86033886743E+02  0.41641364028E+02  0.11169081592E+03  0.00000000000E+00 0. -1.
<scales pt_clust_5="13000.00000" pt_clust_6="13000.00000" pt_clust_7="13000.00000" pt_clust_8="13000.00000" pt_clust_9="108.38064"></scales>
<clustering>
<clus scale="   88.311">  7  8 -1 -1</clus>
<clus scale="   88.998">  5  6 -1 -1</clus>
<clus scale="   94.513">  2  5  1 -1</clus>
<clus scale="  108.381">  1  9  2 -1</clus>
<clus scale="  108.381">  1  5  2 -1</clus>
</clustering>
</event>
<event>
 9    1  0.9171696E-005  0.9166032E+02  0.7546771E-02  0.1306549E+00
         21   -1    0    0  501  502  0.00000000000E+00  0.00000000000E+00  0.10000903044E+03  0.10000903044E+03  0.00000000000E+00 0. -1.
          1   -1    0    0  502    0 -0.00000000000E+00 -0.00000000000E+00 -0.24159453409E+03  0.24159453409E+03  0.00000000000E+00 0. -1.
        -24    2    1    2    0    0 -0.95537549057E+01 -0.26409702567E-01 -0.14494180571E+03  0.16530756343E+03  0.78912537369E+02 0.  0.
         23    2    1    2    0    0  0.53141698754E+01  0.23301865210E+02 -0.57981739599E+02  0.11055350140E+03  0.91043820338E+02 0.  0.
         11    1    3    3    0    0 -0.31998312898E+02  0.28660636922E+02 -0.82703285397E+02  0.93194192697E+02  0.00000000000E+00 0. -1.
        -12    1    3    3    0    0  0.22444557992E+02 -0.28687046625E+02 -0.62238520315E+02  0.72113370733E+02  0.00000000000E+00 0.  1.
        -13    1    4    4    0    0  0.23880545794E+02  0.40308342463E+02 -0.68728074525E+02  0.83178069029E+02  0.00000000000E+00 0. -1.
         13    1    4    4    0    0 -0.18566375918E+02 -0.17006477253E+02  0.10746334926E+02  0.27375432373E+02  0.00000000000E+00 0.  1.
          2    1    1    2  501    0  0.42395850303E+01 -0.23275455507E+02  0.61338041663E+02  0.65742499689E+02  0.00000000000E+00 0. -1.
<scales pt_clust_5="13000.00000" pt_clust_6="13000.00000" pt_clust_7="13000.00000" pt_clust_8="13000.00000" pt_clust_9="23.65842"></scales>
<clustering>
<clus scale="   23.658">  1  9  2 -1</clus>
<clus scale="   78.913">  5  6 -1 -1</clus>
<clus scale="   79.623">  2  5  1 -1</clus>
<clus scale="   91.044">  7  8 -1 -1</clus>
<clus scale="   23.658">  1  5  2 -1</clus>
</clustering>
</event>
<event>
 9    1  0.9171696E-005  0.1349612E+03  0.7546771E-02  0.1223030E+00
         21   -1    0    0  501  502  0.00000000000E+00  0.00000000000E+00  0.73261414048E+02  0.73261414048E+02  0.00000000000E+00 0. -1.
          1   -1    0    0  502    0 -0.00000000000E+00 -0.00000000000E+00 -0.62677454890E+03  0.62677454890E+03  0.00000000000E+00 0. -1.
        -24    2    1    2    0    0  0.28269811163E+02  0.11224185281E+03 -0.35294910809E+03  0.37971362716E+03  0.78815924826E+02 0.  0.
         23    2    1    2    0    0  0.62618067468E+02 -0.59348004239E+02 -0.45742600355E+02  0.13316454201E+03  0.90538399476E+02 0.  0.
         13    1    3    3    0    0  0.16535064307E+02  0.12299439709E+03 -0.31094694012E+03  0.33479699765E+03  0.00000000000E+00 0. -1.
        -14    1    3    3    0    0  0.11734746856E+02 -0.10752544283E+02 -0.42002167967E+02  0.44916629507E+02  0.00000000000E+00 0.  1.
        -11    1    4    4    0    0  0.35195791676E+01 -0.58054946584E+02 -0.45835686867E+02  0.74051836243E+02  0.00000000000E+00 0.  1.
         11    1    4    4    0    0  0.59098488300E+02 -0.12930576548E+01  0.93086511997E-01  0.59112705762E+02  0.00000000000E+00 0. -1.
          2    1    1    2  501    0 -0.90887878630E+02 -0.52893848566E+02 -0.15482142641E+03  0.18715779378E+03  0.00000000000E+00 0. -1.
<scales pt_clust_5="13000.00000" pt_clust_6="13000.00000" pt_clust_7="13000.00000" pt_clust_8="13000.00000" pt_clust_9="105.15882"></scales>
<clustering>
<clus scale="   78.816">  5  6 -1 -1</clus>
<clus scale="   90.538">  7  8 -1 -1</clus>
<clus scale="  105.159">  1  9  2 -1</clus>
<clus scale="  127.394">  2  5  1 -1</clus>
<clus scale="  105.159">  1  5  2 -1</clus>
</clustering>
</event>
<event>
 9    1  0.9171696E-005  0.2976518E+03  0.7546771E-02  0.1086959E+00
          1   -1    0    0  502    0 -0.00000000000E+00  0.00000000000E+00  0.10311900046E+04  0.10311900046E+04  0.00000000000E+00 0. -1.
         21   -1    0    0  501  502  0.00000000000E+00 -0.00000000000E+00 -0.38032354547E+03  0.38032354547E+03  0.00000000000E+00 0. -1.
        -24    2    1    2    0    0 -0.15343352933E+03  0.24105207905E+03  0.94263124324E+03  0.98817133509E+03  0.79252596297E+02 0.  0.
         23    2    1    2    0    0  0.12605633525E+03 -0.20132524727E+03 -0.26566208488E+03  0.36848710748E+03  0.93724864326E+02 0.  0.
         11    1    3    3    0    0 -0.56902013487E+02  0.32918512988E+02  0.25175279188E+03  0.26019403501E+03  0.00000000000E+00 0. -1.
        -12    1    3    3    0    0 -0.96531515845E+02  0.20813356606E+03  0.69087845136E+03  0.72797730008E+03  0.00000000000E+00 0.  1.
        -13    1    4    4    0    0  0.88016867823E+02 -0.17033595975E+03 -0.15195500696E+03  0.24464593261E+03  0.00000000000E+00 0. -1.
         13    1    4    4    0    0  0.38039467428E+02 -0.30989287519E+02 -0.11370707792E+03  0.12384117486E+03  0.00000000000E+00 0.  1.
          2    1    1    2  501    0  0.27377194082E+02 -0.39726831782E+02 -0.26102699183E+02  0.54855107546E+02  0.00000000000E+00 0. -1.
<scales pt_clust_5="13000.00000" pt_clust_6="13000.00000" pt_clust_7="13000.00000" pt_clust_8="13000.00000" pt_clust_9="48.24657"></scales>
<clustering>
<clus scale="   48.247">  2  9  1 -1</clus>
<clus scale="   79.253">  5  6 -1 -1</clus>
<clus scale="   93.725">  7  8 -1 -1</clus>
<clus scale="  293.417">  1  5  2 -1</clus>
<clus scale="   48.247">  2  5  1 -1</clus>
</clustering>
</event>
<event>
 9    1  0.9171696E-005  0.1096201E+03  0.7546771E-02  0.1264783E+00
         21   -1    0    0  501  502  0.00000000000E+00  0.00000000000E+00  0.31468420874E+03  0.31468420874E+03  0.00000000000E+00 0. -1.
          1   -1    0    0  502    0 -0.00000000000E+00 -0.00000000000E+00 -0.93774763012E+02  0.93774763012E+02  0.00000000000E+00 0. -1.
         23    2    1    2    0    0  0.57300137938E+02  0.45170439080E+02 -0.24274475474E+02  0.11815956218E+03  0.89714868337E+02 0.  0.
        -24    2    1    2    0    0 -0.67239619233E+01 -0.47621441912E+02  0.10311226817E+03  0.13947397541E+03  0.80671163222E+02 0.  0.
         13    1    4    4    0    0  0.24553414094E+02 -0.48685746551E+02  0.90655822836E+02  0.10579059634E+03  0.00000000000E+00 0. -1.
        -14    1    4    4    0    0 -0.31277376017E+02  0.10643046385E+01  0.12456445335E+02  0.33683379065E+02  0.00000000000E+00 0.  1.
        -13    1    3    3    0    0 -0.31034096078E+01 -0.23120814410E+02  0.16128179093E+01  0.23383848951E+02  0.00000000000E+00 0.  1.
         13    1    3    3    0    0  0.60403547545E+02  0.68291253490E+02 -0.25887293384E+02  0.94775713229E+02  0.00000000000E+00 0. -1.
          2    1    1    2  501    0 -0.50576176014E+02  0.24510028316E+01  0.14207165303E+03  0.15082543416E+03  0.00000000000E+00 0. -1.
<scales pt_clust_5="13000.00000" pt_clust_6="13000.00000" pt_clust_7="13000.00000" pt_clust_8="13000.00000" pt_clust_9="50.63553"></scales>
<clustering>
<clus scale="   50.636">  1  9  2 -1</clus>
<clus scale="   80.671">  5  6 -1 -1</clus>
<clus scale="   89.715">  7  8 -1 -1</clus>
<clus scale="  102.351">  1  5  2 -1</clus>
<clus scale="   50.636">  1  5  2 -1</clus>
</clustering>
</event>
<event>
 9    1  0.9427478E-005  0.1605899E+03  0.7546771E-02  0.1210619E+00
         21   -1    0    0  501  502  0.00000000000E+00  0.00000000000E+00  0.23756645320E+03  0.23756645320E+03  0.00000000000E+00 0.  1.
          1   -1    0    0  502    0 -0.00000000000E+00 -0.00000000000E+00 -0.30956488756E+03  0.30956488756E+03  0.00000000000E+00 0. -1.
         23    2    1    2    0    0 -0.25147991241E+02 -0.19816525027E+02 -0.57354498435E+02  0.11378015249E+03  0.92904620355E+02 0.  0.
        -24    2    1    2    0    0  0.75937358337E+02  0.12289006487E+03  0.15649578729E+03  0.22721405118E+03  0.79163395439E+02 0.  0.
         11    1    4    4    0    0  0.76658372001E+01  0.23721629887E+02 -0.53506884515E+01  0.25497267528E+02  0.00000000000E+00 0. -1.
        -12    1    4    4    0    0  0.68271521137E+02  0.99168434985E+02  0.16184647575E+03  0.20171678365E+03  0.00000000000E+00 0.  1.
        -11    1    3    3    0    0 -0.50250785552E+01  0.37296456620E+02 -0.19773865065E+02  0.42512149211E+02  0.00000000000E+00 0. -1.
         11    1    3    3    0    0 -0.20122912686E+02 -0.57112981647E+02 -0.37580633370E+02  0.71268003284E+02  0.00000000000E+00 0.  1.
          2    1    1    2  501    0 -0.50789367096E+02 -0.10307353984E+03 -0.17113972322E+03  0.20613713709E+03  0.00000000000E+00 0. -1.
<scales pt_clust_5="13000.00000" pt_clust_6="13000.00000" pt_clust_7="13000.00000" pt_clust_8="13000.00000" pt_clust_9="139.72214"></scales>
<clustering>
<clus scale="   79.163">  5  6 -1 -1</clus>
<clus scale="   92.905">  7  8 -1 -1</clus>
<clus scale="   98.267">  2  7  1 -1</clus>
<clus scale="  139.722">  1  9  2 -1</clus>
<clus scale="  139.722">  1  5  2 -1</clus>
</clustering>
</event>
<event>
 9    1  0.9171696E-005  0.1001922E+03  0.7546771E-02  0.1284634E+00
          1   -1    0    0  502    0 -0.00000000000E+00  0.00000000000E+00  0.21921470803E+03  0.21921470803E+03  0.00000000000E+00 0. -1.
         21   -1    0    0  501  502  0.00000000000E+00 -0.00000000000E+00 -0.94007718994E+02  0.94007718994E+02  0.00000000000E+00 0. -1.
         23    2    1    2    0    0 -0.11226942140E+02  0.27633478090E+02  0.76366950145E+01  0.96252032201E+02  0.91194743548E+02 0.  0.
        -24    2    1    2    0    0  0.61653207892E+02 -0.10930981158E+02  0.18466385184E+02  0.10452766972E+03  0.81635910991E+02 0.  0.
         13    1    4    4    0    0  0.52079067082E+02 -0.43146196876E+02  0.34508951216E+01  0.67718034600E+02  0.00000000000E+00 0. -1.
        -14    1    4    4    0    0  0.95741408105E+01  0.32215215718E+02  0.15015490062E+02  0.36809635122E+02  0.00000000000E+00 0.  1.
        -13    1    3    3    0    0 -0.36007097749E+02 -0.15797071132E+02  0.20887282414E+02  0.44523444513E+02  0.00000000000E+00 0.  1.
         13    1    3    3    0    0  0.24780155609E+02  0.43430549222E+02 -0.13250587400E+02  0.51728587688E+02  0.00000000000E+00 0. -1.
          2    1    1    2  501    0 -0.50426265752E+02 -0.16702496932E+02  0.99103908836E+02  0.11244272510E+03  0.00000000000E+00 0. -1.
<scales pt_clust_5="13000.00000" pt_clust_6="13000.00000" pt_clust_7="13000.00000" pt_clust_8="13000.00000" pt_clust_9="53.12047"></scales>
<clustering>
<clus scale="   53.120">  2  9  1 -1</clus>
<clus scale="   81.636">  5  6 -1 -1</clus>
<clus scale="   91.195">  7  8 -1 -1</clus>
<clus scale="   91.577">  2  5  1 -1</clus>
<clus scale="   53.120">  2  5  1 -1</clus>
</clustering>
</event>
<event>
 9    1  0.9171696E-005  0.1234661E+03  0.7546771E-02  0.1241804E+00
         -2   -1    0    0    0  501 -0.00000000000E+00  0.00000000000E+00  0.36498019609E+02  0.36498019609E+02  0.00000000000E+00 0.  1.
         21   -1    0    0  501  502  0.00000000000E+00 -0.00000000000E+00 -0.66417443379E+03  0.66417443379E+03  0.00000000000E+00 0. -1.
        -24    2    1    2    0    0 -0.67912113896E+02 -0.50829688737E+02 -0.93559205698E+02  0.14886478011E+03  0.78814245644E+02 0.  0.
         23    2    1    2    0    0  0.62412706703E+02  0.28987326348E+02 -0.43252817757E+03  0.44775161399E+03  0.93087444867E+02 0.  0.
         13    1    3    3    0    0  0.15231583591E+02 -0.23644669113E+02 -0.26493528344E+02  0.38639080738E+02  0.00000000000E+00 0. -1.
        -14    1    3    3    0    0 -0.83143697488E+02 -0.27185019624E+02 -0.67065677353E+02  0.11022569938E+03  0.00000000000E+00 0.  1.
        -11    1    4    4    0    0  0.50293090937E+02  0.60549751720E+02 -0.34628296901E+03  0.35511626555E+03  0.00000000000E+00 0. -1.
         11    1    4    4    0    0  0.12119615766E+02 -0.31562425372E+02 -0.86245208558E+02  0.92635348442E+02  0.00000000000E+00 0.  1.
         -1    1    1    2    0  502  0.54994071939E+01  0.21842362389E+02 -0.10158903092E+03  0.10405605930E+03  0.00000000000E+00 0.  1.
<scales pt_clust_5="13000.00000" pt_clust_6="13000.00000" pt_clust_7="13000.00000" pt_clust_8="13000.00000" pt_clust_9="22.52404"></scales>
<clustering>
<clus scale="   22.524">  2  9  1 -1</clus>
<clus scale="   78.814">  5  6 -1 -1</clus>
<clus scale="   93.087">  7  8 -1 -1</clus>
<clus scale="  113.094">  1  5  2 -1</clus>
<clus scale="   22.524">  2  5  1 -1</clus>
</clustering>
</event>
<event>
 9    1  0.9171696E-005  0.1015774E+03  0.7546771E-02  0.1282621E+00
         -4   -1    0    0    0  501 -0.00000000000E+00  0.00000000000E+00  0.19012644341E+03  0.19012644341E+03  0.00000000000E+00 0.  1.
         21   -1    0    0  501  502  0.00000000000E+00 -0.00000000000E+00 -0.76801964472E+02  0.76801964472E+02  0.00000000000E+00 0. -1.
         23    2    1    2    0    0  0.36198692972E+02 -0.15444521746E+01  0.71569394016E+02  0.12343299140E+03  0.93812549805E+02 0.  0.
        -24    2    1    2    0    0 -0.40474722100E+02 -0.28891384873E+02  0.63265048583E+01  0.96593296196E+02  0.82567093671E+02 0.  0.
         11    1    4    4    0    0 -0.51222687138E+02 -0.26340670261E+02 -0.25435825639E+02  0.62964877617E+02  0.00000000000E+00 0. -1.
        -12    1    4    4    0    0  0.10747965038E+02 -0.25507146119E+01  0.31762330497E+02  0.33628418579E+02  0.00000000000E+00 0.  1.
        -11    1    3    3    0    0  0.38577289766E+02 -0.36567946187E+02  0.70525288067E+02  0.88313295890E+02  0.00000000000E+00 0. -1.
         11    1    3    3    0    0 -0.23785967939E+01  0.35023494013E+02  0.10441059489E+01  0.35119695511E+02  0.00000000000E+00 0.  1.
         -3    1    1    2    0  502  0.42760291274E+01  0.30435837048E+02  0.35428580068E+02  0.46902120288E+02  0.00000000000E+00 0.  1.
<scales pt_clust_5="13000.00000" pt_clust_6="13000.00000" pt_clust_7="13000.00000" pt_clust_8="13000.00000" pt_clust_9="30.73476"></scales>
<clustering>
<clus scale="   30.735">  2  9  1 -1</clus>
<clus scale="   82.567">  5  6 -1 -1</clus>
<clus scale="   91.293">  2  5  1 -1</clus>
<clus scale="   93.813">  7  8 -1 -1</clus>
<clus scale="   30.735">  2  5  1 -1</clus>
</clustering>
</event>
<event>
 9    1  0.9171696E-005  0.9154293E+02  0.7546771E-02  0.1303046E+00
          1   -1    0    0  502    0 -0.00000000000E+00  0.00000000000E+00  0.18192268979E+03  0.18192268979E+03  0.00000000000E+00 0. -1.
         21   -1    0    0  501  502  0.00000000000E+00 -0.00000000000E+00 -0.17336983679E+03  0.17336983679E+03  0.00000000000E+00 0. -1.
         23    2    1    2    0    0  0.14880529989E+02  0.12227804872E+02  0.11466524783E+03  0.14775777982E+03  0.91177261708E+02 0.  0.
        -24    2    1    2    0    0  0.23376949290E+02  0.51011007720E+02 -0.43310188055E+02  0.11054557564E+03  0.84828929256E+02 0.  0.
         13    1    4    4    0    0  0.40499808415E+01  0.72592513091E+02 -0.29708044967E+02  0.78540710701E+02  0.00000000000E+00 0. -1.
        -14    1    4    4    0    0  0.19326968448E+02 -0.21581505371E+02 -0.13602143087E+02  0.32004864944E+02  0.00000000000E+00 0.  1.
        -11    1    3    3    0    0  0.33584315166E+02  0.22491700738E+01  0.12103032885E+03  0.12562366613E+03  0.00000000000E+00 0. -1.
         11    1    3    3    0    0 -0.18703785177E+02  0.99786347982E+01 -0.63650810182E+01  0.22134113688E+02  0.00000000000E+00 0.  1.
          2    1    1    2  501    0 -0.38257479279E+02 -0.63238812592E+02 -0.62802206773E+02  0.96989171119E+02  0.00000000000E+00 0. -1.
<scales pt_clust_5="13000.00000" pt_clust_6="13000.00000" pt_clust_7="13000.00000" pt_clust_8="13000.00000" pt_clust_9="73.91064"></scales>
<clustering>
<clus scale="   73.911">  2  9  1 -1</clus>
<clus scale="   84.829">  5  6 -1 -1</clus>
<clus scale="   85.222">  2  5  1 -1</clus>
<clus scale="   91.177">  7  8 -1 -1</clus>
<clus scale="   73.911">  2  5  1 -1</clus>
</clustering>
</event>
<event>
 9    1  0.9171696E-005  0.1007230E+03  0.7546771E-02  0.1283194E+00
         -4   -1    0    0    0  501 -0.00000000000E+00  0.00000000000E+00  0.12611882720E+03  0.12611882720E+03  0.00000000000E+00 0.  1.
         21   -1    0    0  501  502  0.00000000000E+00 -0.00000000000E+00 -0.21755648206E+03  0.21755648206E+03  0.00000000000E+00 0. -1.
         23    2    1    2    0    0  0.27337832939E+02  0.47531173665E+02  0.63820731058E+02  0.12339122781E+03  0.90253752320E+02 0.  0.
        -24    2    1    2    0    0  0.31028511954E+02 -0.17966104137E+02 -0.10704691406E+03  0.13901250233E+03  0.81116487496E+02 0.  0.
         11    1    4    4    0    0  0.43494554708E+01 -0.28208991943E+02 -0.10668010931E+03  0.11043238073E+03  0.00000000000E+00 0. -1.
        -12    1    4    4    0    0  0.26679056483E+02  0.10242887806E+02 -0.36680474417E+00  0.28580121608E+02  0.00000000000E+00 0.  1.
        -11    1    3    3    0    0 -0.26210301571E+02  0.44350688753E+02  0.25611745375E+02  0.57531947668E+02  0.00000000000E+00 0.  1.
         11    1    3    3    0    0  0.53548134510E+02  0.31804849122E+01  0.38208985684E+02  0.65859280142E+02  0.00000000000E+00 0. -1.
         -3    1    1    2    0  502 -0.58366344892E+02 -0.29565069528E+02 -0.48211471868E+02  0.81271579116E+02  0.00000000000E+00 0.  1.
<scales pt_clust_5="13000.00000" pt_clust_6="13000.00000" pt_clust_7="13000.00000" pt_clust_8="13000.00000" pt_clust_9="65.42724"></scales>
<clustering>
<clus scale="   65.427">  2  9  1 -1</clus>
<clus scale="   81.116">  5  6 -1 -1</clus>
<clus scale="   90.254">  7  8 -1 -1</clus>
<clus scale="   92.624">  2  5  1 -1</clus>
<clus scale="   65.427">  2  5  1 -1</clus>
</clustering>
</event>
<event>
 9    1  0.9171696E-005  0.1423010E+03  0.7546771E-02  0.1225401E+00
         21   -1    0    0  501  502  0.00000000000E+00  0.00000000000E+00  0.55825067629E+02  0.55825067629E+02  0.00000000000E+00 0. -1.
          1   -1    0    0  502    0 -0.00000000000E+00 -0.00000000000E+00 -0.73771362381E+03  0.73771362381E+03  0.00000000000E+00 0. -1.
         23    2    1    2    0    0 -0.43855312294E+02 -0.14717073718E+02 -0.33558098528E+03  0.35116152286E+03  0.92519926380E+02 0.  0.
        -24    2    1    2    0    0 -0.45915604309E+02  0.10537118162E+03 -0.12793564446E+03  0.18946753452E+03  0.79492696992E+02 0.  0.
         13    1    4    4    0    0 -0.52176629654E+02  0.88132406953E+02 -0.13530889050E+03  0.16970037621E+03  0.00000000000E+00 0. -1.
        -14    1    4    4    0    0  0.62610253454E+01  0.17238774672E+02  0.73732460325E+01  0.19767158309E+02  0.00000000000E+00 0.  1.
        -13    1    3    3    0    0 -0.68150482605E+02  0.23201637400E+01 -0.17411872919E+03  0.18699519591E+03  0.00000000000E+00 0. -1.
         13    1    3    3    0    0  0.24295170311E+02 -0.17037237458E+02 -0.16146225610E+03  0.16416632695E+03  0.00000000000E+00 0.  1.
          2    1    1    2  501    0  0.89770916603E+02 -0.90654107907E+02 -0.21837192644E+03  0.25290963407E+03  0.00000000000E+00 0. -1.
<scales pt_clust_5="13000.00000" pt_clust_6="13000.00000" pt_clust_7="13000.00000" pt_clust_8="13000.00000" pt_clust_9="118.02753"></scales>
<clustering>
<clus scale="   79.493">  5  6 -1 -1</clus>
<clus scale="   92.520">  7  8 -1 -1</clus>
<clus scale="  103.440">  2  7  1 -1</clus>
<clus scale="  118.028">  1  9  2 -1</clus>
<clus scale="  118.028">  1  5  2 -1</clus>
</clustering>
</event>
<event>
 9    1  0.9171696E-005  0.1306840E+03  0.7546771E-02  0.1229256E+00
         21   -1    0    0  501  502  0.00000000000E+00  0.00000000000E+00  0.81197599494E+02  0.81197599494E+02  0.00000000000E+00 0. -1.
          3   -1    0    0  502    0 -0.00000000000E+00 -0.00000000000E+00 -0.36904763436E+03  0.36904763436E+03  0.00000000000E+00 0. -1.
         23    2    1    2    0    0  0.86634147019E+02  0.62352704312E+02 -0.18397891683E+03  0.23141013485E+03  0.91154119533E+02 0.  0.
        -24    2    1    2    0    0 -0.76868198704E+02 -0.25320445997E+01 -0.16251760065E+02  0.11229385363E+03  0.80191387541E+02 0.  0.
         13    1    4    4    0    0 -0.56743864674E+02 -0.27523753078E+02 -0.37907672537E+02  0.73582707200E+02  0.00000000000E+00 0. -1.
        -14    1    4    4    0    0 -0.20124334030E+02  0.24991708478E+02  0.21655912473E+02  0.38711146429E+02  0.00000000000E+00 0.  1.
        -11    1    3    3    0    0  0.82448478327E+02  0.82863494000E+02 -0.16972635874E+03  0.20608529076E+03  0.00000000000E+00 0. -1.
         11    1    3    3    0    0  0.41856686926E+01 -0.20510789687E+02 -0.14252558087E+02  0.25324844087E+02  0.00000000000E+00 0.  1.
          4    1    1    2  501    0 -0.97659483157E+01 -0.59820659713E+02 -0.87619357965E+02  0.10654124537E+03  0.00000000000E+00 0. -1.
<scales pt_clust_5="13000.00000" pt_clust_6="13000.00000" pt_clust_7="13000.00000" pt_clust_8="13000.00000" pt_clust_9="60.61261"></scales>
<clustering>
<clus scale="   60.613">  1  9  2 -1</clus>
<clus scale="   80.191">  5  6 -1 -1</clus>
<clus scale="   91.154">  7  8 -1 -1</clus>
<clus scale="  123.288">  1  5  2 -1</clus>
<clus scale="   60.613">  1  5  2 -1</clus>
</clustering>
</event>
<event>
 9    1  0.9171696E-005  0.1801385E+03  0.7546771E-02  0.1194783E+00
         -2   -1    0    0    0  501 -0.00000000000E+00  0.00000000000E+00  0.14885984846E+03  0.14885984846E+03  0.00000000000E+00 0.  1.
         21   -1    0    0  501  502  0.00000000000E+00 -0.00000000000E+00 -0.39087262141E+03  0.39087262141E+03  0.00000000000E+00 0. -1.
         23    2    1    2    0    0  0.57022095139E+01 -0.24736242746E+02  0.25080811107E+02  0.10120326542E+03  0.94702993338E+02 0.  0.
        -24    2    1    2    0    0 -0.11492117643E+03 -0.10365004678E+03 -0.16960676410E+03  0.24381017061E+03  0.82016680484E+02 0.  0.
         13    1    4    4    0    0 -0.61850635307E+02 -0.18042637227E+02 -0.28518964688E+02  0.70458279803E+02  0.00000000000E+00 0. -1.
        -14    1    4    4    0    0 -0.53070541124E+02 -0.85607409549E+02 -0.14108779941E+03  0.17335189081E+03  0.00000000000E+00 0.  1.
        -11    1    3    3    0    0  0.46793697225E+02  0.41214495222E+01  0.18809923577E+02  0.50600886070E+02  0.00000000000E+00 0.  1.
         11    1    3    3    0    0 -0.41091487711E+02 -0.28857692268E+02  0.62708875300E+01  0.50602379349E+02  0.00000000000E+00 0. -1.
         -1    1    1    2    0  502  0.10921896692E+03  0.12838628952E+03 -0.97486819954E+02  0.19471903383E+03  0.00000000000E+00 0.  1.
<scales pt_clust_5="13000.00000" pt_clust_6="13000.00000" pt_clust_7="13000.00000" pt_clust_8="13000.00000" pt_clust_9="160.38450"></scales>
<clustering>
<clus scale="   82.017">  5  6 -1 -1</clus>
<clus scale="   94.703">  7  8 -1 -1</clus>
<clus scale="   98.046">  1  7  2 -1</clus>
<clus scale="  160.384">  2  9  1 -1</clus>
<clus scale="  160.384">  2  5  1 -1</clus>
</clustering>
</event>
<event>
 9    1  0.9171696E-005  0.9644754E+02  0.7546771E-02  0.1302390E+00
         21   -1    0    0  501  502  0.00000000000E+00  0.00000000000E+00  0.13228213497E+03  0.13228213497E+03  0.00000000000E+00 0. -1.
          3   -1    0    0  502    0 -0.00000000000E+00 -0.00000000000E+00 -0.23319109558E+03  0.23319109558E+03  0.00000000000E+00 0. -1.
        -24    2    1    2    0    0  0.46961695725E+02  0.81215439382E+01 -0.13080590031E+03  0.15410240472E+03  0.66075768954E+02 0.  0.
         23    2    1    2    0    0 -0.23579022787E+01  0.31036475367E+01 -0.61079858049E+02  0.10942828790E+03  0.90711679520E+02 0.  0.
         13    1    3    3    0    0  0.51431791475E+02 -0.60107463029E+01 -0.12920336249E+03  0.13919363177E+03  0.00000000000E+00 0. -1.
        -14    1    3    3    0    0 -0.44700957499E+01  0.14132290241E+02 -0.16025378189E+01  0.14908772952E+02  0.00000000000E+00 0.  1.
        -13    1    4    4    0    0  0.25415169804E+02  0.34667854921E+02 -0.11650452880E+02  0.44536772147E+02  0.00000000000E+00 0. -1.
         13    1    4    4    0    0 -0.27773072082E+02 -0.31564207385E+02 -0.49429405169E+02  0.64891515748E+02  0.00000000000E+00 0.  1.
          4    1    1    2  501    0 -0.44603793447E+02 -0.11225191475E+02  0.90976797743E+02  0.10194253794E+03  0.00000000000E+00 0. -1.
<scales pt_clust_5="13000.00000" pt_clust_6="13000.00000" pt_clust_7="13000.00000" pt_clust_8="13000.00000" pt_clust_9="45.99460"></scales>
<clustering>
<clus scale="   45.995">  1  9  2 -1</clus>
<clus scale="   66.076">  5  6 -1 -1</clus>
<clus scale="   73.753">  2  5  1 -1</clus>
<clus scale="   90.712">  7  8 -1 -1</clus>
<clus scale="   45.995">  1  5  2 -1</clus>
</clustering>
</event>
<event>
 9    1  0.9171696E-005  0.1153474E+03  0.7546771E-02  0.1254458E+00
         21   -1    0    0  501  502  0.00000000000E+00  0.00000000000E+00  0.65321777326E+02  0.65321777326E+02  0.00000000000E+00 0. -1.
          1   -1    0    0  502    0 -0.00000000000E+00 -0.00000000000E+00 -0.39070487989E+03  0.39070487989E+03  0.00000000000E+00 0. -1.
         23    2    1    2    0    0  0.19896317804E+02  0.76564344267E+02 -0.27859453036E+03  0.30340352595E+03  0.90447912857E+02 0.  0.
        -24    2    1    2    0    0 -0.42742576901E+02 -0.36627941151E+02 -0.22809415639E+02  0.10073991819E+03  0.80372431360E+02 0.  0.
         13    1    4    4    0    0 -0.50622523109E+02  0.73859900552E+01 -0.14315931794E+01  0.51178532160E+02  0.00000000000E+00 0. -1.
        -14    1    4    4    0    0  0.78799462080E+01 -0.44013931206E+02 -0.21377822460E+02  0.49561386034E+02  0.00000000000E+00 0.  1.
        -11    1    3    3    0    0  0.12750374695E+02  0.95491681308E+02 -0.25337329773E+03  0.27107058353E+03  0.00000000000E+00 0. -1.
         11    1    3    3    0    0  0.71459431091E+01 -0.18927337040E+02 -0.25221232630E+02  0.32332942423E+02  0.00000000000E+00 0.  1.
          2    1    1    2  501    0  0.22846259097E+02 -0.39936403116E+02 -0.23979156563E+02  0.51883213066E+02  0.00000000000E+00 0. -1.
<scales pt_clust_5="13000.00000" pt_clust_6="13000.00000" pt_clust_7="13000.00000" pt_clust_8="13000.00000" pt_clust_9="46.00943"></scales>
<clustering>
<clus scale="   46.009">  1  9  2 -1</clus>
<clus scale="   80.372">  5  6 -1 -1</clus>
<clus scale="   90.448">  7  8 -1 -1</clus>
<clus scale="  107.629">  1  5  2 -1</clus>
<clus scale="   46.009">  1  5  2 -1</clus>
</clustering>
</event>
<event>
 9    1  0.9171696E-005  0.2717885E+03  0.7546771E-02  0.1124508E+00
         21   -1    0    0  501  502  0.00000000000E+00  0.00000000000E+00  0.15513478888E+03  0.15513478888E+03  0.00000000000E+00 0. -1.
          3   -1    0    0  502    0 -0.00000000000E+00 -0.00000000000E+00 -0.99751267361E+03  0.99751267361E+03  0.00000000000E+00 0. -1.
         23    2    1    2    0    0 -0.42499704651E+02  0.11139067713E+03 -0.66717481386E+02  0.16137545472E+03  0.85887759411E+02 0.  0.
        -24    2    1    2    0    0  0.30816256475E+02  0.17636953489E+03 -0.64657894012E+03  0.67567025439E+03  0.80063177298E+02 0.  0.
         11    1    4    4    0    0  0.55474722419E+02  0.12887280153E+03 -0.41835000777E+03  0.44125091818E+03  0.00000000000E+00 0. -1.
        -12    1    4    4    0    0 -0.24658465944E+02  0.47496733357E+02 -0.22822893235E+03  0.23441933620E+03  0.00000000000E+00 0.  1.
        -13    1    3    3    0    0 -0.63959794371E+02  0.93754013849E+02 -0.70093965656E+02  0.13339353219E+03  0.00000000000E+00 0.  1.
         13    1    3    3    0    0  0.21460089719E+02  0.17636663286E+02  0.33764842707E+01  0.27981922533E+02  0.00000000000E+00 0. -1.
          4    1    1    2  501    0  0.11683448176E+02 -0.28776021202E+03 -0.12908146323E+03  0.31560175337E+03  0.00000000000E+00 0. -1.
<scales pt_clust_5="13000.00000" pt_clust_6="13000.00000" pt_clust_7="13000.00000" pt_clust_8="13000.00000" pt_clust_9="259.72844"></scales>
<clustering>
<clus scale="   80.063">  5  6 -1 -1</clus>
<clus scale="   85.888">  7  8 -1 -1</clus>
<clus scale="  146.938">  2  7  1 -1</clus>
<clus scale="  259.728">  1  9  2 -1</clus>
<clus scale="  259.728">  1  5  2 -1</clus>
</clustering>
</event>
<event>
 9    1  0.9171696E-005  0.1018031E+03  0.7546771E-02  0.1277594E+00
         21   -1    0    0  501  502  0.00000000000E+00  0.00000000000E+00  0.75492829210E+02  0.75492829210E+02  0.00000000000E+00 0. -1.
         -2   -1    0    0    0  501 -0.00000000000E+00 -0.00000000000E+00 -0.38379029737E+03  0.38379029737E+03  0.00000000000E+00 0.  1.
        -24    2    1    2    0    0  0.31319868634E+02  0.91391092055E+01 -0.21199248067E+03  0.23508571489E+03  0.96229018470E+02 0.  0.
         23    2    1    2    0    0 -0.53243463651E+01 -0.68778357889E+02 -0.11396560697E+02  0.11722990213E+03  0.94096531177E+02 0.  0.
         13    1    3    3    0    0 -0.31030998576E+02  0.12115967143E+02 -0.39647225019E+02  0.51784379731E+02  0.00000000000E+00 0. -1.
        -14    1    3    3    0    0  0.62350867210E+02 -0.29768579378E+01 -0.17234525565E+03  0.18330133516E+03  0.00000000000E+00 0.  1.
        -13    1    4    4    0    0 -0.35278715236E+02  0.57595559144E+01  0.19418177849E+01  0.35798476076E+02  0.00000000000E+00 0.  1.
         13    1    4    4    0    0  0.29954368871E+02 -0.74537913803E+02 -0.13338378482E+02  0.81431426054E+02  0.00000000000E+00 0. -1.
         -1    1    1    2    0  502 -0.25995522269E+02  0.59639248683E+02 -0.84908426793E+02  0.10696750956E+03  0.00000000000E+00 0.  1.
<scales pt_clust_5="13000.00000" pt_clust_6="13000.00000" pt_clust_7="13000.00000" pt_clust_8="13000.00000" pt_clust_9="65.05852"></scales>
<clustering>
<clus scale="   65.059">  1  9  2 -1</clus>
<clus scale="   94.097">  7  8 -1 -1</clus>
<clus scale="   96.229">  5  6 -1 -1</clus>
<clus scale="   99.790">  1  7  2 -1</clus>
<clus scale="   65.059">  1  5  2 -1</clus>
</clustering>
</event>
<event>
 9    1  0.9171696E-005  0.9809499E+02  0.7546771E-02  0.1289926E+00
         -2   -1    0    0    0  501 -0.00000000000E+00  0.00000000000E+00  0.54598836276E+03  0.54598836276E+03  0.00000000000E+00 0.  1.
         21   -1    0    0  501  502  0.00000000000E+00 -0.00000000000E+00 -0.37172921605E+02  0.37172921605E+02  0.00000000000E+00 0. -1.
        -24    2    1    2    0    0  0.33617829096E+02  0.35732584214E+02  0.19238711561E+03  0.21397329205E+03  0.79779643077E+02 0.  0.
         23    2    1    2    0    0  0.14027490609E+02 -0.26609182506E+02  0.70640824690E+02  0.11865893507E+03  0.90470976964E+02 0.  0.
         11    1    3    3    0    0  0.22954148335E+02  0.59566253408E+02  0.10611252030E+03  0.12383415698E+03  0.00000000000E+00 0. -1.
        -12    1    3    3    0    0  0.10663680761E+02 -0.23833669194E+02  0.86274595317E+02  0.90139135073E+02  0.00000000000E+00 0.  1.
        -11    1    4    4    0    0  0.51448179799E+02 -0.61729326108E+01  0.30657745209E+02  0.60207288952E+02  0.00000000000E+00 0. -1.
         11    1    4    4    0    0 -0.37420689190E+02 -0.20436249895E+02  0.39983079481E+02  0.58451646119E+02  0.00000000000E+00 0.  1.
         -1    1    1    2    0  502 -0.47645319705E+02 -0.91234017084E+01  0.24578750085E+03  0.25052905724E+03  0.00000000000E+00 0.  1.
<scales pt_clust_5="13000.00000" pt_clust_6="13000.00000" pt_clust_7="13000.00000" pt_clust_8="13000.00000" pt_clust_9="48.51098"></scales>
<clustering>
<clus scale="   48.511">  2  9  1 -1</clus>
<clus scale="   79.780">  5  6 -1 -1</clus>
<clus scale="   88.331">  1  5  2 -1</clus>
<clus scale="   90.471">  7  8 -1 -1</clus>
<clus scale="   48.511">  2  5  1 -1</clus>
</clustering>
</event>
<event>
 9    1  0.9171696E-005  0.1865027E+03  0.7546771E-02  0.1162831E+00
         21   -1    0    0  501  502  0.00000000000E+00  0.00000000000E+00  0.23667358386E+03  0.23667358386E+03  0.00000000000E+00 0.  1.
          1   -1    0    0  502    0 -0.00000000000E+00 -0.00000000000E+00 -0.50530187862E+03  0.50530187862E+03  0.00000000000E+00 0. -1.
         23    2    1    2    0    0 -0.16790761948E+03 -0.37701695951E+02 -0.34293740323E+03  0.39443963076E+03  0.91444919090E+02 0.  0.
        -24    2    1    2    0    0  0.87871706245E+02  0.18128820834E+02  0.17802403033E+03  0.21507591376E+03  0.80715564806E+02 0.  0.
         11    1    4    4    0    0  0.17429208417E+02 -0.29623801586E+02  0.65767611755E+02  0.74207315559E+02  0.00000000000E+00 0. -1.
        -12    1    4    4    0    0  0.70442497828E+02  0.47752622420E+02  0.11225641858E+03  0.14086859820E+03  0.00000000000E+00 0.  1.
        -11    1    3    3    0    0 -0.88988906719E+02 -0.64176243524E+02 -0.22188528624E+03  0.24752918212E+03  0.00000000000E+00 0. -1.
         11    1    3    3    0    0 -0.78918712761E+02  0.26474547572E+02 -0.12105211698E+03  0.14691044864E+03  0.00000000000E+00 0.  1.
          2    1    1    2  501    0  0.80035913234E+02  0.19572875118E+02 -0.10371492186E+03  0.13245991795E+03  0.00000000000E+00 0. -1.
<scales pt_clust_5="13000.00000" pt_clust_6="13000.00000" pt_clust_7="13000.00000" pt_clust_8="13000.00000" pt_clust_9="82.39449"></scales>
<clustering>
<clus scale="   80.716">  5  6 -1 -1</clus>
<clus scale="   82.394">  1  9  2 -1</clus>
<clus scale="   91.445">  7  8 -1 -1</clus>
<clus scale="  181.483">  1  5  2 -1</clus>
<clus scale="   82.394">  1  5  2 -1</clus>
</clustering>
</event>
<event>
 9    1  0.9171696E-005  0.1840997E+03  0.7546771E-02  0.1165006E+00
         21   -1    0    0  501  502  0.00000000000E+00  0.00000000000E+00  0.13967496861E+03  0.13967496861E+03  0.00000000000E+00 0.  1.
          3   -1    0    0  502    0 -0.00000000000E+00 -0.00000000000E+00 -0.36152249093E+03  0.36152249093E+03  0.00000000000E+00 0. -1.
        -24    2    1    2    0    0 -0.89377093724E+02 -0.11975571831E+03 -0.55150398267E+02  0.17855350638E+03  0.80685136551E+02 0.  0.
         23    2    1    2    0    0  0.11572729074E+03  0.12992522105E+03 -0.49809655843E+02  0.20239241724E+03  0.90599778450E+02 0.  0.
         11    1    3    3    0    0 -0.97056320998E+02 -0.70741708978E+02 -0.36096009585E+02  0.12540829615E+03  0.00000000000E+00 0. -1.
        -12    1    3    3    0    0  0.76792272741E+01 -0.49014009331E+02 -0.19054388683E+02  0.53145210229E+02  0.00000000000E+00 0.  1.
        -13    1    4    4    0    0  0.17164580542E+01  0.32404077380E+02  0.18709573379E+02  0.37456889822E+02  0.00000000000E+00 0. -1.
         13    1    4    4    0    0  0.11401083269E+03  0.97521143665E+02 -0.68519229222E+02  0.16493552742E+03  0.00000000000E+00 0.  1.
          4    1    1    2  501    0 -0.26350197016E+02 -0.10169502737E+02 -0.11688746821E+03  0.12025153593E+03  0.00000000000E+00 0. -1.
<scales pt_clust_5="13000.00000" pt_clust_6="13000.00000" pt_clust_7="13000.00000" pt_clust_8="13000.00000" pt_clust_9="28.24451"></scales>
<clustering>
<clus scale="   28.245">  1  9  2 -1</clus>
<clus scale="   80.685">  5  6 -1 -1</clus>
<clus scale="   90.600">  7  8 -1 -1</clus>
<clus scale="  179.428">  2  5  1 -1</clus>
<clus scale="   28.245">  1  5  2 -1</clus>
</clustering>
</event>
<event>
 9    1  0.9171696E-005  0.1407522E+03  0.7546771E-02  0.1214572E+00
          1   -1    0    0  502    0 -0.00000000000E+00  0.00000000000E+00  0.88327049705E+03  0.88327049705E+03  0.00000000000E+00 0. -1.
         21   -1    0    0  501  502  0.00000000000E+00 -0.00000000000E+00 -0.77739873966E+02  0.77739873966E+02  0.00000000000E+00 0.  1.
        -24    2    1    2    0    0  0.63562359523E+02  0.87941781679E+02  0.57098215717E+03  0.58670829685E+03  0.80200194975E+02 0.  0.
         23    2    1    2    0    0  0.15913820333E+02 -0.13020864091E+03  0.47044228442E+02  0.16630979156E+03  0.90764792151E+02 0.  0.
         13    1    3    3    0    0  0.39573839718E+02  0.98128767093E+02  0.50050334740E+03  0.51156519084E+03  0.00000000000E+00 0. -1.
        -14    1    3    3    0    0  0.23988519805E+02 -0.10186985414E+02  0.70478809771E+02  0.75143106011E+02  0.00000000000E+00 0.  1.
        -13    1    4    4    0    0 -0.20491671244E+02 -0.40767638441E+01  0.25997676316E+02  0.33352777510E+02  0.00000000000E+00 0. -1.
         13    1    4    4    0    0  0.36405491577E+02 -0.12613187706E+03  0.21046552126E+02  0.13295701405E+03  0.00000000000E+00 0.  1.
          2    1    1    2  501    0 -0.79476179856E+02  0.42266859229E+02  0.18750423747E+03  0.20799228260E+03  0.00000000000E+00 0. -1.
<scales pt_clust_5="13000.00000" pt_clust_6="13000.00000" pt_clust_7="13000.00000" pt_clust_8="13000.00000" pt_clust_9="90.01644"></scales>
<clustering>
<clus scale="   80.200">  5  6 -1 -1</clus>
<clus scale="   90.016">  2  9  1 -1</clus>
<clus scale="   90.765">  7  8 -1 -1</clus>
<clus scale="  134.183">  1  5  2 -1</clus>
<clus scale="   90.016">  2  5  1 -1</clus>
</clustering>
</event>
<event>
 9    1  0.9171696E-005  0.2090834E+03  0.7546771E-02  0.1144074E+00
         21   -1    0    0  501  502  0.00000000000E+00  0.00000000000E+00  0.10386233408E+04  0.10386233408E+04  0.00000000000E+00 0. -1.
          3   -1    0    0  502    0 -0.00000000000E+00 -0.00000000000E+00 -0.69142130708E+02  0.69142130708E+02  0.00000000000E+00 0. -1.
         23    2    1    2    0    0 -0.52250752403E+02 -0.12973823391E+03  0.34793178847E+03  0.38594589924E+03  0.91299273020E+02 0.  0.
        -24    2    1    2    0    0  0.71710589730E+02  0.23706351038E+03  0.41347180787E+03  0.48688619110E+03  0.68976159238E+02 0.  0.
         11    1    4    4    0    0  0.75177420072E+02  0.21848989848E+03  0.34042188431E+03  0.41143230250E+03  0.00000000000E+00 0. -1.
        -12    1    4    4    0    0 -0.34668303422E+01  0.18573611903E+02  0.73049923560E+02  0.75453888593E+02  0.00000000000E+00 0.  1.
        -13    1    3    3    0    0 -0.69267490836E+02 -0.11852669911E+03  0.33440322303E+03  0.36148593232E+03  0.00000000000E+00 0.  1.
         13    1    3    3    0    0  0.17016738433E+02 -0.11211534796E+02  0.13528565436E+02  0.24459966928E+02  0.00000000000E+00 0. -1.
          4    1    1    2  501    0 -0.19459837328E+02 -0.10732527647E+03  0.20807761372E+03  0.23493338114E+03  0.00000000000E+00 0. -1.
<scales pt_clust_5="13000.00000" pt_clust_6="13000.00000" pt_clust_7="13000.00000" pt_clust_8="13000.00000" pt_clust_9="109.07520"></scales>
<clustering>
<clus scale="   68.976">  5  6 -1 -1</clus>
<clus scale="   91.299">  7  8 -1 -1</clus>
<clus scale="  109.075">  1  9  2 -1</clus>
<clus scale="  200.345">  1  5  2 -1</clus>
<clus scale="  109.075">  1  5  2 -1</clus>
</clustering>
</event>
<event>
 9    1  0.9171696E-005  0.1044136E+03  0.7546771E-02  0.1277010E+00
         21   -1    0    0  501  502  0.00000000000E+00  0.00000000000E+00  0.67153744959E+02  0.67153744959E+02  0.00000000000E+00 0.  1.
         -2   -1    0    0    0  501 -0.00000000000E+00 -0.00000000000E+00 -0.28076529216E+03  0.28076529216E+03  0.00000000000E+00 0.  1.
        -24    2    1    2    0    0  0.97249091522E+01 -0.52450318046E+02 -0.19980735395E+03  0.22196140486E+03  0.80611890135E+02 0.  0.
         23    2    1    2    0    0 -0.48256071036E+01  0.25578817829E+02 -0.18192978886E+02  0.98292814831E+02  0.93021129650E+02 0.  0.
         11    1    3    3    0    0  0.43646623144E+02 -0.17336648849E+02 -0.83083185748E+02  0.95437952928E+02  0.00000000000E+00 0. -1.
        -12    1    3    3    0    0 -0.33921713992E+02 -0.35113669197E+02 -0.11672416820E+03  0.12652345193E+03  0.00000000000E+00 0.  1.
        -13    1    4    4    0    0 -0.79632485624E+01 -0.34936112141E+02 -0.39839891127E+01  0.36052980854E+02  0.00000000000E+00 0.  1.
         13    1    4    4    0    0  0.31376414588E+01  0.60514929970E+02 -0.14208989773E+02  0.62239833977E+02  0.00000000000E+00 0. -1.
         -1    1    1    2    0  502 -0.48993020486E+01  0.26871500217E+02  0.43887856309E+01  0.27664817437E+02  0.00000000000E+00 0.  1.
<scales pt_clust_5="13000.00000" pt_clust_6="13000.00000" pt_clust_7="13000.00000" pt_clust_8="13000.00000" pt_clust_9="27.31448"></scales>
<clustering>
<clus scale="   27.314">  1  9  2 -1</clus>
<clus scale="   80.612">  5  6 -1 -1</clus>
<clus scale="   93.021">  7  8 -1 -1</clus>
<clus scale="   93.528">  2  5  1 -1</clus>
<clus scale="   27.314">  1  5  2 -1</clus>
</clustering>
</event>
<event>
 9    1  0.9171696E-005  0.1154913E+03  0.7546771E-02  0.1254828E+00
          1   -1    0    0  502    0 -0.00000000000E+00  0.00000000000E+00  0.42202278087E+03  0.42202278087E+03  0.00000000000E+00 0. -1.
         21   -1    0    0  501  502  0.00000000000E+00 -0.00000000000E+00 -0.57495476879E+02  0.57495476879E+02  0.00000000000E+00 0. -1.
        -24    2    1    2    0    0  0.66033834045E+02  0.49183442830E+02  0.19951428031E+03  0.23009593181E+03  0.79741529324E+02 0.  0.
         23    2    1    2    0    0 -0.19785179415E+02 -0.61456048081E+02  0.16754040092E+03  0.20150633142E+03  0.91469757250E+02 0.  0.
         13    1    3    3    0    0  0.70556226931E+02  0.60971825128E+02  0.19590099539E+03  0.21696300287E+03  0.00000000000E+00 0. -1.
        -14    1    3    3    0    0 -0.45223928862E+01 -0.11788382298E+02  0.36132849206E+01  0.13132928940E+02  0.00000000000E+00 0.  1.
        -13    1    4    4    0    0  0.19933817655E+02 -0.22483985468E+02  0.59876999160E+01  0.30638851792E+02  0.00000000000E+00 0. -1.
         13    1    4    4    0    0 -0.39718997070E+02 -0.38972062613E+02  0.16155270101E+03  0.17086747963E+03  0.00000000000E+00 0.  1.
          2    1    1    2  501    0 -0.46248654630E+02  0.12272605251E+02 -0.25273772471E+01  0.47915994516E+02  0.00000000000E+00 0. -1.
<scales pt_clust_5="13000.00000" pt_clust_6="13000.00000" pt_clust_7="13000.00000" pt_clust_8="13000.00000" pt_clust_9="47.84929"></scales>
<clustering>
<clus scale="   47.849">  2  9  1 -1</clus>
<clus scale="   79.742">  5  6 -1 -1</clus>
<clus scale="   91.470">  7  8 -1 -1</clus>
<clus scale="  106.444">  1  5  2 -1</clus>
<clus scale="   47.849">  2  5  1 -1</clus>
</clustering>
</event>
<event>
 9    1  0.9171696E-005  0.1331722E+03  0.7546771E-02  0.1231907E+00
          1   -1    0    0  502    0 -0.00000000000E+00  0.00000000000E+00  0.68561850537E+03  0.68561850537E+03  0.00000000000E+00 0. -1.
         21   -1    0    0  501  502  0.00000000000E+00 -0.00000000000E+00 -0.94872846873E+02  0.94872846873E+02  0.00000000000E+00 0. -1.
        -24    2    1    2    0    0 -0.29978288689E+02  0.69473746692E+02  0.40594691970E+03  0.42066627490E+03  0.80261534732E+02 0.  0.
         23    2    1    2    0    0 -0.69680830943E+02  0.45422700161E+02  0.27219726478E+01  0.12258030417E+03  0.89999344129E+02 0.  0.
         13    1    3    3    0    0 -0.33931728369E+02  0.84308377177E+02  0.29555534894E+03  0.30921227165E+03  0.00000000000E+00 0. -1.
        -14    1    3    3    0    0  0.39534396802E+01 -0.14834630484E+02  0.11039157075E+03  0.11145400325E+03  0.00000000000E+00 0.  1.
        -11    1    4    4    0    0 -0.90794082453E+02  0.28900703709E+02 -0.22710369351E+01  0.95309882447E+02  0.00000000000E+00 0. -1.
         11    1    4    4    0    0  0.21113251510E+02  0.16521996452E+02  0.49930095829E+01  0.27270421720E+02  0.00000000000E+00 0.  1.
          2    1    1    2  501    0  0.99659119632E+02 -0.11489644685E+03  0.18207676615E+03  0.23724477317E+03  0.00000000000E+00 0. -1.
<scales pt_clust_5="13000.00000" pt_clust_6="13000.00000" pt_clust_7="13000.00000" pt_clust_8="13000.00000" pt_clust_9="98.15787"></scales>
<clustering>
<clus scale="   80.262">  5  6 -1 -1</clus>
<clus scale="   89.999">  7  8 -1 -1</clus>
<clus scale="  110.305">  1  5  2 -1</clus>
<clus scale="   98.158">  2  9  1 -1</clus>
<clus scale="   98.158">  2  5  1 -1</clus>
</clustering>
</event>
<event>
 9    1  0.9171696E-005  0.9038463E+02  0.7546771E-02  0.1307078E+00
          1   -1    0    0  502    0 -0.00000000000E+00  0.00000000000E+00  0.44988522984E+03  0.44988522984E+03  0.00000000000E+00 0. -1.
         21   -1    0    0  501  502  0.00000000000E+00 -0.00000000000E+00 -0.34822340188E+02  0.34822340188E+02  0.00000000000E+00 0. -1.
         23    2    1    2    0    0  0.86213873546E+01  0.39790546901E+01  0.26384622243E+03  0.27904937309E+03  0.90352434034E+02 0.  0.
        -24    2    1    2    0    0  0.18268940097E+02  0.16537362764E+02  0.50876287060E+02  0.99770497053E+02  0.82210199840E+02 0.  0.
         13    1    4    4    0    0  0.20273356648E+02  0.43490271449E+02  0.73607835374E+01  0.48544761147E+02  0.00000000000E+00 0. -1.
        -14    1    4    4    0    0 -0.20044165510E+01 -0.26952908685E+02  0.43515503522E+02  0.51225735906E+02  0.00000000000E+00 0.  1.
        -13    1    3    3    0    0 -0.29900477320E+02 -0.27655727385E+02  0.10795065706E+03  0.11537860356E+03  0.00000000000E+00 0.  1.
         13    1    3    3    0    0  0.38521864675E+02  0.31634782075E+02  0.15589556537E+03  0.16367076953E+03  0.00000000000E+00 0. -1.
          2    1    1    2  501    0 -0.26890327452E+02 -0.20516417454E+02  0.10034038016E+03  0.10588769988E+03  0.00000000000E+00 0. -1.
<scales pt_clust_5="13000.00000" pt_clust_6="13000.00000" pt_clust_7="13000.00000" pt_clust_8="13000.00000" pt_clust_9="33.82328"></scales>
<clustering>
<clus scale="   33.823">  2  9  1 -1</clus>
<clus scale="   82.210">  5  6 -1 -1</clus>
<clus scale="   82.246">  2  5  1 -1</clus>
<clus scale="   90.352">  7  8 -1 -1</clus>
<clus scale="   33.823">  2  5  1 -1</clus>
</clustering>
</event>
<event>
 9    1  0.9171696E-005  0.9153833E+02  0.7546771E-02  0.1305802E+00
         21   -1    0    0  501  502  0.00000000000E+00  0.00000000000E+00  0.38325375286E+03  0.38325375286E+03  0.00000000000E+00 0. -1.
         -2   -1    0    0    0  501 -0.00000000000E+00 -0.00000000000E+00 -0.65068754894E+02  0.65068754894E+02  0.00000000000E+00 0.  1.
        -24    2    1    2    0    0  0.27134462289E+01  0.10899361801E+02 -0.20403399247E+02  0.83841422252E+02  0.80541458307E+02 0.  0.
         23    2    1    2    0    0  0.22186514638E+02  0.27104910866E+01  0.17599958501E+03  0.19943455267E+03  0.91097193595E+02 0.  0.
         13    1    3    3    0    0 -0.15935298787E+01 -0.22002243368E+02  0.21220577320E+02  0.30609654564E+02  0.00000000000E+00 0. -1.
        -14    1    3    3    0    0  0.43069761076E+01  0.32901605170E+02 -0.41623976567E+02  0.53231767688E+02  0.00000000000E+00 0.  1.
        -11    1    4    4    0    0  0.38153029479E+02  0.34176817194E+02  0.63802441761E+02  0.81819680191E+02  0.00000000000E+00 0.  1.
         11    1    4    4    0    0 -0.15966514841E+02 -0.31466326107E+02  0.11219714325E+03  0.11761487248E+03  0.00000000000E+00 0. -1.
         -1    1    1    2    0  502 -0.24899960867E+02 -0.13609852888E+02  0.16258881221E+03  0.16504653284E+03  0.00000000000E+00 0.  1.
<scales pt_clust_5="13000.00000" pt_clust_6="13000.00000" pt_clust_7="13000.00000" pt_clust_8="13000.00000" pt_clust_9="28.37668"></scales>
<clustering>
<clus scale="   28.377">  1  9  2 -1</clus>
<clus scale="   80.541">  5  6 -1 -1</clus>
<clus scale="   81.040">  2  5  1 -1</clus>
<clus scale="   91.097">  7  8 -1 -1</clus>
<clus scale="   28.377">  1  5  2 -1</clus>
</clustering>
</event>
<event>
 9    1  0.9171696E-005  0.9167954E+02  0.7546771E-02  0.1304907E+00
          1   -1    0    0  502    0 -0.00000000000E+00  0.00000000000E+00  0.41590677308E+02  0.41590677308E+02  0.00000000000E+00 0. -1.
         21   -1    0    0  501  502  0.00000000000E+00 -0.00000000000E+00 -0.26608409407E+03  0.26608409407E+03  0.00000000000E+00 0.  1.
         23    2    1    2    0    0  0.16408714758E+02 -0.11156522738E+02 -0.84673145976E+02  0.12504468194E+03  0.89849412421E+02 0.  0.
        -24    2    1    2    0    0 -0.19332408547E+02 -0.21206483832E+02 -0.10364432013E+03  0.13400281740E+03  0.79944687126E+02 0.  0.
         13    1    4    4    0    0 -0.40941734236E+02 -0.17706035338E+02 -0.22504436365E+02  0.49961774846E+02  0.00000000000E+00 0. -1.
        -14    1    4    4    0    0  0.21609325689E+02 -0.35004484941E+01 -0.81139883769E+02  0.84041042559E+02  0.00000000000E+00 0.  1.
        -13    1    3    3    0    0  0.23143261961E+02 -0.45803435162E+02 -0.28493944502E+02  0.58698127058E+02  0.00000000000E+00 0.  1.
         13    1    3    3    0    0 -0.67345472025E+01  0.34646912423E+02 -0.56179201474E+02  0.66346554882E+02  0.00000000000E+00 0. -1.
          2    1    1    2  501    0  0.29236937887E+01  0.32363006571E+02 -0.36175950649E+02  0.48627272029E+02  0.00000000000E+00 0. -1.
<scales pt_clust_5="13000.00000" pt_clust_6="13000.00000" pt_clust_7="13000.00000" pt_clust_8="13000.00000" pt_clust_9="32.49480"></scales>
<clustering>
<clus scale="   32.495">  2  9  1 -1</clus>
<clus scale="   79.945">  5  6 -1 -1</clus>
<clus scale="   81.996">  2  5  1 -1</clus>
<clus scale="   89.849">  7  8 -1 -1</clus>
<clus scale="   32.495">  2  5  1 -1</clus>
</clustering>
</event>
<event>
 9    1  0.9171696E-005  0.1701470E+03  0.7546771E-02  0.1194238E+00
         -2   -1    0    0    0  501 -0.00000000000E+00  0.00000000000E+00  0.11704877458E+03  0.11704877458E+03  0.00000000000E+00 0.  1.
         21   -1    0    0  501  502  0.00000000000E+00 -0.00000000000E+00 -0.48689732792E+03  0.48689732792E+03  0.00000000000E+00 0.  1.
        -24    2    1    2    0    0  0.86047342292E+02  0.12908649306E+02 -0.44214992217E+02  0.12577904783E+03  0.79338672746E+02 0.  0.
         23    2    1    2    0    0  0.36808318532E+02  0.93393395145E+02 -0.28037728687E+02  0.13911408311E+03  0.92138131730E+02 0.  0.
         13    1    3    3    0    0  0.19852611142E+02  0.38143093916E+02 -0.32669358729E+02  0.54002859021E+02  0.00000000000E+00 0. -1.
        -14    1    3    3    0    0  0.66194731151E+02 -0.25234444610E+02 -0.11545633488E+02  0.71776188806E+02  0.00000000000E+00 0.  1.
        -13    1    4    4    0    0  0.37736967135E+02  0.56412186867E+02  0.26795965511E+02  0.72968741824E+02  0.00000000000E+00 0.  1.
         13    1    4    4    0    0 -0.92864860300E+00  0.36981208278E+02 -0.54833694198E+02  0.66145341282E+02  0.00000000000E+00 0. -1.
         -1    1    1    2    0  502 -0.12285566082E+03 -0.10630204445E+03 -0.29759583244E+03  0.33905297158E+03  0.00000000000E+00 0.  1.
<scales pt_clust_5="13000.00000" pt_clust_6="13000.00000" pt_clust_7="13000.00000" pt_clust_8="13000.00000" pt_clust_9="143.04045"></scales>
<clustering>
<clus scale="   79.339">  5  6 -1 -1</clus>
<clus scale="   92.138">  7  8 -1 -1</clus>
<clus scale="  117.751">  1  5  2 -1</clus>
<clus scale="  143.040">  2  9  1 -1</clus>
<clus scale="  143.040">  2  5  1 -1</clus>
</clustering>
</event>
<event>
 9    1  0.9171696E-005  0.1099488E+03  0.7546771E-02  0.1264144E+00
         21   -1    0    0  501  502  0.00000000000E+00  0.00000000000E+00  0.21686433461E+03  0.21686433461E+03  0.00000000000E+00 0. -1.
          1   -1    0    0  502    0 -0.00000000000E+00 -0.00000000000E+00 -0.18652311711E+03  0.18652311711E+03  0.00000000000E+00 0. -1.
        -24    2    1    2    0    0 -0.47541089807E+02 -0.33167553107E+02 -0.12782657467E+03  0.16220002077E+03  0.81295582579E+02 0.  0.
         23    2    1    2    0    0  0.82836283961E+02  0.60617450309E+02  0.10991934696E+03  0.17540627824E+03  0.90270562130E+02 0.  0.
         13    1    3    3    0    0  0.66773451949E+01  0.19334264431E+02 -0.11303587350E+02  0.23370318931E+02  0.00000000000E+00 0. -1.
        -14    1    3    3    0    0 -0.54218435002E+02 -0.52501817538E+02 -0.11652298732E+03  0.13882970184E+03  0.00000000000E+00 0.  1.
        -11    1    4    4    0    0  0.56616520143E+02  0.26004282503E+02  0.57726770704E+01  0.62569775947E+02  0.00000000000E+00 0. -1.
         11    1    4    4    0    0  0.26219763819E+02  0.34613167806E+02  0.10414666989E+03  0.11283650229E+03  0.00000000000E+00 0.  1.
          2    1    1    2  501    0 -0.35295194154E+02 -0.27449897202E+02  0.48248445203E+02  0.65781152705E+02  0.00000000000E+00 0. -1.
<scales pt_clust_5="13000.00000" pt_clust_6="13000.00000" pt_clust_7="13000.00000" pt_clust_8="13000.00000" pt_clust_9="44.71295"></scales>
<clustering>
<clus scale="   44.713">  1  9  2 -1</clus>
<clus scale="   81.296">  5  6 -1 -1</clus>
<clus scale="   90.271">  7  8 -1 -1</clus>
<clus scale="  102.708">  2  5  1 -1</clus>
<clus scale="   44.713">  1  5  2 -1</clus>
</clustering>
</event>
<event>
 9    1  0.9171696E-005  0.1239034E+03  0.7546771E-02  0.1244640E+00
          1   -1    0    0  502    0 -0.00000000000E+00  0.00000000000E+00  0.11242356802E+04  0.11242356802E+04  0.00000000000E+00 0. -1.
         21   -1    0    0  501  502  0.00000000000E+00 -0.00000000000E+00 -0.16296090896E+02  0.16296090896E+02  0.00000000000E+00 0. -1.
         23    2    1    2    0    0  0.46158835810E+02  0.49126646734E+02  0.57148598885E+03  0.58456424248E+03  0.10283507472E+03 0.  0.
        -24    2    1    2    0    0 -0.19898980504E+02 -0.73043116694E+02  0.38733864706E+03  0.40268071620E+03  0.79932880400E+02 0.  0.
         11    1    4    4    0    0 -0.48063286982E+02 -0.38938121027E+02  0.17042561615E+03  0.18130401944E+03  0.00000000000E+00 0. -1.
        -12    1    4    4    0    0  0.28164306479E+02 -0.34104995667E+02  0.21691303091E+03  0.22137669676E+03  0.00000000000E+00 0.  1.
        -13    1    3    3    0    0 -0.29102434410E+02 -0.35990365290E-01  0.85048047138E+02  0.89889506094E+02  0.00000000000E+00 0.  1.
         13    1    3    3    0    0  0.75261270219E+02  0.49162637099E+02  0.48643794171E+03  0.49467473639E+03  0.00000000000E+00 0. -1.
          2    1    1    2  501    0 -0.26259855306E+02  0.23916469960E+02  0.14911495341E+03  0.15328681243E+03  0.00000000000E+00 0. -1.
<scales pt_clust_5="13000.00000" pt_clust_6="13000.00000" pt_clust_7="13000.00000" pt_clust_8="13000.00000" pt_clust_9="35.51871"></scales>
<clustering>
<clus scale="   35.519">  2  9  1 -1</clus>
<clus scale="   79.933">  5  6 -1 -1</clus>
<clus scale="  102.835">  7  8 -1 -1</clus>
<clus scale="  105.671">  2  5  1 -1</clus>
<clus scale="   35.519">  2  5  1 -1</clus>
</clustering>
</event>
<event>
 9    1  0.9171696E-005  0.1286809E+03  0.7546771E-02  0.1239316E+00
         21   -1    0    0  501  502  0.00000000000E+00  0.00000000000E+00  0.21201064890E+03  0.21201064890E+03  0.00000000000E+00 0.  1.
          3   -1    0    0  502    0 -0.00000000000E+00 -0.00000000000E+00 -0.18912132949E+03  0.18912132949E+03  0.00000000000E+00 0. -1.
         23    2    1    2    0    0 -0.30385643946E+02  0.44499010417E+02 -0.62766723460E+02  0.12238715593E+03  0.90197034747E+02 0.  0.
        -24    2    1    2    0    0 -0.98015086349E+02 -0.10553827346E+02  0.81877645970E+02  0.14587910349E+03  0.69702392365E+02 0.  0.
         11    1    4    4    0    0 -0.64149509420E+02 -0.37644944386E+02  0.35611945434E+02  0.82465217238E+02  0.00000000000E+00 0. -1.
        -12    1    4    4    0    0 -0.33865576930E+02  0.27091117040E+02  0.46265700536E+02  0.63413886250E+02  0.00000000000E+00 0.  1.
        -11    1    3    3    0    0 -0.41499400837E+02 -0.89169394626E+01 -0.51391088833E+02  0.66654002810E+02  0.00000000000E+00 0. -1.
         11    1    3    3    0    0  0.11113756891E+02  0.53415949879E+02 -0.11375634627E+02  0.55733153122E+02  0.00000000000E+00 0.  1.
          4    1    1    2  501    0  0.12840073030E+03 -0.33945183071E+02  0.37783968978E+01  0.13286571897E+03  0.00000000000E+00 0. -1.
<scales pt_clust_5="13000.00000" pt_clust_6="13000.00000" pt_clust_7="13000.00000" pt_clust_8="13000.00000" pt_clust_9="108.16822"></scales>
<clustering>
<clus scale="   69.702">  5  6 -1 -1</clus>
<clus scale="   90.197">  7  8 -1 -1</clus>
<clus scale="  105.066">  2  7  1 -1</clus>
<clus scale="  108.168">  1  9  2 -1</clus>
<clus scale="  108.168">  1  5  2 -1</clus>
</clustering>
</event>
<event>
 9    1  0.9171696E-005  0.1486227E+03  0.7546771E-02  0.1204657E+00
         21   -1    0    0  501  502  0.00000000000E+00  0.00000000000E+00  0.18842158224E+03  0.18842158224E+03  0.00000000000E+00 0.  1.
         -4   -1    0    0    0  501 -0.00000000000E+00 -0.00000000000E+00 -0.57947212400E+03  0.57947212400E+03  0.00000000000E+00 0.  1.
         23    2    1    2    0    0 -0.11438507108E+03  0.38212421099E+02 -0.38996692119E+03  0.41869588908E+03  0.93208981834E+02 0.  0.
        -24    2    1    2    0    0  0.81586296246E+02 -0.79539018472E+02 -0.14185245617E+03  0.19886647527E+03  0.80268153523E+02 0.  0.
         13    1    4    4    0    0  0.61635556442E+02 -0.42559881210E+02 -0.32368512523E+02  0.81596604767E+02  0.00000000000E+00 0. -1.
        -14    1    4    4    0    0  0.19950739805E+02 -0.36979137262E+02 -0.10948394365E+03  0.11726987050E+03  0.00000000000E+00 0.  1.
        -11    1    3    3    0    0 -0.11955226759E+02 -0.27899154918E+02 -0.85535124076E+02  0.90760937317E+02  0.00000000000E+00 0. -1.
         11    1    3    3    0    0 -0.10242984432E+03  0.66111576016E+02 -0.30443179711E+03  0.32793495176E+03  0.00000000000E+00 0.  1.
         -3    1    1    2    0  502  0.32798774832E+02  0.41326597374E+02  0.14076883559E+03  0.15033134189E+03  0.00000000000E+00 0.  1.
<scales pt_clust_5="13000.00000" pt_clust_6="13000.00000" pt_clust_7="13000.00000" pt_clust_8="13000.00000" pt_clust_9="52.76028"></scales>
<clustering>
<clus scale="   52.760">  1  9  2 -1</clus>
<clus scale="   80.268">  5  6 -1 -1</clus>
<clus scale="   93.209">  7  8 -1 -1</clus>
<clus scale="  140.868">  1  5  2 -1</clus>
<clus scale="   52.760">  1  5  2 -1</clus>
</clustering>
</event>
<event>
 9    1  0.9171697E-005  0.1151876E+03  0.7546771E-02  0.1256622E+00
         21   -1    0    0  501  502  0.00000000000E+00  0.00000000000E+00  0.70756299994E+03  0.70756299994E+03  0.00000000000E+00 0. -1.
         -4   -1    0    0    0  501 -0.00000000000E+00 -0.00000000000E+00 -0.10738737031E+03  0.10738737031E+03  0.00000000000E+00 0.  1.
         23    2    1    2    0    0 -0.48400443976E+02 -0.43044878018E+02 -0.46424972375E+02  0.12297818381E+03  0.93663713001E+02 0.  0.
        -24    2    1    2    0    0  0.96627747508E+02  0.48209069448E+02  0.62451888272E+03  0.63867918497E+03  0.78906466596E+02 0.  0.
         11    1    4    4    0    0  0.97604273291E+02  0.55514571109E+02  0.61988529135E+03  0.62997320277E+03  0.00000000000E+00 0. -1.
        -12    1    4    4    0    0 -0.97652578268E+00 -0.73055016613E+01  0.46335913717E+01  0.87059822035E+01  0.00000000000E+00 0.  1.
        -11    1    3    3    0    0 -0.62186617870E+02 -0.63713060511E+02 -0.36691993111E+02  0.96295544447E+02  0.00000000000E+00 0.  1.
         11    1    3    3    0    0  0.13786173894E+02  0.20668182493E+02 -0.97329792644E+01  0.26682639366E+02  0.00000000000E+00 0. -1.
         -3    1    1    2    0  502 -0.48227303532E+02 -0.51641914291E+01  0.22081719286E+02  0.53293001470E+02  0.00000000000E+00 0.  1.
<scales pt_clust_5="13000.00000" pt_clust_6="13000.00000" pt_clust_7="13000.00000" pt_clust_8="13000.00000" pt_clust_9="48.50303"></scales>
<clustering>
<clus scale="   48.503">  1  9  2 -1</clus>
<clus scale="   78.906">  5  6 -1 -1</clus>
<clus scale="   93.664">  7  8 -1 -1</clus>
<clus scale="  103.545">  1  5  2 -1</clus>
<clus scale="   48.503">  1  5  2 -1</clus>
</clustering>
</event>
<event>
 9    1  0.9171696E-005  0.1218025E+03  0.7546771E-02  0.1244296E+00
         -2   -1    0    0    0  501 -0.00000000000E+00  0.00000000000E+00  0.18693196140E+03  0.18693196140E+03  0.00000000000E+00 0.  1.
         21   -1    0    0  501  502  0.00000000000E+00 -0.00000000000E+00 -0.13677231418E+03  0.13677231418E+03  0.00000000000E+00 0. -1.
         23    2    1    2    0    0 -0.41608002897E+02 -0.71071154769E+02  0.12722333459E+03  0.17834413837E+03  0.94013402663E+02 0.  0.
        -24    2    1    2    0    0  0.32560442689E+02  0.50593260631E+02 -0.61918633948E+02  0.11833098374E+03  0.80922456918E+02 0.  0.
         11    1    4    4    0    0  0.29350632927E+01  0.49618909474E+02 -0.71588173777E+02  0.87152265597E+02  0.00000000000E+00 0. -1.
        -12    1    4    4    0    0  0.29625379396E+02  0.97435115722E+00  0.96695398298E+01  0.31178718143E+02  0.00000000000E+00 0.  1.
        -11    1    3    3    0    0 -0.42179275844E+02 -0.45309589346E+02  0.15673689563E+02  0.63856986634E+02  0.00000000000E+00 0. -1.
         11    1    3    3    0    0  0.57127294778E+00 -0.25761565423E+02  0.11154964503E+03  0.11448715174E+03  0.00000000000E+00 0.  1.
         -1    1    1    2    0  502  0.90475602080E+01  0.20477894138E+02 -0.15145053427E+02  0.27029153471E+02  0.00000000000E+00 0.  1.
<scales pt_clust_5="13000.00000" pt_clust_6="13000.00000" pt_clust_7="13000.00000" pt_clust_8="13000.00000" pt_clust_9="22.38755"></scales>
<clustering>
<clus scale="   22.388">  2  9  1 -1</clus>
<clus scale="   80.922">  5  6 -1 -1</clus>
<clus scale="   94.013">  7  8 -1 -1</clus>
<clus scale="  112.008">  2  5  1 -1</clus>
<clus scale="   22.388">  2  5  1 -1</clus>
</clustering>
</event>
<event>
 9    1  0.9171696E-005  0.1495163E+03  0.7546771E-02  0.1217485E+00
          1   -1    0    0  502    0 -0.00000000000E+00  0.00000000000E+00  0.73775961433E+03  0.73775961433E+03  0.00000000000E+00 0. -1.
         21   -1    0    0  501  502  0.00000000000E+00 -0.00000000000E+00 -0.56762783891E+02  0.56762783891E+02  0.00000000000E+00 0.  1.
        -24    2    1    2    0    0  0.15175183787E+02  0.66119994193E+02  0.87609949309E+02  0.13694706275E+03  0.80478909919E+02 0.  0.
         23    2    1    2    0    0 -0.12165531155E+03 -0.32168152367E+02  0.24253293441E+03  0.28935089698E+03  0.95220336364E+02 0.  0.
         13    1    3    3    0    0  0.33790846490E+02  0.14729889717E+02  0.70700995213E+02  0.79733441426E+02  0.00000000000E+00 0. -1.
        -14    1    3    3    0    0 -0.18615662703E+02  0.51390104476E+02  0.16908954097E+02  0.57213621321E+02  0.00000000000E+00 0.  1.
        -13    1    4    4    0    0 -0.99539248833E+02 -0.20912016812E+02  0.24414313304E+03  0.26448297472E+03  0.00000000000E+00 0.  1.
         13    1    4    4    0    0 -0.22116062718E+02 -0.11256135555E+02 -0.16101986394E+01  0.24867922258E+02  0.00000000000E+00 0. -1.
          2    1    1    2  501    0  0.10648012776E+03 -0.33951841826E+02  0.35085394672E+03  0.36822443849E+03  0.00000000000E+00 0. -1.
<scales pt_clust_5="13000.00000" pt_clust_6="13000.00000" pt_clust_7="13000.00000" pt_clust_8="13000.00000" pt_clust_9="115.27454"></scales>
<clustering>
<clus scale="   80.479">  5  6 -1 -1</clus>
<clus scale="   95.220">  7  8 -1 -1</clus>
<clus scale="  105.257">  1  5  2 -1</clus>
<clus scale="  115.275">  2  9  1 -1</clus>
<clus scale="  115.275">  2  5  1 -1</clus>
</clustering>
</event>
<event>
 9    1  0.9171696E-005  0.1059148E+03  0.7546771E-02  0.1270492E+00
         21   -1    0    0  501  502  0.00000000000E+00  0.00000000000E+00  0.20821082225E+03  0.20821082225E+03  0.00000000000E+00 0. -1.
          1   -1    0    0  502    0 -0.00000000000E+00 -0.00000000000E+00 -0.91778932317E+02  0.91778932317E+02  0.00000000000E+00 0. -1.
        -24    2    1    2    0    0  0.48576187865E+00 -0.68769411539E+02  0.15454617161E+02  0.10702449029E+03  0.80535261857E+02 0.  0.
         23    2    1    2    0    0  0.20314552554E+02  0.68033739393E+02  0.12444869058E+03  0.16159486823E+03  0.74727197913E+02 0.  0.
         13    1    3    3    0    0  0.26403280667E+02 -0.71568681648E+02 -0.82920330817E+00  0.76288249429E+02  0.00000000000E+00 0. -1.
        -14    1    3    3    0    0 -0.25917518788E+02  0.27992701090E+01  0.16283820469E+02  0.30736240862E+02  0.00000000000E+00 0.  1.
        -13    1    4    4    0    0  0.25582701885E+02  0.39756901549E+01  0.78299671008E+02  0.82468898549E+02  0.00000000000E+00 0.  1.
         13    1    4    4    0    0 -0.52681493308E+01  0.64058049238E+02  0.46149019574E+02  0.79125969676E+02  0.00000000000E+00 0. -1.
          2    1    1    2  501    0 -0.20800314433E+02  0.73567214580E+00 -0.23471417813E+02  0.31370396048E+02  0.00000000000E+00 0. -1.
<scales pt_clust_5="13000.00000" pt_clust_6="13000.00000" pt_clust_7="13000.00000" pt_clust_8="13000.00000" pt_clust_9="20.81333"></scales>
<clustering>
<clus scale="   20.813">  1  9  2 -1</clus>
<clus scale="   74.727">  7  8 -1 -1</clus>
<clus scale="   80.535">  5  6 -1 -1</clus>
<clus scale="  101.569">  1  7  2 -1</clus>
<clus scale="   20.813">  1  5  2 -1</clus>
</clustering>
</event>
<event>
 9    1  0.9171696E-005  0.9325745E+02  0.7546771E-02  0.1302492E+00
          1   -1    0    0  502    0 -0.00000000000E+00  0.00000000000E+00  0.14021342131E+03  0.14021342131E+03  0.00000000000E+00 0. -1.
         21   -1    0    0  501  502  0.00000000000E+00 -0.00000000000E+00 -0.41386004065E+03  0.41386004065E+03  0.00000000000E+00 0. -1.
        -24    2    1    2    0    0 -0.15460836625E+02 -0.31507361547E+02  0.93400351422E+02  0.12347397271E+03  0.72735445215E+02 0.  0.
         23    2    1    2    0    0 -0.21228218187E+02  0.57315077006E+02 -0.61878025419E+02  0.12215142210E+03  0.85769601792E+02 0.  0.
         11    1    3    3    0    0  0.20748595119E+02 -0.33739185485E+02  0.69613400854E+02  0.80092836228E+02  0.00000000000E+00 0. -1.
        -12    1    3    3    0    0 -0.36209431743E+02  0.22318239383E+01  0.23786950568E+02  0.43381136484E+02  0.00000000000E+00 0.  1.
        -13    1    4    4    0    0  0.32542579173E+01  0.19886976942E+02 -0.73277047156E+02  0.75997418946E+02  0.00000000000E+00 0.  1.
         13    1    4    4    0    0 -0.24482476104E+02  0.37428100064E+02  0.11399021737E+02  0.46154003154E+02  0.00000000000E+00 0. -1.
          2    1    1    2  501    0  0.36689054812E+02 -0.25807715459E+02 -0.30516894535E+03  0.30844806714E+03  0.00000000000E+00 0. -1.
<scales pt_clust_5="13000.00000" pt_clust_6="13000.00000" pt_clust_7="13000.00000" pt_clust_8="13000.00000" pt_clust_9="44.85672"></scales>
<clustering>
<clus scale="   44.857">  2  9  1 -1</clus>
<clus scale="   72.735">  5  6 -1 -1</clus>
<clus scale="   81.431">  1  5  2 -1</clus>
<clus scale="   85.770">  7  8 -1 -1</clus>
<clus scale="   44.857">  2  5  1 -1</clus>
</clustering>
</event>
<event>
 9    1  0.9171696E-005  0.9806229E+02  0.7546771E-02  0.1290611E+00
         21   -1    0    0  501  502  0.00000000000E+00  0.00000000000E+00  0.14001463771E+03  0.14001463771E+03  0.00000000000E+00 0.  1.
          3   -1    0    0  502    0 -0.00000000000E+00 -0.00000000000E+00 -0.16114373919E+03  0.16114373919E+03  0.00000000000E+00 0. -1.
         23    2    1    2    0    0  0.10536905058E+02  0.29689895329E+02 -0.88071579482E+02  0.13147347692E+03  0.92391318682E+02 0.  0.
        -24    2    1    2    0    0  0.15044664153E+02 -0.45324698119E+02  0.91356307335E+02  0.13102097876E+03  0.80869350236E+02 0.  0.
         11    1    4    4    0    0 -0.16600137705E+02 -0.11418960838E+02  0.81042070409E+02  0.83509127732E+02  0.00000000000E+00 0. -1.
        -12    1    4    4    0    0  0.31644801858E+02 -0.33905737281E+02  0.10314236926E+02  0.47511851033E+02  0.00000000000E+00 0.  1.
        -11    1    3    3    0    0  0.47337606204E+01 -0.28719787662E+02 -0.59399242741E+02  0.66147598076E+02  0.00000000000E+00 0. -1.
         11    1    3    3    0    0  0.58031444373E+01  0.58409682991E+02 -0.28672336741E+02  0.65325878843E+02  0.00000000000E+00 0.  1.
          4    1    1    2  501    0 -0.25581569211E+02  0.15634802790E+02 -0.24413829332E+02  0.38663921222E+02  0.00000000000E+00 0. -1.
<scales pt_clust_5="13000.00000" pt_clust_6="13000.00000" pt_clust_7="13000.00000" pt_clust_8="13000.00000" pt_clust_9="29.98107"></scales>
<clustering>
<clus scale="   29.981">  1  9  2 -1</clus>
<clus scale="   80.869">  5  6 -1 -1</clus>
<clus scale="   87.292">  1  5  2 -1</clus>
<clus scale="   92.391">  7  8 -1 -1</clus>
<clus scale="   29.981">  1  5  2 -1</clus>
</clustering>
</event>
<event>
 9    1  0.9171696E-005  0.1368597E+03  0.7546771E-02  0.1232997E+00
         21   -1    0    0  501  502  0.00000000000E+00  0.00000000000E+00  0.18012445600E+03  0.18012445600E+03  0.00000000000E+00 0. -1.
          3   -1    0    0  502    0 -0.00000000000E+00 -0.00000000000E+00 -0.41533542754E+03  0.41533542754E+03  0.00000000000E+00 0. -1.
        -24    2    1    2    0    0  0.57636319765E+02 -0.11600700653E+02 -0.70717961570E+01  0.99625335750E+02  0.80116637541E+02 0.  0.
         23    2    1    2    0    0  0.12779251836E+02  0.88387964930E+02 -0.32778441254E+03  0.35166863654E+03  0.90843091103E+02 0.  0.
         11    1    3    3    0    0  0.12835469493E+02  0.21767511322E+02 -0.30014360542E+02  0.39235642788E+02  0.00000000000E+00 0. -1.
        -12    1    3    3    0    0  0.44800850272E+02 -0.33368211975E+02  0.22942564385E+02  0.60389692962E+02  0.00000000000E+00 0.  1.
        -11    1    4    4    0    0 -0.25281906980E+02 -0.54915902337E+01 -0.58748672645E+02  0.64192981870E+02  0.00000000000E+00 0.  1.
         11    1    4    4    0    0  0.38061158816E+02  0.93879555164E+02 -0.26903573989E+03  0.28747565467E+03  0.00000000000E+00 0. -1.
          4    1    1    2  501    0 -0.70415571600E+02 -0.76787264277E+02  0.99645237149E+02  0.14416591125E+03  0.00000000000E+00 0. -1.
<scales pt_clust_5="13000.00000" pt_clust_6="13000.00000" pt_clust_7="13000.00000" pt_clust_8="13000.00000" pt_clust_9="102.36265"></scales>
<clustering>
<clus scale="   80.117">  5  6 -1 -1</clus>
<clus scale="   90.843">  7  8 -1 -1</clus>
<clus scale="   99.374">  2  5  1 -1</clus>
<clus scale="  102.363">  1  9  2 -1</clus>
<clus scale="  102.363">  1  5  2 -1</clus>
</clustering>
</event>
<event>
 9    1  0.9171696E-005  0.1023281E+03  0.7546771E-02  0.1284934E+00
          3   -1    0    0  502    0 -0.00000000000E+00  0.00000000000E+00  0.38286803750E+03  0.38286803750E+03  0.00000000000E+00 0. -1.
         21   -1    0    0  501  502  0.00000000000E+00 -0.00000000000E+00 -0.45503542344E+02  0.45503542344E+02  0.00000000000E+00 0. -1.
        -24    2    1    2    0    0 -0.13475661027E+02  0.21275986997E+02  0.99811983325E+02  0.12443587901E+03  0.69911336041E+02 0.  0.
         23    2    1    2    0    0  0.34580189765E+02 -0.78572432593E+02  0.18793137679E+03  0.22525571066E+03  0.89735812887E+02 0.  0.
         11    1    3    3    0    0  0.78287615138E+01 -0.21570320535E+02  0.51778129617E+02  0.56635174066E+02  0.00000000000E+00 0. -1.
        -12    1    3    3    0    0 -0.21304422540E+02  0.42846307532E+02  0.48033853707E+02  0.67800704944E+02  0.00000000000E+00 0.  1.
        -13    1    4    4    0    0 -0.19027466819E+02 -0.26860334854E+02  0.12004547650E+03  0.12447665849E+03  0.00000000000E+00 0.  1.
         13    1    4    4    0    0  0.53607656584E+02 -0.51712097739E+02  0.67885900294E+02  0.10077905217E+03  0.00000000000E+00 0. -1.
          4    1    1    2  501    0 -0.21104528738E+02  0.57296445596E+02  0.49621135038E+02  0.78679990173E+02  0.00000000000E+00 0. -1.
<scales pt_clust_5="13000.00000" pt_clust_6="13000.00000" pt_clust_7="13000.00000" pt_clust_8="13000.00000" pt_clust_9="61.05967"></scales>
<clustering>
<clus scale="   61.060">  2  9  1 -1</clus>
<clus scale="   69.911">  5  6 -1 -1</clus>
<clus scale="   85.476">  1  5  2 -1</clus>
<clus scale="   89.736">  7  8 -1 -1</clus>
<clus scale="   61.060">  2  5  1 -1</clus>
</clustering>
</event>
<event>
 9    1  0.9171696E-005  0.1077816E+03  0.7546771E-02  0.1270052E+00
          3   -1    0    0  502    0 -0.00000000000E+00  0.00000000000E+00  0.71723842241E+02  0.71723842241E+02  0.00000000000E+00 0. -1.
         21   -1    0    0  501  502  0.00000000000E+00 -0.00000000000E+00 -0.39917609043E+03  0.39917609043E+03  0.00000000000E+00 0.  1.
        -24    2    1    2    0    0  0.69892546836E+01 -0.57844607507E+02 -0.34702474573E+02  0.10321466116E+03  0.77808458649E+02 0.  0.
         23    2    1    2    0    0  0.21820266649E+02 -0.36667481934E+02 -0.22918076907E+03  0.25019679587E+03  0.90851436331E+02 0.  0.
         11    1    3    3    0    0  0.10666815286E+02  0.17294376714E+02 -0.15548083460E+02  0.25585529378E+02  0.00000000000E+00 0. -1.
        -12    1    3    3    0    0 -0.36775606028E+01 -0.75138984221E+02 -0.19154391112E+02  0.77629131778E+02  0.00000000000E+00 0.  1.
        -11    1    4    4    0    0 -0.29642218794E+02 -0.38412092459E+02 -0.12180090537E+03  0.13110915502E+03  0.00000000000E+00 0.  1.
         11    1    4    4    0    0  0.51462485442E+02  0.17446105253E+01 -0.10737986370E+03  0.11908764085E+03  0.00000000000E+00 0. -1.
          4    1    1    2  501    0 -0.28809521332E+02  0.94512089442E+02 -0.63569004540E+02  0.11748847564E+03  0.00000000000E+00 0. -1.
<scales pt_clust_5="13000.00000" pt_clust_6="13000.00000" pt_clust_7="13000.00000" pt_clust_8="13000.00000" pt_clust_9="57.99047"></scales>
<clustering>
<clus scale="   77.808">  5  6 -1 -1</clus>
<clus scale="   90.851">  7  8 -1 -1</clus>
<clus scale="   97.206">  1  5  2 -1</clus>
<clus scale="   57.990">  2  9  1 -1</clus>
<clus scale="   57.990">  2  5  1 -1</clus>
</clustering>
</event>
<event>
 9    1  0.9171696E-005  0.1193400E+03  0.7546771E-02  0.1245979E+00
         -2   -1    0    0    0  501 -0.00000000000E+00  0.00000000000E+00  0.20398574233E+03  0.20398574233E+03  0.00000000000E+00 0.  1.
         21   -1    0    0  501  502  0.00000000000E+00 -0.00000000000E+00 -0.10861829636E+03  0.10861829636E+03  0.00000000000E+00 0.  1.
         23    2    1    2    0    0 -0.90680362144E+02 -0.15249978006E+02  0.86278152039E+02  0.15440138904E+03  0.89108807138E+02 0.  0.
        -24    2    1    2    0    0  0.49394287509E+02  0.40660034297E+02 -0.11133218033E+02  0.10567493402E+03  0.83367914140E+02 0.  0.
         11    1    4    4    0    0  0.54354561123E+02  0.41597885521E+02  0.22204460969E+02  0.71957212853E+02  0.00000000000E+00 0. -1.
        -12    1    4    4    0    0 -0.49602736134E+01 -0.93785122444E+00 -0.33337679002E+02  0.33717721163E+02  0.00000000000E+00 0.  1.
        -11    1    3    3    0    0 -0.57538782495E+02 -0.52494201778E+02  0.47366159849E+02  0.91158684776E+02  0.00000000000E+00 0.  1.
         11    1    3    3    0    0 -0.33141579650E+02  0.37244223772E+02  0.38911992191E+02  0.63242704262E+02  0.00000000000E+00 0. -1.
         -1    1    1    2    0  502  0.41286074635E+02 -0.25410056291E+02  0.20222511965E+02  0.52527715633E+02  0.00000000000E+00 0.  1.
<scales pt_clust_5="13000.00000" pt_clust_6="13000.00000" pt_clust_7="13000.00000" pt_clust_8="13000.00000" pt_clust_9="48.47900"></scales>
<clustering>
<clus scale="   48.479">  2  9  1 -1</clus>
<clus scale="   83.368">  5  6 -1 -1</clus>
<clus scale="   89.109">  7  8 -1 -1</clus>
<clus scale="  115.117">  2  5  1 -1</clus>
<clus scale="   48.479">  2  5  1 -1</clus>
</clustering>
</event>
<event>
 9    1  0.9171696E-005  0.1482116E+03  0.7546771E-02  0.1220985E+00
          1   -1    0    0  502    0 -0.00000000000E+00  0.00000000000E+00  0.60113731132E+03  0.60113731132E+03  0.00000000000E+00 0. -1.
         21   -1    0    0  501  502  0.00000000000E+00 -0.00000000000E+00 -0.64877307621E+02  0.64877307621E+02  0.00000000000E+00 0. -1.
        -24    2    1    2    0    0  0.51253294008E+02 -0.31870769370E+02  0.19487551169E+03  0.21921689345E+03  0.80230513085E+02 0.  0.
         23    2    1    2    0    0 -0.15180424343E+03  0.44535076081E+02  0.25496012987E+03  0.31360595223E+03  0.91192785499E+02 0.  0.
         11    1    3    3    0    0  0.15612474756E+01 -0.48039239656E+02  0.89105828988E+02  0.10124255429E+03  0.00000000000E+00 0. -1.
        -12    1    3    3    0    0  0.49692046533E+02  0.16168470286E+02  0.10576968270E+03  0.11797433915E+03  0.00000000000E+00 0.  1.
        -13    1    4    4    0    0 -0.83926881366E+02  0.49036565082E+02  0.21180846809E+03  0.23304749148E+03  0.00000000000E+00 0.  1.
         13    1    4    4    0    0 -0.67877362063E+02 -0.45014890006E+01  0.43151661774E+02  0.80558460745E+02  0.00000000000E+00 0. -1.
          2    1    1    2  501    0  0.10055094942E+03 -0.12664306711E+02  0.86424362147E+02  0.13319177327E+03  0.00000000000E+00 0. -1.
<scales pt_clust_5="13000.00000" pt_clust_6="13000.00000" pt_clust_7="13000.00000" pt_clust_8="13000.00000" pt_clust_9="116.83559"></scales>
<clustering>
<clus scale="   80.231">  5  6 -1 -1</clus>
<clus scale="   91.193">  7  8 -1 -1</clus>
<clus scale="  100.397">  1  5  2 -1</clus>
<clus scale="  116.836">  2  9  1 -1</clus>
<clus scale="  116.836">  2  5  1 -1</clus>
</clustering>
</event>
<event>
 9    1  0.9171696E-005  0.1019294E+03  0.7546771E-02  0.1280530E+00
         -4   -1    0    0    0  501 -0.00000000000E+00  0.00000000000E+00  0.11128177264E+03  0.11128177264E+03  0.00000000000E+00 0.  1.
         21   -1    0    0  501  502  0.00000000000E+00 -0.00000000000E+00 -0.22338587865E+03  0.22338587865E+03  0.00000000000E+00 0. -1.
         23    2    1    2    0    0 -0.27494532467E+02 -0.35192231866E+02  0.49954403465E+02  0.11223552820E+03  0.90038485465E+02 0.  0.
        -24    2    1    2    0    0  0.42212341551E+02  0.51100593255E+02 -0.16977382707E+03  0.19942742809E+03  0.80962919344E+02 0.  0.
         13    1    4    4    0    0  0.29274738839E+02  0.52394799344E+01 -0.14025640866E+03  0.14337476296E+03  0.00000000000E+00 0. -1.
        -14    1    4    4    0    0  0.12937602712E+02  0.45861113321E+02 -0.29517418407E+02  0.56052665132E+02  0.00000000000E+00 0.  1.
        -13    1    3    3    0    0 -0.11158080780E+02  0.24693258477E+02  0.41536260986E+02  0.49593555606E+02  0.00000000000E+00 0. -1.
         13    1    3    3    0    0 -0.16336451687E+02 -0.59885490343E+02  0.84181424792E+01  0.62641972592E+02  0.00000000000E+00 0.  1.
         -3    1    1    2    0  502 -0.14717809085E+02 -0.15908361389E+02  0.77153175913E+01  0.23004694996E+02  0.00000000000E+00 0.  1.
<scales pt_clust_5="13000.00000" pt_clust_6="13000.00000" pt_clust_7="13000.00000" pt_clust_8="13000.00000" pt_clust_9="21.67234"></scales>
<clustering>
<clus scale="   21.672">  2  9  1 -1</clus>
<clus scale="   80.963">  5  6 -1 -1</clus>
<clus scale="   90.038">  7  8 -1 -1</clus>
<clus scale="   94.009">  2  5  1 -1</clus>
<clus scale="   21.672">  2  5  1 -1</clus>
</clustering>
</event>
<event>
 9    1  0.9171696E-005  0.1142172E+03  0.7546771E-02  0.1257621E+00
         21   -1    0    0  501  502  0.00000000000E+00  0.00000000000E+00  0.11739142972E+03  0.11739142972E+03  0.00000000000E+00 0.  1.
          3   -1    0    0  502    0 -0.00000000000E+00 -0.00000000000E+00 -0.17329030495E+03  0.17329030495E+03  0.00000000000E+00 0. -1.
        -24    2    1    2    0    0 -0.67559222146E+02  0.10117431124E+02 -0.82550841530E+02  0.13367132172E+03  0.79917269122E+02 0.  0.
         23    2    1    2    0    0  0.63176619093E+02  0.12198353021E+02  0.50894541239E+02  0.12377031861E+03  0.92675522254E+02 0.  0.
         13    1    3    3    0    0 -0.16941492349E+02 -0.12606489804E+02  0.11818435733E+02  0.24199445683E+02  0.00000000000E+00 0. -1.
        -14    1    3    3    0    0 -0.50617729796E+02  0.22723920928E+02 -0.94369277264E+02  0.10947187604E+03  0.00000000000E+00 0.  1.
        -11    1    4    4    0    0  0.30226026508E+02  0.23848852160E+02  0.72919301871E+02  0.82459717518E+02  0.00000000000E+00 0.  1.
         11    1    4    4    0    0  0.32950592585E+02 -0.11650499139E+02 -0.22024760632E+02  0.41310601094E+02  0.00000000000E+00 0. -1.
          4    1    1    2  501    0  0.43826030527E+01 -0.22315784145E+02 -0.24242574945E+02  0.33240094337E+02  0.00000000000E+00 0. -1.
<scales pt_clust_5="13000.00000" pt_clust_6="13000.00000" pt_clust_7="13000.00000" pt_clust_8="13000.00000" pt_clust_9="22.74207"></scales>
<clustering>
<clus scale="   22.742">  1  9  2 -1</clus>
<clus scale="   79.917">  5  6 -1 -1</clus>
<clus scale="   92.676">  7  8 -1 -1</clus>
<clus scale="  104.133">  2  5  1 -1</clus>
<clus scale="   22.742">  1  5  2 -1</clus>
</clustering>
</event>
<event>
 9    1  0.9171696E-005  0.1517345E+03  0.7546771E-02  0.1207602E+00
          1   -1    0    0  502    0 -0.00000000000E+00  0.00000000000E+00  0.84991430702E+03  0.84991430702E+03  0.00000000000E+00 0. -1.
         21   -1    0    0  501  502  0.00000000000E+00 -0.00000000000E+00 -0.10753530226E+03  0.10753530226E+03  0.00000000000E+00 0. -1.
        -24    2    1    2    0    0  0.64345645043E+02  0.74783074070E+02  0.48496606979E+03  0.50063185132E+03  0.75546618103E+02 0.  0.
         23    2    1    2    0    0  0.10016572918E+03  0.28464332915E+02  0.53090380372E+01  0.13857195022E+03  0.91272164182E+02 0.  0.
         11    1    3    3    0    0  0.60662180624E+02  0.58053578243E+02  0.47129237444E+03  0.47871350546E+03  0.00000000000E+00 0. -1.
        -12    1    3    3    0    0  0.36834644187E+01  0.16729495828E+02  0.13673695350E+02  0.21918345861E+02  0.00000000000E+00 0.  1.
        -13    1    4    4    0    0  0.87064149061E+01 -0.20242211132E+02  0.24756535230E+02  0.33142643356E+02  0.00000000000E+00 0.  1.
         13    1    4    4    0    0  0.91459314270E+02  0.48706544047E+02 -0.19447497193E+02  0.10542930687E+03  0.00000000000E+00 0. -1.
          2    1    1    2  501    0 -0.16451137422E+03 -0.10324740699E+03  0.25210389694E+03  0.31824580774E+03  0.00000000000E+00 0. -1.
<scales pt_clust_5="13000.00000" pt_clust_6="13000.00000" pt_clust_7="13000.00000" pt_clust_8="13000.00000" pt_clust_9="121.21377"></scales>
<clustering>
<clus scale="   75.547">  5  6 -1 -1</clus>
<clus scale="   91.272">  7  8 -1 -1</clus>
<clus scale="  124.258">  1  5  2 -1</clus>
<clus scale="  121.214">  2  9  1 -1</clus>
<clus scale="  121.214">  2  5  1 -1</clus>
</clustering>
</event>
<event>
 9    1  0.9171696E-005  0.2829906E+03  0.7546771E-02  0.1094492E+00
          1   -1    0    0  502    0 -0.00000000000E+00  0.00000000000E+00  0.20494463865E+04  0.20494463865E+04  0.00000000000E+00 0. -1.
         21   -1    0    0  501  502  0.00000000000E+00 -0.00000000000E+00 -0.56222563817E+02  0.56222563817E+02  0.00000000000E+00 0. -1.
         23    2    1    2    0    0 -0.18409678937E+03 -0.23381968948E+03  0.11521262832E+04  0.11934130532E+04  0.90975095280E+02 0.  0.
        -24    2    1    2    0    0  0.10705165866E+03  0.21564785653E+03  0.74870626237E+03  0.79059112919E+03  0.80679678933E+02 0.  0.
         11    1    4    4    0    0  0.58400551550E+02  0.19029229331E+03  0.58812330158E+03  0.62089515956E+03  0.00000000000E+00 0. -1.
        -12    1    4    4    0    0  0.48651107113E+02  0.25355563220E+02  0.16058296079E+03  0.16969596963E+03  0.00000000000E+00 0.  1.
        -11    1    3    3    0    0 -0.14423831182E+03 -0.18493790595E+03  0.10251276972E+04  0.10516147180E+04  0.00000000000E+00 0. -1.
         11    1    3    3    0    0 -0.39858477551E+02 -0.48881783531E+02  0.12699858603E+03  0.14179833514E+03  0.00000000000E+00 0.  1.
          2    1    1    2  501    0  0.77045130708E+02  0.18171832956E+02  0.92391277117E+02  0.12166476797E+03  0.00000000000E+00 0. -1.
<scales pt_clust_5="13000.00000" pt_clust_6="13000.00000" pt_clust_7="13000.00000" pt_clust_8="13000.00000" pt_clust_9="79.15913"></scales>
<clustering>
<clus scale="   79.159">  2  9  1 -1</clus>
<clus scale="   80.680">  5  6 -1 -1</clus>
<clus scale="   90.975">  7  8 -1 -1</clus>
<clus scale="  279.851">  2  5  1 -1</clus>
<clus scale="   79.159">  2  5  1 -1</clus>
</clustering>
</event>
<event>
 9    1  0.9171696E-005  0.1013603E+03  0.7546771E-02  0.1283478E+00
         21   -1    0    0  501  502  0.00000000000E+00  0.00000000000E+00  0.26786175655E+03  0.26786175655E+03  0.00000000000E+00 0.  1.
          1   -1    0    0  502    0 -0.00000000000E+00 -0.00000000000E+00 -0.90573330144E+02  0.90573330144E+02  0.00000000000E+00 0. -1.
         23    2    1    2    0    0 -0.18864415690E+02  0.43031119410E+02 -0.43973815206E+02  0.11196639177E+03  0.91625504342E+02 0.  0.
        -24    2    1    2    0    0  0.47650555299E+01 -0.26537468046E+02  0.14813365087E+03  0.17018879406E+03  0.79332869214E+02 0.  0.
         11    1    4    4    0    0 -0.11324509272E+02  0.25019687514E+02  0.32401888491E+02  0.42474835507E+02  0.00000000000E+00 0. -1.
        -12    1    4    4    0    0  0.16089564802E+02 -0.51557155560E+02  0.11573176238E+03  0.12771395855E+03  0.00000000000E+00 0.  1.
        -13    1    3    3    0    0 -0.25376551996E+02 -0.18184749470E+02 -0.39352083346E+02  0.50231872035E+02  0.00000000000E+00 0.  1.
         13    1    3    3    0    0  0.65121363058E+01  0.61215868879E+02 -0.46217318603E+01  0.61734519738E+02  0.00000000000E+00 0. -1.
          2    1    1    2  501    0  0.14099360160E+02 -0.16493651363E+02  0.73128590738E+02  0.76279900862E+02  0.00000000000E+00 0. -1.
<scales pt_clust_5="13000.00000" pt_clust_6="13000.00000" pt_clust_7="13000.00000" pt_clust_8="13000.00000" pt_clust_9="21.69867"></scales>
<clustering>
<clus scale="   21.699">  1  9  2 -1</clus>
<clus scale="   79.333">  5  6 -1 -1</clus>
<clus scale="   90.401">  1  5  2 -1</clus>
<clus scale="   91.626">  7  8 -1 -1</clus>
<clus scale="   21.699">  1  5  2 -1</clus>
</clustering>
</event>
<event>
 9    1  0.9171696E-005  0.1307512E+03  0.7546771E-02  0.1229932E+00
         21   -1    0    0  501  502  0.00000000000E+00  0.00000000000E+00  0.15534611673E+03  0.15534611673E+03  0.00000000000E+00 0. -1.
          1   -1    0    0  502    0 -0.00000000000E+00 -0.00000000000E+00 -0.13293633856E+03  0.13293633856E+03  0.00000000000E+00 0. -1.
        -24    2    1    2    0    0  0.51757287013E+02 -0.73263582588E+02 -0.24069208736E+02  0.12292697070E+03  0.80531633680E+02 0.  0.
         23    2    1    2    0    0 -0.33789764820E+02  0.88690079466E+02  0.47076073304E+02  0.14166655950E+03  0.94050938331E+02 0.  0.
         11    1    3    3    0    0  0.64881972402E+02 -0.25137397652E+02 -0.58753914674E+01  0.69828929022E+02  0.00000000000E+00 0. -1.
        -12    1    3    3    0    0 -0.13124685389E+02 -0.48126184936E+02 -0.18193817269E+02  0.53098041676E+02  0.00000000000E+00 0.  1.
        -13    1    4    4    0    0 -0.19291243238E+02  0.61730924810E+02  0.75833019174E+02  0.99666975175E+02  0.00000000000E+00 0. -1.
         13    1    4    4    0    0 -0.14498521582E+02  0.26959154656E+02 -0.28756945869E+02  0.41999584326E+02  0.00000000000E+00 0.  1.
          2    1    1    2  501    0 -0.17967522193E+02 -0.15426496878E+02 -0.59708639428E+00  0.23688925089E+02  0.00000000000E+00 0. -1.
<scales pt_clust_5="13000.00000" pt_clust_6="13000.00000" pt_clust_7="13000.00000" pt_clust_8="13000.00000" pt_clust_9="23.68141"></scales>
<clustering>
<clus scale="   23.681">  1  9  2 -1</clus>
<clus scale="   80.532">  5  6 -1 -1</clus>
<clus scale="   94.051">  7  8 -1 -1</clus>
<clus scale="  121.390">  2  5  1 -1</clus>
<clus scale="   23.681">  1  5  2 -1</clus>
</clustering>
</event>
<event>
 9    1  0.9171696E-005  0.1260011E+03  0.7546771E-02  0.1242111E+00
         21   -1    0    0  501  502  0.00000000000E+00  0.00000000000E+00  0.14023941656E+03  0.14023941656E+03  0.00000000000E+00 0. -1.
          1   -1    0    0  502    0 -0.00000000000E+00 -0.00000000000E+00 -0.28880984787E+03  0.28880984787E+03  0.00000000000E+00 0. -1.
        -24    2    1    2    0    0  0.53577249878E+02  0.43151879379E+02 -0.16695401870E+03  0.19762505636E+03  0.80308232094E+02 0.  0.
         23    2    1    2    0    0  0.53981253565E+02 -0.44604490819E+02 -0.26361843933E+02  0.11492057995E+03  0.87225320531E+02 0.  0.
         11    1    3    3    0    0  0.68446975180E+02  0.50471514543E+02 -0.15625273172E+03  0.17789681943E+03  0.00000000000E+00 0. -1.
        -12    1    3    3    0    0 -0.14869725302E+02 -0.73196351634E+01 -0.10701286981E+02  0.19728236934E+02  0.00000000000E+00 0.  1.
        -11    1    4    4    0    0  0.76481693866E+02 -0.23741472615E+02 -0.26124005001E+02  0.84235210309E+02  0.00000000000E+00 0. -1.
         11    1    4    4    0    0 -0.22500440301E+02 -0.20863018204E+02 -0.23783893213E+00  0.30685369636E+02  0.00000000000E+00 0.  1.
          2    1    1    2  501    0 -0.10755850344E+03  0.14526114396E+01  0.44745431316E+02  0.11650362813E+03  0.00000000000E+00 0. -1.
<scales pt_clust_5="13000.00000" pt_clust_6="13000.00000" pt_clust_7="13000.00000" pt_clust_8="13000.00000" pt_clust_9="90.92866"></scales>
<clustering>
<clus scale="   80.308">  5  6 -1 -1</clus>
<clus scale="   87.225">  7  8 -1 -1</clus>
<clus scale="  105.745">  2  5  1 -1</clus>
<clus scale="   90.929">  1  9  2 -1</clus>
<clus scale="   90.929">  1  5  2 -1</clus>
</clustering>
</event>
<event>
 9    1  0.9171696E-005  0.1562024E+03  0.7546771E-02  0.1210540E+00
         21   -1    0    0  501  502  0.00000000000E+00  0.00000000000E+00  0.30434684542E+03  0.30434684542E+03  0.00000000000E+00 0. -1.
          1   -1    0    0  502    0 -0.00000000000E+00 -0.00000000000E+00 -0.34363729392E+03  0.34363729392E+03  0.00000000000E+00 0. -1.
        -24    2    1    2    0    0  0.79436338161E+02  0.14504724421E+02 -0.19115611535E+03  0.21904680027E+03  0.70145002835E+02 0.  0.
         23    2    1    2    0    0  0.32980544214E+01  0.89573608188E+02 -0.86914096934E+02  0.15563703789E+03  0.92922111843E+02 0.  0.
         11    1    3    3    0    0  0.74550397572E+02  0.66054560566E+01 -0.19509492066E+03  0.20895794289E+03  0.00000000000E+00 0. -1.
        -12    1    3    3    0    0  0.48859405890E+01  0.78992683642E+01  0.39388053082E+01  0.10088857387E+02  0.00000000000E+00 0.  1.
        -11    1    4    4    0    0 -0.35501025446E+02  0.79739746082E+02 -0.71181604137E+02  0.11263023875E+03  0.00000000000E+00 0.  1.
         11    1    4    4    0    0  0.38799079867E+02  0.98338621058E+01 -0.15732492797E+02  0.43006799138E+02  0.00000000000E+00 0. -1.
          2    1    1    2  501    0 -0.82734392582E+02 -0.10407833261E+03  0.23877976379E+03  0.27330030119E+03  0.00000000000E+00 0. -1.
<scales pt_clust_5="13000.00000" pt_clust_6="13000.00000" pt_clust_7="13000.00000" pt_clust_8="13000.00000" pt_clust_9="125.55746"></scales>
<clustering>
<clus scale="   70.145">  5  6 -1 -1</clus>
<clus scale="   92.922">  7  8 -1 -1</clus>
<clus scale="  106.962">  2  5  1 -1</clus>
<clus scale="  125.557">  1  9  2 -1</clus>
<clus scale="  125.557">  1  5  2 -1</clus>
</clustering>
</event>
<event>
 9    1  0.9171696E-005  0.1229986E+03  0.7546771E-02  0.1263691E+00
         21   -1    0    0  501  502  0.00000000000E+00  0.00000000000E+00  0.13958987136E+03  0.13958987136E+03  0.00000000000E+00 0.  1.
          3   -1    0    0  502    0 -0.00000000000E+00 -0.00000000000E+00 -0.19636464724E+03  0.19636464724E+03  0.00000000000E+00 0. -1.
        -24    2    1    2    0    0 -0.22895695397E+02  0.22706716250E+01  0.60816787720E+02  0.95796463104E+02  0.70348502879E+02 0.  0.
         23    2    1    2    0    0 -0.70051468497E+02  0.12119561100E+02 -0.59425659154E+02  0.12957086584E+03  0.90571012525E+02 0.  0.
         11    1    3    3    0    0  0.81571487364E+01 -0.27180316991E+02  0.37600175528E+02  0.47107132230E+02  0.00000000000E+00 0. -1.
        -12    1    3    3    0    0 -0.31052844133E+02  0.29450988616E+02  0.23216612192E+02  0.48689330873E+02  0.00000000000E+00 0.  1.
        -11    1    4    4    0    0 -0.84437633217E+02 -0.62812106321E+01 -0.63531590404E+02  0.10585570598E+03  0.00000000000E+00 0.  1.
         11    1    4    4    0    0  0.14386164721E+02  0.18400771732E+02  0.41059312493E+01  0.23715159859E+02  0.00000000000E+00 0. -1.
          4    1    1    2  501    0  0.92947163893E+02 -0.14390232725E+02 -0.58165904447E+02  0.11058718965E+03  0.00000000000E+00 0. -1.
<scales pt_clust_5="13000.00000" pt_clust_6="13000.00000" pt_clust_7="13000.00000" pt_clust_8="13000.00000" pt_clust_9="83.21990"></scales>
<clustering>
<clus scale="   70.349">  5  6 -1 -1</clus>
<clus scale="   74.015">  2  5  1 -1</clus>
<clus scale="   83.220">  1  9  2 -1</clus>
<clus scale="   90.571">  7  8 -1 -1</clus>
<clus scale="   83.220">  1  5  2 -1</clus>
</clustering>
</event>
<event>
 9    1  0.9171696E-005  0.1634672E+03  0.7546771E-02  0.1204998E+00
         21   -1    0    0  501  502  0.00000000000E+00  0.00000000000E+00  0.47323488641E+03  0.47323488641E+03  0.00000000000E+00 0. -1.
          3   -1    0    0  502    0 -0.00000000000E+00 -0.00000000000E+00 -0.15278835076E+03  0.15278835076E+03  0.00000000000E+00 0. -1.
        -24    2    1    2    0    0 -0.69039535739E+02  0.96025082561E+01 -0.58131059023E+02  0.12010131222E+03  0.78653922435E+02 0.  0.
         23    2    1    2    0    0 -0.79072326115E+02  0.32048308959E+02  0.34704671766E+02  0.12919854991E+03  0.90599802385E+02 0.  0.
         13    1    3    3    0    0 -0.52478206576E+02  0.10184138360E+02 -0.77791473629E+02  0.94388517358E+02  0.00000000000E+00 0. -1.
        -14    1    3    3    0    0 -0.16561329162E+02 -0.58163010441E+00  0.19660414606E+02  0.25712794864E+02  0.00000000000E+00 0.  1.
        -11    1    4    4    0    0 -0.11780067094E+02 -0.27935258827E+02 -0.49452336652E+01  0.30718138005E+02  0.00000000000E+00 0.  1.
         11    1    4    4    0    0 -0.67292259020E+02  0.59983567785E+02  0.39649905431E+02  0.98480411905E+02  0.00000000000E+00 0. -1.
          4    1    1    2  501    0  0.14811186185E+03 -0.41650817215E+02  0.34387292291E+03  0.37672337504E+03  0.00000000000E+00 0. -1.
<scales pt_clust_5="13000.00000" pt_clust_6="13000.00000" pt_clust_7="13000.00000" pt_clust_8="13000.00000" pt_clust_9="136.06322"></scales>
<clustering>
<clus scale="   78.654">  5  6 -1 -1</clus>
<clus scale="   90.600">  7  8 -1 -1</clus>
<clus scale="  105.096">  2  5  1 -1</clus>
<clus scale="  136.063">  1  9  2 -1</clus>
<clus scale="  136.063">  1  5  2 -1</clus>
</clustering>
</event>
<event>
 9    1  0.9171696E-005  0.9348400E+02  0.7546771E-02  0.1302691E+00
         -4   -1    0    0    0  501 -0.00000000000E+00  0.00000000000E+00  0.22229943126E+03  0.22229943126E+03  0.00000000000E+00 0.  1.
         21   -1    0    0  501  502  0.00000000000E+00 -0.00000000000E+00 -0.19286669784E+03  0.19286669784E+03  0.00000000000E+00 0.  1.
         23    2    1    2    0    0  0.23941917408E+02  0.10553022040E+02  0.15629131892E+03  0.18292747492E+03  0.91383275426E+02 0.  0.
        -24    2    1    2    0    0  0.30005586156E+02 -0.34257294394E+02  0.21284007524E+01  0.90429386875E+02  0.78096392369E+02 0.  0.
         13    1    4    4    0    0  0.23605313660E+02  0.22782084196E+02 -0.21243418615E+01  0.32874717058E+02  0.00000000000E+00 0. -1.
        -14    1    4    4    0    0  0.64002724963E+01 -0.57039378591E+02  0.42527426139E+01  0.57554669817E+02  0.00000000000E+00 0.  1.
        -11    1    3    3    0    0  0.52870834078E+01 -0.39723212979E+02  0.51926203407E+02  0.65591291347E+02  0.00000000000E+00 0. -1.
         11    1    3    3    0    0  0.18654834001E+02  0.50276235020E+02  0.10436511552E+03  0.11733618358E+03  0.00000000000E+00 0.  1.
         -3    1    1    2    0  502 -0.53947503564E+02  0.23704272354E+02 -0.12898698626E+03  0.14180926730E+03  0.00000000000E+00 0.  1.
<scales pt_clust_5="13000.00000" pt_clust_6="13000.00000" pt_clust_7="13000.00000" pt_clust_8="13000.00000" pt_clust_9="58.92559"></scales>
<clustering>
<clus scale="   58.926">  2  9  1 -1</clus>
<clus scale="   78.096">  5  6 -1 -1</clus>
<clus scale="   80.544">  2  5  1 -1</clus>
<clus scale="   91.383">  7  8 -1 -1</clus>
<clus scale="   58.926">  2  5  1 -1</clus>
</clustering>
</event>
<event>
 9    1  0.9171696E-005  0.1128283E+03  0.7546771E-02  0.1258402E+00
         -2   -1    0    0    0  501 -0.00000000000E+00  0.00000000000E+00  0.14755769913E+03  0.14755769913E+03  0.00000000000E+00 0.  1.
         21   -1    0    0  501  502  0.00000000000E+00 -0.00000000000E+00 -0.11351276573E+03  0.11351276573E+03  0.00000000000E+00 0. -1.
         23    2    1    2    0    0  0.64105215573E+02 -0.38064406466E+02  0.32519161662E+02  0.12046310093E+03  0.88856542286E+02 0.  0.
        -24    2    1    2    0    0 -0.67865753687E+02  0.33330309343E+01 -0.29606842812E+01  0.10538608654E+03  0.80502123981E+02 0.  0.
         11    1    4    4    0    0 -0.38845719580E+02 -0.37802709760E+02 -0.80069963907E+01  0.54791849632E+02  0.00000000000E+00 0. -1.
        -12    1    4    4    0    0 -0.29020034107E+02  0.41135740694E+02  0.50463121095E+01  0.50594236905E+02  0.00000000000E+00 0.  1.
        -13    1    3    3    0    0  0.38266258607E+01  0.24091828328E+02  0.22702688760E+02  0.33323735304E+02  0.00000000000E+00 0. -1.
         13    1    3    3    0    0  0.60278589712E+02 -0.62156234794E+02  0.98164729014E+01  0.87139365626E+02  0.00000000000E+00 0.  1.
         -1    1    1    2    0  502  0.37605381149E+01  0.34731375532E+02  0.44864560246E+01  0.35221277389E+02  0.00000000000E+00 0.  1.
<scales pt_clust_5="13000.00000" pt_clust_6="13000.00000" pt_clust_7="13000.00000" pt_clust_8="13000.00000" pt_clust_9="34.93437"></scales>
<clustering>
<clus scale="   34.934">  2  9  1 -1</clus>
<clus scale="   80.502">  5  6 -1 -1</clus>
<clus scale="   88.857">  7  8 -1 -1</clus>
<clus scale="  106.374">  2  5  1 -1</clus>
<clus scale="   34.934">  2  5  1 -1</clus>
</clustering>
</event>
<event>
 9    1  0.9171696E-005  0.3671317E+03  0.7546771E-02  0.1101569E+00
         21   -1    0    0  501  502  0.00000000000E+00  0.00000000000E+00  0.43496281476E+03  0.43496281476E+03  0.00000000000E+00 0.  1.
          1   -1    0    0  502    0 -0.00000000000E+00 -0.00000000000E+00 -0.62736967073E+03  0.62736967073E+03  0.00000000000E+00 0. -1.
        -24    2    1    2    0    0 -0.28939481956E+02  0.50291069659E+02 -0.16249692677E+02  0.10782620254E+03  0.89418969678E+02 0.  0.
         23    2    1    2    0    0 -0.33332114399E+03  0.98386395932E+02  0.20014067102E+03  0.41142451196E+03  0.91820329485E+02 0.  0.
         11    1    3    3    0    0 -0.28385937375E+02  0.60134980695E+02 -0.43085881179E+02  0.79236169145E+02  0.00000000000E+00 0. -1.
        -12    1    3    3    0    0 -0.55354458104E+00 -0.98439110355E+01  0.26836188502E+02  0.28590033393E+02  0.00000000000E+00 0.  1.
        -11    1    4    4    0    0 -0.25617165255E+03  0.98605643082E+02  0.18948127123E+03  0.33354181232E+03  0.00000000000E+00 0.  1.
         11    1    4    4    0    0 -0.77149491446E+02 -0.21924715029E+00  0.10659399790E+02  0.77882699642E+02  0.00000000000E+00 0. -1.
          2    1    1    2  501    0  0.36226062595E+03 -0.14867746559E+03 -0.37629783431E+03  0.54308177100E+03  0.00000000000E+00 0. -1.
<scales pt_clust_5="13000.00000" pt_clust_6="13000.00000" pt_clust_7="13000.00000" pt_clust_8="13000.00000" pt_clust_9="355.46430"></scales>
<clustering>
<clus scale="   89.419">  5  6 -1 -1</clus>
<clus scale="   91.820">  7  8 -1 -1</clus>
<clus scale="  106.595">  2  5  1 -1</clus>
<clus scale="  355.464">  1  9  2 -1</clus>
<clus scale="  355.464">  1  5  2 -1</clus>
</clustering>
</event>
<event>
 9    1  0.9171696E-005  0.2481065E+03  0.7546771E-02  0.1118299E+00
         21   -1    0    0  501  502  0.00000000000E+00  0.00000000000E+00  0.21842914232E+03  0.21842914232E+03  0.00000000000E+00 0. -1.
          1   -1    0    0  502    0 -0.00000000000E+00 -0.00000000000E+00 -0.67085385144E+03  0.67085385144E+03  0.00000000000E+00 0. -1.
         23    2    1    2    0    0 -0.12112944649E+03  0.14407766572E+03 -0.14213814844E+03  0.26657476971E+03  0.12421005611E+03 0.  0.
        -24    2    1    2    0    0  0.25723256800E+03  0.46037963787E+02 -0.59267685287E+02  0.27966524123E+03  0.80074343457E+02 0.  0.
         13    1    4    4    0    0  0.24279097987E+03  0.37907100821E+02 -0.32070566779E+02  0.24781632201E+03  0.00000000000E+00 0. -1.
        -14    1    4    4    0    0  0.14441588131E+02  0.81308629659E+01 -0.27197118508E+02  0.31848919219E+02  0.00000000000E+00 0.  1.
        -11    1    3    3    0    0 -0.48591414680E+01  0.10048755227E+03 -0.74405674504E+02  0.12513018746E+03  0.00000000000E+00 0.  1.
         11    1    3    3    0    0 -0.11627030502E+03  0.43590113449E+02 -0.67732473937E+02  0.14144458225E+03  0.00000000000E+00 0. -1.
          2    1    1    2  501    0 -0.13610312151E+03 -0.19011562950E+03 -0.25101887538E+03  0.34304298283E+03  0.00000000000E+00 0. -1.
<scales pt_clust_5="13000.00000" pt_clust_6="13000.00000" pt_clust_7="13000.00000" pt_clust_8="13000.00000" pt_clust_9="234.82969"></scales>
<clustering>
<clus scale="   80.074">  5  6 -1 -1</clus>
<clus scale="  124.210">  7  8 -1 -1</clus>
<clus scale="  225.519">  2  7  1 -1</clus>
<clus scale="  234.830">  1  9  2 -1</clus>
<clus scale="  234.830">  1  5  2 -1</clus>
</clustering>
</event>
<event>
 9    1  0.9171696E-005  0.1039136E+03  0.7546771E-02  0.1277342E+00
          3   -1    0    0  502    0 -0.00000000000E+00  0.00000000000E+00  0.15088578978E+03  0.15088578978E+03  0.00000000000E+00 0. -1.
         21   -1    0    0  501  502  0.00000000000E+00 -0.00000000000E+00 -0.12660340684E+03  0.12660340684E+03  0.00000000000E+00 0.  1.
         23    2    1    2    0    0  0.62110864795E+02  0.12745578292E+02  0.40863391984E+02  0.11792060796E+03  0.90637981478E+02 0.  0.
        -24    2    1    2    0    0 -0.18194071142E+02 -0.29608633201E+02 -0.51635923955E+02  0.10090092768E+03  0.79416831838E+02 0.  0.
         11    1    4    4    0    0  0.24714414751E+02  0.11316624611E+02 -0.13021430193E+02  0.30140105065E+02  0.00000000000E+00 0. -1.
        -12    1    4    4    0    0 -0.42908485893E+02 -0.40925257812E+02 -0.38614493763E+02  0.70760822615E+02  0.00000000000E+00 0.  1.
        -13    1    3    3    0    0  0.78307974336E+02 -0.13176276129E+02  0.23723049609E+02  0.82876632292E+02  0.00000000000E+00 0. -1.
         13    1    3    3    0    0 -0.16197109542E+02  0.25921854421E+02  0.17140342375E+02  0.35043975672E+02  0.00000000000E+00 0.  1.
          4    1    1    2  501    0 -0.43916793652E+02  0.16863054909E+02  0.35054914912E+02  0.58667660981E+02  0.00000000000E+00 0. -1.
<scales pt_clust_5="13000.00000" pt_clust_6="13000.00000" pt_clust_7="13000.00000" pt_clust_8="13000.00000" pt_clust_9="47.04306"></scales>
<clustering>
<clus scale="   47.043">  2  9  1 -1</clus>
<clus scale="   79.417">  5  6 -1 -1</clus>
<clus scale="   90.638">  7  8 -1 -1</clus>
<clus scale="   94.286">  2  5  1 -1</clus>
<clus scale="   47.043">  2  5  1 -1</clus>
</clustering>
</event>
<event>
 9    1  0.9171696E-005  0.1294449E+03  0.7546771E-02  0.1253313E+00
          1   -1    0    0  502    0 -0.00000000000E+00  0.00000000000E+00  0.55494177956E+03  0.55494177956E+03  0.00000000000E+00 0. -1.
         21   -1    0    0  501  502  0.00000000000E+00 -0.00000000000E+00 -0.47914509100E+02  0.47914509100E+02  0.00000000000E+00 0.  1.
        -24    2    1    2    0    0  0.38261505378E+01 -0.10373480304E+02  0.10736958356E+03  0.13265591658E+03  0.77117547994E+02 0.  0.
         23    2    1    2    0    0 -0.78558951234E+02 -0.45846171908E+02  0.12307193286E+03  0.17823235991E+03  0.91360238406E+02 0.  0.
         11    1    3    3    0    0  0.39437928388E+02 -0.12201086369E+02  0.67893858483E+02  0.79459377822E+02  0.00000000000E+00 0. -1.
        -12    1    3    3    0    0 -0.35611777850E+02  0.18276060654E+01  0.39475725072E+02  0.53196538755E+02  0.00000000000E+00 0.  1.
        -11    1    4    4    0    0 -0.14594491875E+02 -0.44322804940E+02  0.99761622224E+02  0.11013578664E+03  0.00000000000E+00 0.  1.
         11    1    4    4    0    0 -0.63964459359E+02 -0.15233669681E+01  0.23310310638E+02  0.68096573263E+02  0.00000000000E+00 0. -1.
          2    1    1    2  501    0  0.74732800697E+02  0.56219652212E+02  0.27658575404E+03  0.29196801218E+03  0.00000000000E+00 0. -1.
<scales pt_clust_5="13000.00000" pt_clust_6="13000.00000" pt_clust_7="13000.00000" pt_clust_8="13000.00000" pt_clust_9="91.70221"></scales>
<clustering>
<clus scale="   77.118">  5  6 -1 -1</clus>
<clus scale="   77.906">  1  5  2 -1</clus>
<clus scale="   91.360">  7  8 -1 -1</clus>
<clus scale="   91.702">  2  9  1 -1</clus>
<clus scale="   91.702">  2  5  1 -1</clus>
</clustering>
</event>
<event>
 9    1  0.9171696E-005  0.1235696E+03  0.7546771E-02  0.1240805E+00
         21   -1    0    0  501  502  0.00000000000E+00  0.00000000000E+00  0.39700191025E+03  0.39700191025E+03  0.00000000000E+00 0. -1.
          1   -1    0    0  502    0 -0.00000000000E+00 -0.00000000000E+00 -0.83142514952E+02  0.83142514952E+02  0.00000000000E+00 0. -1.
        -24    2    1    2    0    0 -0.39176021403E+02  0.33261759651E+02  0.71979586343E+02  0.11935013987E+03  0.80139189720E+02 0.  0.
         23    2    1    2    0    0  0.11848715601E+03 -0.37433120450E+02  0.66430629674E+02  0.16820645904E+03  0.91869144211E+02 0.  0.
         11    1    3    3    0    0 -0.59847780858E+02  0.27490196276E+02  0.30355251083E+02  0.72518335842E+02  0.00000000000E+00 0. -1.
        -12    1    3    3    0    0  0.20671759455E+02  0.57715633749E+01  0.41624335261E+02  0.46831804029E+02  0.00000000000E+00 0.  1.
        -13    1    4    4    0    0  0.12870979554E+02 -0.42173163257E+02  0.14632994826E+01  0.44117786199E+02  0.00000000000E+00 0.  1.
         13    1    4    4    0    0  0.10561617646E+03  0.47400428068E+01  0.64967330191E+02  0.12408867284E+03  0.00000000000E+00 0. -1.
          2    1    1    2  501    0 -0.79311134612E+02  0.41713607990E+01  0.17544917928E+03  0.19258782629E+03  0.00000000000E+00 0. -1.
<scales pt_clust_5="13000.00000" pt_clust_6="13000.00000" pt_clust_7="13000.00000" pt_clust_8="13000.00000" pt_clust_9="79.42075"></scales>
<clustering>
<clus scale="   79.421">  1  9  2 -1</clus>
<clus scale="   80.139">  5  6 -1 -1</clus>
<clus scale="   91.869">  7  8 -1 -1</clus>
<clus scale="  115.116">  2  5  1 -1</clus>
<clus scale="   79.421">  1  5  2 -1</clus>
</clustering>
</event>
<event>
 9    1  0.9171696E-005  0.2758525E+03  0.7546771E-02  0.1130316E+00
         21   -1    0    0  501  502  0.00000000000E+00  0.00000000000E+00  0.11210209589E+04  0.11210209589E+04  0.00000000000E+00 0. -1.
         -2   -1    0    0    0  501 -0.00000000000E+00 -0.00000000000E+00 -0.29866692173E+03  0.29866692173E+03  0.00000000000E+00 0.  1.
        -24    2    1    2    0    0  0.54074839772E+02 -0.72499548576E+02 -0.10889747414E+01  0.12177989883E+03  0.81540695682E+02 0.  0.
         23    2    1    2    0    0  0.24648438256E+03 -0.63812594183E+02  0.91607268259E+03  0.95512947851E+03  0.90865631095E+02 0.  0.
         11    1    3    3    0    0  0.53667095722E+02 -0.11799688182E+02  0.18526325601E+02  0.57988055190E+02  0.00000000000E+00 0. -1.
        -12    1    3    3    0    0  0.40774404986E+00 -0.60699860394E+02 -0.19615300343E+02  0.63791843637E+02  0.00000000000E+00 0.  1.
        -13    1    4    4    0    0  0.12195799465E+03 -0.32482141979E+02  0.29404684780E+03  0.31998811026E+03  0.00000000000E+00 0.  1.
         13    1    4    4    0    0  0.12452638792E+03 -0.31330452204E+02  0.62202583479E+03  0.63514136825E+03  0.00000000000E+00 0. -1.
         -1    1    1    2    0  502 -0.30055922233E+03  0.13631214276E+03 -0.92629670714E+02  0.34277850325E+03  0.00000000000E+00 0.  1.
<scales pt_clust_5="13000.00000" pt_clust_6="13000.00000" pt_clust_7="13000.00000" pt_clust_8="13000.00000" pt_clust_9="260.45752"></scales>
<clustering>
<clus scale="   81.541">  5  6 -1 -1</clus>
<clus scale="   90.866">  7  8 -1 -1</clus>
<clus scale="  121.775">  2  5  1 -1</clus>
<clus scale="  260.458">  1  9  2 -1</clus>
<clus scale="  260.458">  1  5  2 -1</clus>
</clustering>
</event>
<event>
 9    1  0.9171696E-005  0.1059547E+03  0.7546771E-02  0.1270869E+00
         21   -1    0    0  501  502  0.00000000000E+00  0.00000000000E+00  0.92618647468E+02  0.92618647468E+02  0.00000000000E+00 0. -1.
          1   -1    0    0  502    0 -0.00000000000E+00 -0.00000000000E+00 -0.24510505488E+03  0.24510505488E+03  0.00000000000E+00 0. -1.
         23    2    1    2    0    0 -0.51728985986E+02 -0.34585798620E+02 -0.17050319857E+03  0.20307681112E+03  0.91086689664E+02 0.  0.
        -24    2    1    2    0    0  0.19445270988E+02  0.12553956461E+02  0.31195381995E+02  0.93399884316E+02  0.84939190871E+02 0.  0.
         11    1    4    4    0    0  0.11359957720E+02  0.49192874409E+02  0.19066547501E+02  0.53967775252E+02  0.00000000000E+00 0. -1.
        -12    1    4    4    0    0  0.80853132681E+01 -0.36638917948E+02  0.12128834494E+02  0.39432109064E+02  0.00000000000E+00 0.  1.
        -11    1    3    3    0    0 -0.43122009175E+01  0.28179835234E+02 -0.69023843245E+02  0.74679241606E+02  0.00000000000E+00 0.  1.
         11    1    3    3    0    0 -0.47416785069E+02 -0.62765633854E+02 -0.10147935532E+03  0.12839756951E+03  0.00000000000E+00 0. -1.
          2    1    1    2  501    0  0.32283714998E+02  0.22031842159E+02 -0.13178590839E+02  0.41247006916E+02  0.00000000000E+00 0. -1.
<scales pt_clust_5="13000.00000" pt_clust_6="13000.00000" pt_clust_7="13000.00000" pt_clust_8="13000.00000" pt_clust_9="39.08504"></scales>
<clustering>
<clus scale="   39.085">  1  9  2 -1</clus>
<clus scale="   84.939">  5  6 -1 -1</clus>
<clus scale="   91.087">  7  8 -1 -1</clus>
<clus scale="  100.719">  1  5  2 -1</clus>
<clus scale="   39.085">  1  5  2 -1</clus>
</clustering>
</event>
<event>
 9    1  0.9171696E-005  0.9882246E+02  0.7546771E-02  0.1296669E+00
         21   -1    0    0  501  502  0.00000000000E+00  0.00000000000E+00  0.30057947611E+03  0.30057947611E+03  0.00000000000E+00 0. -1.
          3   -1    0    0  502    0 -0.00000000000E+00 -0.00000000000E+00 -0.33986742698E+02  0.33986742698E+02  0.00000000000E+00 0. -1.
         23    2    1    2    0    0  0.79572762483E+01 -0.43010058979E+02  0.13177136135E+03  0.16520033758E+03  0.89522491284E+02 0.  0.
        -24    2    1    2    0    0  0.16754363724E+02  0.40211170933E+02  0.10875294551E+03  0.13333725667E+03  0.63670824470E+02 0.  0.
         13    1    4    4    0    0  0.81367404178E+01  0.54982341393E+02  0.60557781051E+02  0.82197988147E+02  0.00000000000E+00 0. -1.
        -14    1    4    4    0    0  0.86176233058E+01 -0.14771170460E+02  0.48195164457E+02  0.51139268525E+02  0.00000000000E+00 0.  1.
        -11    1    3    3    0    0 -0.36331352336E+02 -0.16450757756E+02  0.26324133902E+02  0.47786552700E+02  0.00000000000E+00 0.  1.
         11    1    3    3    0    0  0.44288628584E+02 -0.26559301223E+02  0.10544722744E+03  0.11741378488E+03  0.00000000000E+00 0. -1.
          4    1    1    2  501    0 -0.24711639972E+02  0.27988880461E+01  0.26068426555E+02  0.36028624557E+02  0.00000000000E+00 0. -1.
<scales pt_clust_5="13000.00000" pt_clust_6="13000.00000" pt_clust_7="13000.00000" pt_clust_8="13000.00000" pt_clust_9="24.86965"></scales>
<clustering>
<clus scale="   24.870">  1  9  2 -1</clus>
<clus scale="   63.671">  5  6 -1 -1</clus>
<clus scale="   76.194">  1  5  2 -1</clus>
<clus scale="   89.522">  7  8 -1 -1</clus>
<clus scale="   24.870">  1  5  2 -1</clus>
</clustering>
</event>
<event>
 9    1  0.9171696E-005  0.1845812E+03  0.7546771E-02  0.1189941E+00
          1   -1    0    0  502    0 -0.00000000000E+00  0.00000000000E+00  0.55843719265E+03  0.55843719265E+03  0.00000000000E+00 0. -1.
         21   -1    0    0  501  502  0.00000000000E+00 -0.00000000000E+00 -0.96969281017E+02  0.96969281017E+02  0.00000000000E+00 0. -1.
        -24    2    1    2    0    0 -0.19308442732E+02  0.58772884272E+02  0.16179020024E+03  0.19093037972E+03  0.80319817745E+02 0.  0.
         23    2    1    2    0    0 -0.13269348797E+03  0.45259205300E+02  0.12508738230E+03  0.21068672141E+03  0.95320952333E+02 0.  0.
         11    1    3    3    0    0 -0.29126384581E+02  0.46569057498E+02  0.16588403763E+03  0.17474134409E+03  0.00000000000E+00 0. -1.
        -12    1    3    3    0    0  0.98179418490E+01  0.12203826774E+02 -0.40938373929E+01  0.16189035632E+02  0.00000000000E+00 0.  1.
        -11    1    4    4    0    0 -0.91380141789E+00  0.32688198895E+02  0.73298982379E+01  0.33512397530E+02  0.00000000000E+00 0. -1.
         11    1    4    4    0    0 -0.13177968655E+03  0.12571006405E+02  0.11775748406E+03  0.17717432388E+03  0.00000000000E+00 0.  1.
          2    1    1    2  501    0  0.15200193070E+03 -0.10403208957E+03  0.17459032910E+03  0.25378937254E+03  0.00000000000E+00 0. -1.
<scales pt_clust_5="13000.00000" pt_clust_6="13000.00000" pt_clust_7="13000.00000" pt_clust_8="13000.00000" pt_clust_9="158.06382"></scales>
<clustering>
<clus scale="   80.320">  5  6 -1 -1</clus>
<clus scale="   95.321">  7  8 -1 -1</clus>
<clus scale="  101.382">  1  5  2 -1</clus>
<clus scale="  158.064">  2  9  1 -1</clus>
<clus scale="  158.064">  2  5  1 -1</clus>
</clustering>
</event>
<event>
 9    1  0.9171696E-005  0.9181813E+02  0.7546771E-02  0.1304725E+00
         21   -1    0    0  501  502  0.00000000000E+00  0.00000000000E+00  0.48679125378E+03  0.48679125378E+03  0.00000000000E+00 0. -1.
          1   -1    0    0  502    0 -0.00000000000E+00 -0.00000000000E+00 -0.71618967228E+02  0.71618967228E+02  0.00000000000E+00 0. -1.
         23    2    1    2    0    0  0.17515477577E+02  0.28909136967E+02  0.89112768045E+02  0.13147276274E+03  0.90561977447E+02 0.  0.
        -24    2    1    2    0    0  0.38700173975E+02  0.29139866436E+02  0.33284258131E+03  0.34584555845E+03  0.80486837929E+02 0.  0.
         11    1    4    4    0    0  0.32986249093E+02  0.53899412807E+02  0.28216224917E+03  0.28915181858E+03  0.00000000000E+00 0. -1.
        -12    1    4    4    0    0  0.57139248823E+01 -0.24759546371E+02  0.50680332138E+02  0.56693739863E+02  0.00000000000E+00 0.  1.
        -11    1    3    3    0    0  0.32647481900E+02 -0.58510408211E+01  0.87446284215E+02  0.93525105592E+02  0.00000000000E+00 0. -1.
         11    1    3    3    0    0 -0.15132004324E+02  0.34760177788E+02  0.16664838303E+01  0.37947657148E+02  0.00000000000E+00 0.  1.
          2    1    1    2  501    0 -0.56215651552E+02 -0.58049003403E+02 -0.67830628073E+01  0.81091899821E+02  0.00000000000E+00 0. -1.
<scales pt_clust_5="13000.00000" pt_clust_6="13000.00000" pt_clust_7="13000.00000" pt_clust_8="13000.00000" pt_clust_9="80.80775"></scales>
<clustering>
<clus scale="   80.487">  5  6 -1 -1</clus>
<clus scale="   80.808">  1  9  2 -1</clus>
<clus scale="   81.898">  1  5  2 -1</clus>
<clus scale="   90.562">  7  8 -1 -1</clus>
<clus scale="   80.808">  1  5  2 -1</clus>
</clustering>
</event>
<event>
 9    1  0.9171696E-005  0.1056369E+03  0.7546771E-02  0.1268932E+00
          3   -1    0    0  502    0 -0.00000000000E+00  0.00000000000E+00  0.12673153686E+03  0.12673153686E+03  0.00000000000E+00 0. -1.
         21   -1    0    0  501  502  0.00000000000E+00 -0.00000000000E+00 -0.49146335349E+03  0.49146335349E+03  0.00000000000E+00 0.  1.
         23    2    1    2    0    0  0.20603083195E+02  0.67319613972E+02 -0.92878530315E+01  0.10686298134E+03  0.79856215188E+02 0.  0.
        -24    2    1    2    0    0 -0.64761504917E+02 -0.40681074153E+02 -0.41679723850E+03  0.43118328236E+03  0.79687405881E+02 0.  0.
         11    1    4    4    0    0 -0.16043635580E+02 -0.23152156861E+02 -0.30835185685E+02  0.41763971149E+02  0.00000000000E+00 0. -1.
        -12    1    4    4    0    0 -0.48717869337E+02 -0.17528917292E+02 -0.38596205281E+03  0.38941931121E+03  0.00000000000E+00 0.  1.
        -11    1    3    3    0    0  0.20153972862E+02 -0.58199398036E+01  0.19134831218E+02  0.28393592361E+02  0.00000000000E+00 0. -1.
         11    1    3    3    0    0  0.44911033330E+00  0.73139553776E+02 -0.28422684250E+02  0.78469388978E+02  0.00000000000E+00 0.  1.
          4    1    1    2  501    0  0.44158421722E+02 -0.26638539819E+02  0.61353274902E+02  0.80148626650E+02  0.00000000000E+00 0. -1.
<scales pt_clust_5="13000.00000" pt_clust_6="13000.00000" pt_clust_7="13000.00000" pt_clust_8="13000.00000" pt_clust_9="51.57112"></scales>
<clustering>
<clus scale="   51.571">  2  9  1 -1</clus>
<clus scale="   79.687">  5  6 -1 -1</clus>
<clus scale="   79.856">  7  8 -1 -1</clus>
<clus scale="  105.509">  2  5  1 -1</clus>
<clus scale="   51.571">  2  5  1 -1</clus>
</clustering>
</event>
<event>
 9    1  0.9171696E-005  0.1164669E+03  0.7546771E-02  0.1257450E+00
          1   -1    0    0  502    0 -0.00000000000E+00  0.00000000000E+00  0.20129100266E+03  0.20129100266E+03  0.00000000000E+00 0. -1.
         21   -1    0    0  501  502  0.00000000000E+00 -0.00000000000E+00 -0.17014500981E+03  0.17014500981E+03  0.00000000000E+00 0. -1.
         23    2    1    2    0    0  0.19171491632E+02 -0.32462344306E+02 -0.82314895060E+02  0.12840176088E+03  0.91048999772E+02 0.  0.
        -24    2    1    2    0    0  0.61676449767E+02 -0.34058588030E+02  0.35769193322E+02  0.11266008439E+03  0.80304965902E+02 0.  0.
         13    1    4    4    0    0 -0.13648685960E+02 -0.21500969152E+02  0.24735380597E+02  0.35502357051E+02  0.00000000000E+00 0. -1.
        -14    1    4    4    0    0  0.75325135727E+02 -0.12557618878E+02  0.11033812724E+02  0.77157727334E+02  0.00000000000E+00 0.  1.
        -13    1    3    3    0    0  0.52579744308E+02 -0.75984104688E+01 -0.63247233721E+02  0.82598897853E+02  0.00000000000E+00 0. -1.
         13    1    3    3    0    0 -0.33408252675E+02 -0.24863933837E+02 -0.19067661339E+02  0.45802863029E+02  0.00000000000E+00 0.  1.
          2    1    1    2  501    0 -0.80847941399E+02  0.66520932335E+02  0.77691694590E+02  0.13037416721E+03  0.00000000000E+00 0. -1.
<scales pt_clust_5="13000.00000" pt_clust_6="13000.00000" pt_clust_7="13000.00000" pt_clust_8="13000.00000" pt_clust_9="84.35441"></scales>
<clustering>
<clus scale="   80.305">  5  6 -1 -1</clus>
<clus scale="   91.049">  7  8 -1 -1</clus>
<clus scale="   98.546">  1  7  2 -1</clus>
<clus scale="   84.354">  2  9  1 -1</clus>
<clus scale="   84.354">  2  5  1 -1</clus>
</clustering>
</event>
<event>
 9    1  0.9171696E-005  0.1429908E+03  0.7546771E-02  0.1211923E+00
         21   -1    0    0  501  502  0.00000000000E+00  0.00000000000E+00  0.29222209104E+02  0.29222209104E+02  0.00000000000E+00 0.  1.
          1   -1    0    0  502    0 -0.00000000000E+00 -0.00000000000E+00 -0.11721890352E+04  0.11721890352E+04  0.00000000000E+00 0. -1.
         23    2    1    2    0    0  0.10602711437E+03  0.33828709419E+02 -0.59743838642E+03  0.61513462608E+03  0.95246270645E+02 0.  0.
        -24    2    1    2    0    0 -0.10729301052E+03  0.39295806146E+02 -0.34876363794E+03  0.37635952871E+03  0.83393460252E+02 0.  0.
         13    1    4    4    0    0 -0.58363161470E+02 -0.20662296810E+02 -0.18812784164E+03  0.19805371475E+03  0.00000000000E+00 0. -1.
        -14    1    4    4    0    0 -0.48929849050E+02  0.59958102956E+02 -0.16063579630E+03  0.17830581396E+03  0.00000000000E+00 0.  1.
        -13    1    3    3    0    0  0.18831231668E+02 -0.30313204590E+02 -0.10366736734E+03  0.10963771573E+03  0.00000000000E+00 0.  1.
         13    1    3    3    0    0  0.87195882704E+02  0.64141914010E+02 -0.49377101907E+03  0.50549691035E+03  0.00000000000E+00 0. -1.
          2    1    1    2  501    0  0.12658961485E+01 -0.73124515566E+02 -0.19676480177E+03  0.20991708955E+03  0.00000000000E+00 0. -1.
<scales pt_clust_5="13000.00000" pt_clust_6="13000.00000" pt_clust_7="13000.00000" pt_clust_8="13000.00000" pt_clust_9="73.13547"></scales>
<clustering>
<clus scale="   73.135">  1  9  2 -1</clus>
<clus scale="   83.393">  5  6 -1 -1</clus>
<clus scale="   95.246">  7  8 -1 -1</clus>
<clus scale="  135.385">  1  5  2 -1</clus>
<clus scale="   73.135">  1  5  2 -1</clus>
</clustering>
</event>
<event>
 9    1  0.9668896E-005  0.1103783E+03  0.7546771E-02  0.1263647E+00
         21   -1    0    0  501  502  0.00000000000E+00  0.00000000000E+00  0.72836015081E+02  0.72836015081E+02  0.00000000000E+00 0. -1.
         -2   -1    0    0    0  501 -0.00000000000E+00 -0.00000000000E+00 -0.50090406468E+03  0.50090406468E+03  0.00000000000E+00 0.  1.
        -24    2    1    2    0    0 -0.66996316941E+02  0.12930727684E+02 -0.39880003729E+03  0.41288555635E+03  0.82324374848E+02 0.  0.
         23    2    1    2    0    0  0.85332715414E+01 -0.22823571520E+02 -0.89597567842E+00  0.95121970602E+02  0.91943756605E+02 0.  0.
         13    1    3    3    0    0 -0.31099352188E+02  0.14859886707E+02 -0.42240068062E+02  0.54517972168E+02  0.00000000000E+00 0. -1.
        -14    1    3    3    0    0 -0.35896964753E+02 -0.19291590239E+01 -0.35655996923E+03  0.35836758418E+03  0.00000000000E+00 0.  1.
        -11    1    4    4    0    0 -0.25488424580E+02 -0.37781703154E+02  0.22886495014E+02  0.50999103275E+02  0.00000000000E+00 0.  1.
         11    1    4    4    0    0  0.34021696121E+02  0.14958131634E+02 -0.23782470693E+02  0.44122867327E+02  0.00000000000E+00 0. -1.
         -1    1    1    2    0  502  0.58463045399E+02  0.98928438367E+01 -0.28372036627E+02  0.65732552810E+02  0.00000000000E+00 0.  1.
<scales pt_clust_5="13000.00000" pt_clust_6="13000.00000" pt_clust_7="13000.00000" pt_clust_8="13000.00000" pt_clust_9="59.29415"></scales>
<clustering>
<clus scale="   59.294">  1  9  2 -1</clus>
<clus scale="   82.324">  5  6 -1 -1</clus>
<clus scale="   91.944">  7  8 -1 -1</clus>
<clus scale="  102.504">  2  5  1 -1</clus>
<clus scale="   59.294">  1  5  2 -1</clus>
</clustering>
</event>
<event>
 9    1  0.9171696E-005  0.2136044E+03  0.7546771E-02  0.1138810E+00
          1   -1    0    0  502    0 -0.00000000000E+00  0.00000000000E+00  0.42217733849E+03  0.42217733849E+03  0.00000000000E+00 0. -1.
         21   -1    0    0  501  502  0.00000000000E+00 -0.00000000000E+00 -0.14363955717E+03  0.14363955717E+03  0.00000000000E+00 0. -1.
        -24    2    1    2    0    0 -0.16879663007E+03 -0.19982342730E+02  0.86214128528E+02  0.21128740507E+03  0.91202495794E+02 0.  0.
         23    2    1    2    0    0  0.21421045172E+03  0.50667581199E+02  0.12862559210E+03  0.27049710402E+03  0.90392582262E+02 0.  0.
         11    1    3    3    0    0 -0.75868132930E+02  0.12126137854E+02  0.82733884705E+02  0.11290665389E+03  0.00000000000E+00 0. -1.
        -12    1    3    3    0    0 -0.92928497139E+02 -0.32108480584E+02  0.34802438226E+01  0.98380751181E+02  0.00000000000E+00 0.  1.
        -13    1    4    4    0    0  0.19242090943E+03  0.21884313250E+02  0.13180138411E+03  0.23425698368E+03  0.00000000000E+00 0. -1.
         13    1    4    4    0    0  0.21789542292E+02  0.28783267949E+02 -0.31757920048E+01  0.36240120336E+02  0.00000000000E+00 0.  1.
          2    1    1    2  501    0 -0.45413821649E+02 -0.30685238468E+02  0.63698060700E+02  0.84032386575E+02  0.00000000000E+00 0. -1.
<scales pt_clust_5="13000.00000" pt_clust_6="13000.00000" pt_clust_7="13000.00000" pt_clust_8="13000.00000" pt_clust_9="54.80878"></scales>
<clustering>
<clus scale="   54.809">  2  9  1 -1</clus>
<clus scale="   90.393">  7  8 -1 -1</clus>
<clus scale="   91.202">  5  6 -1 -1</clus>
<clus scale="  213.260">  2  7  1 -1</clus>
<clus scale="   54.809">  2  5  1 -1</clus>
</clustering>
</event>
<event>
 9    1  0.9171696E-005  0.9103897E+02  0.7546771E-02  0.1305834E+00
          1   -1    0    0  502    0 -0.00000000000E+00  0.00000000000E+00  0.12282843572E+03  0.12282843572E+03  0.00000000000E+00 0. -1.
         21   -1    0    0  501  502  0.00000000000E+00 -0.00000000000E+00 -0.25805775107E+03  0.25805775107E+03  0.00000000000E+00 0.  1.
        -24    2    1    2    0    0 -0.17542797283E+02  0.17707419170E+01  0.88086701834E+02  0.12075698155E+03  0.80697560621E+02 0.  0.
         23    2    1    2    0    0  0.13353366417E-01  0.20132910633E+02 -0.20976826864E+03  0.22897486542E+03  0.89562426243E+02 0.  0.
         13    1    3    3    0    0  0.20870929576E+00 -0.26937074618E+02  0.82191335874E+02  0.86493151413E+02  0.00000000000E+00 0. -1.
        -14    1    3    3    0    0 -0.17751506579E+02  0.28707816535E+02  0.58953659597E+01  0.34263830139E+02  0.00000000000E+00 0.  1.
        -13    1    4    4    0    0  0.76858146407E+01  0.46111653299E+02 -0.18939886215E+03  0.19508276525E+03  0.00000000000E+00 0.  1.
         13    1    4    4    0    0 -0.76724612743E+01 -0.25978742666E+02 -0.20369406498E+02  0.33892100165E+02  0.00000000000E+00 0. -1.
          2    1    1    2  501    0  0.17529443916E+02 -0.21903652550E+02 -0.13547748547E+02  0.31154339822E+02  0.00000000000E+00 0. -1.
<scales pt_clust_5="13000.00000" pt_clust_6="13000.00000" pt_clust_7="13000.00000" pt_clust_8="13000.00000" pt_clust_9="28.05444"></scales>
<clustering>
<clus scale="   28.054">  2  9  1 -1</clus>
<clus scale="   80.698">  5  6 -1 -1</clus>
<clus scale="   82.333">  1  5  2 -1</clus>
<clus scale="   89.562">  7  8 -1 -1</clus>
<clus scale="   28.054">  2  5  1 -1</clus>
</clustering>
</event>
<event>
 9    1  0.9171696E-005  0.1084503E+03  0.7546771E-02  0.1272402E+00
          1   -1    0    0  502    0 -0.00000000000E+00  0.00000000000E+00  0.53504136728E+03  0.53504136728E+03  0.00000000000E+00 0. -1.
         21   -1    0    0  501  502  0.00000000000E+00 -0.00000000000E+00 -0.29505282130E+02  0.29505282130E+02  0.00000000000E+00 0. -1.
         23    2    1    2    0    0  0.10221805432E+01  0.41290938936E+02  0.26922237924E+03  0.28993609151E+03  0.99379380070E+02 0.  0.
        -24    2    1    2    0    0  0.29704490229E+02 -0.40344004500E+02  0.22076480256E+03  0.24016069031E+03  0.80187677877E+02 0.  0.
         13    1    4    4    0    0  0.19140388366E+02 -0.63322151423E+02  0.12897159288E+03  0.14494730456E+03  0.00000000000E+00 0. -1.
        -14    1    4    4    0    0  0.10564101863E+02  0.22978146924E+02  0.91793209673E+02  0.95213385752E+02  0.00000000000E+00 0.  1.
        -11    1    3    3    0    0  0.33630170206E+02  0.52976802317E+02  0.22598252348E+03  0.23453279270E+03  0.00000000000E+00 0. -1.
         11    1    3    3    0    0 -0.32607989662E+02 -0.11685863382E+02  0.43239855758E+02  0.55403298808E+02  0.00000000000E+00 0.  1.
          2    1    1    2  501    0 -0.30726670772E+02 -0.94693443591E+00  0.15548903350E+02  0.34449867590E+02  0.00000000000E+00 0. -1.
<scales pt_clust_5="13000.00000" pt_clust_6="13000.00000" pt_clust_7="13000.00000" pt_clust_8="13000.00000" pt_clust_9="30.74126"></scales>
<clustering>
<clus scale="   30.741">  2  9  1 -1</clus>
<clus scale="   80.188">  5  6 -1 -1</clus>
<clus scale="   91.188">  2  5  1 -1</clus>
<clus scale="   99.379">  7  8 -1 -1</clus>
<clus scale="   30.741">  2  5  1 -1</clus>
</clustering>
</event>
<event>
 9    1  0.1343288E-004  0.4004102E+03  0.7546771E-02  0.1044029E+00
          1   -1    0    0  502    0 -0.00000000000E+00  0.00000000000E+00  0.17032783252E+04  0.17032783252E+04  0.00000000000E+00 0. -1.
         21   -1    0    0  501  502  0.00000000000E+00 -0.00000000000E+00 -0.18405906435E+03  0.18405906435E+03  0.00000000000E+00 0. -1.
        -24    2    1    2    0    0 -0.18998740498E+03 -0.32435612249E+03  0.88676609367E+03  0.96650558160E+03  0.80478730951E+02 0.  0.
         23    2    1    2    0    0  0.22707083585E+03  0.36485449581E+03  0.19929137792E+03  0.48420332198E+03  0.10027879187E+03 0.  0.
         11    1    3    3    0    0 -0.93337516002E+02 -0.22769170706E+03  0.61183628840E+03  0.65946876284E+03  0.00000000000E+00 0. -1.
        -12    1    3    3    0    0 -0.96649888977E+02 -0.96664415433E+02  0.27492980527E+03  0.30703681877E+03  0.00000000000E+00 0.  1.
        -13    1    4    4    0    0  0.29365543096E+02  0.30183370002E+02 -0.92119549654E+01  0.43107204274E+02  0.00000000000E+00 0.  1.
         13    1    4    4    0    0  0.19770529275E+03  0.33467112581E+03  0.20850333289E+03  0.44109611771E+03  0.00000000000E+00 0. -1.
          2    1    1    2  501    0 -0.37083430872E+02 -0.40498373319E+02  0.43316178924E+03  0.43662848595E+03  0.00000000000E+00 0. -1.
<scales pt_clust_5="13000.00000" pt_clust_6="13000.00000" pt_clust_7="13000.00000" pt_clust_8="13000.00000" pt_clust_9="54.91177"></scales>
<clustering>
<clus scale="   54.912">  2  9  1 -1</clus>
<clus scale="   80.479">  5  6 -1 -1</clus>
<clus scale="  100.279">  7  8 -1 -1</clus>
<clus scale="  395.916">  1  5  2 -1</clus>
<clus scale="   54.912">  2  5  1 -1</clus>
</clustering>
</event>
<event>
 9    1  0.9171696E-005  0.9756373E+02  0.7546771E-02  0.1297785E+00
         -2   -1    0    0    0  501 -0.00000000000E+00  0.00000000000E+00  0.89396467738E+02  0.89396467738E+02  0.00000000000E+00 0.  1.
         21   -1    0    0  501  502  0.00000000000E+00 -0.00000000000E+00 -0.22706920138E+03  0.22706920138E+03  0.00000000000E+00 0.  1.
         23    2    1    2    0    0 -0.18392547216E+01  0.34278936130E+02  0.11985494167E+02  0.96956930230E+02  0.89880842949E+02 0.  0.
        -24    2    1    2    0    0  0.60988629505E+02 -0.34614874946E+02 -0.11585571239E+03  0.15138112745E+03  0.67645377937E+02 0.  0.
         11    1    4    4    0    0  0.52068758781E+02  0.34857707871E+01 -0.39038290357E+02  0.65171269383E+02  0.00000000000E+00 0. -1.
        -12    1    4    4    0    0  0.89198707239E+01 -0.38100645733E+02 -0.76817422036E+02  0.86209858063E+02  0.00000000000E+00 0.  1.
        -11    1    3    3    0    0  0.39883088558E+02  0.28459979512E+02 -0.91226411856E+01  0.49838276144E+02  0.00000000000E+00 0. -1.
         11    1    3    3    0    0 -0.41722343280E+02  0.58189566178E+01  0.21108135352E+02  0.47118654087E+02  0.00000000000E+00 0.  1.
         -1    1    1    2    0  502 -0.59149374783E+02  0.33593881625E+00 -0.33802515412E+02  0.68127611438E+02  0.00000000000E+00 0.  1.
<scales pt_clust_5="13000.00000" pt_clust_6="13000.00000" pt_clust_7="13000.00000" pt_clust_8="13000.00000" pt_clust_9="59.15033"></scales>
<clustering>
<clus scale="   59.150">  2  9  1 -1</clus>
<clus scale="   67.645">  5  6 -1 -1</clus>
<clus scale="   77.563">  2  5  1 -1</clus>
<clus scale="   89.881">  7  8 -1 -1</clus>
<clus scale="   59.150">  2  5  1 -1</clus>
</clustering>
</event>
<event>
 9    1  0.9171696E-005  0.2504884E+03  0.7546771E-02  0.1113632E+00
          1   -1    0    0  502    0 -0.00000000000E+00  0.00000000000E+00  0.12415054471E+04  0.12415054471E+04  0.00000000000E+00 0. -1.
         21   -1    0    0  501  502  0.00000000000E+00 -0.00000000000E+00 -0.29946082317E+03  0.29946082317E+03  0.00000000000E+00 0. -1.
         23    2    1    2    0    0  0.22397764839E+03 -0.17831324819E+02  0.80594981452E+03  0.84169531516E+03  0.91716721019E+02 0.  0.
        -24    2    1    2    0    0 -0.27662040037E+03 -0.21601877818E+03  0.24553208884E+03  0.43576830214E+03  0.80156397612E+02 0.  0.
         11    1    4    4    0    0 -0.27524273439E+03 -0.21113761199E+03  0.25109805098E+03  0.42823811745E+03  0.00000000000E+00 0. -1.
        -12    1    4    4    0    0 -0.13776659792E+01 -0.48811661869E+01 -0.55659621446E+01  0.75301846915E+01  0.00000000000E+00 0.  1.
        -11    1    3    3    0    0  0.16263523853E+03  0.22697306218E+02  0.47204005010E+03  0.49978715211E+03  0.00000000000E+00 0.  1.
         11    1    3    3    0    0  0.61342409856E+02 -0.40528631037E+02  0.33390976443E+03  0.34190816305E+03  0.00000000000E+00 0. -1.
          2    1    1    2  501    0  0.52642751983E+02  0.23385010300E+03 -0.10943727941E+03  0.26350265299E+03  0.00000000000E+00 0. -1.
<scales pt_clust_5="13000.00000" pt_clust_6="13000.00000" pt_clust_7="13000.00000" pt_clust_8="13000.00000" pt_clust_9="239.70217"></scales>
<clustering>
<clus scale="   80.156">  5  6 -1 -1</clus>
<clus scale="   91.717">  7  8 -1 -1</clus>
<clus scale="  239.702">  2  9  1 -1</clus>
<clus scale="  246.490">  2  5  1 -1</clus>
<clus scale="  239.702">  2  5  1 -1</clus>
</clustering>
</event>
<event>
 9    1  0.9171696E-005  0.1211219E+03  0.7546771E-02  0.1246012E+00
          1   -1    0    0  502    0 -0.00000000000E+00  0.00000000000E+00  0.22738209382E+03  0.22738209382E+03  0.00000000000E+00 0. -1.
         21   -1    0    0  501  502  0.00000000000E+00 -0.00000000000E+00 -0.84719827513E+02  0.84719827513E+02  0.00000000000E+00 0.  1.
         23    2    1    2    0    0  0.56159213205E+02  0.74081272557E+02  0.11391044821E+03  0.17363984522E+03  0.92375935524E+02 0.  0.
        -24    2    1    2    0    0 -0.24274976600E+02 -0.55750606258E+02  0.25245481415E+02  0.10151735704E+03  0.77272471565E+02 0.  0.
         11    1    4    4    0    0 -0.20169109251E+02 -0.75464326312E+02  0.21695834790E+02  0.81070134828E+02  0.00000000000E+00 0. -1.
        -12    1    4    4    0    0 -0.41058673484E+01  0.19713720055E+02  0.35496466246E+01  0.20447222213E+02  0.00000000000E+00 0.  1.
        -11    1    3    3    0    0 -0.67051236089E+01  0.49889319805E+02  0.12448378709E+02  0.51854267382E+02  0.00000000000E+00 0. -1.
         11    1    3    3    0    0  0.62864336814E+02  0.24191952752E+02  0.10146206950E+03  0.12178557783E+03  0.00000000000E+00 0.  1.
          2    1    1    2  501    0 -0.31884236605E+02 -0.18330666299E+02  0.35063366846E+01  0.36944719079E+02  0.00000000000E+00 0. -1.
<scales pt_clust_5="13000.00000" pt_clust_6="13000.00000" pt_clust_7="13000.00000" pt_clust_8="13000.00000" pt_clust_9="36.77795"></scales>
<clustering>
<clus scale="   36.778">  2  9  1 -1</clus>
<clus scale="   77.272">  5  6 -1 -1</clus>
<clus scale="   92.376">  7  8 -1 -1</clus>
<clus scale="  110.037">  2  5  1 -1</clus>
<clus scale="   36.778">  2  5  1 -1</clus>
</clustering>
</event>
<event>
 9    1  0.9171696E-005  0.1498716E+03  0.7546771E-02  0.1203868E+00
         -4   -1    0    0    0  501 -0.00000000000E+00  0.00000000000E+00  0.37430657571E+03  0.37430657571E+03  0.00000000000E+00 0.  1.
         21   -1    0    0  501  502  0.00000000000E+00 -0.00000000000E+00 -0.13851757745E+03  0.13851757745E+03  0.00000000000E+00 0. -1.
        -24    2    1    2    0    0 -0.11433260258E+02 -0.12423414630E+03  0.17544165488E+03  0.22837839240E+03  0.76236954955E+02 0.  0.
         23    2    1    2    0    0 -0.32418256556E+02  0.88421194751E+02 -0.64342950029E+02  0.14750346526E+03  0.93530775711E+02 0.  0.
         13    1    3    3    0    0 -0.36126872583E+02 -0.92522474484E+02  0.15280624875E+03  0.18225067590E+03  0.00000000000E+00 0. -1.
        -14    1    3    3    0    0  0.24693612325E+02 -0.31711671814E+02  0.22635406123E+02  0.46127716497E+02  0.00000000000E+00 0.  1.
        -13    1    4    4    0    0  0.28637214084E+01  0.65106526933E+02 -0.79303743302E+02  0.10264572301E+03  0.00000000000E+00 0.  1.
         13    1    4    4    0    0 -0.35281977964E+02  0.23314667818E+02  0.14960793273E+02  0.44857742252E+02  0.00000000000E+00 0. -1.
         -3    1    1    2    0  502  0.43851516814E+02  0.35812951547E+02  0.12469029341E+03  0.13694229550E+03  0.00000000000E+00 0.  1.
<scales pt_clust_5="13000.00000" pt_clust_6="13000.00000" pt_clust_7="13000.00000" pt_clust_8="13000.00000" pt_clust_9="56.61737"></scales>
<clustering>
<clus scale="   56.617">  2  9  1 -1</clus>
<clus scale="   76.237">  5  6 -1 -1</clus>
<clus scale="   93.531">  7  8 -1 -1</clus>
<clus scale="  139.734">  1  5  2 -1</clus>
<clus scale="   56.617">  2  5  1 -1</clus>
</clustering>
</event>
<event>
 9    1  0.9171696E-005  0.1280862E+03  0.7546771E-02  0.1232103E+00
          1   -1    0    0  502    0 -0.00000000000E+00  0.00000000000E+00  0.77088798691E+03  0.77088798691E+03  0.00000000000E+00 0. -1.
         21   -1    0    0  501  502  0.00000000000E+00 -0.00000000000E+00 -0.32636942081E+02  0.32636942081E+02  0.00000000000E+00 0. -1.
        -24    2    1    2    0    0 -0.75227932540E+02 -0.71970822163E+02  0.34009489231E+03  0.36490570536E+03  0.81563453511E+02 0.  0.
         23    2    1    2    0    0  0.22402048135E+02  0.82305430283E+02  0.21390722418E+03  0.24666858993E+03  0.88391498938E+02 0.  0.
         11    1    3    3    0    0 -0.54383050196E+02 -0.54543889623E+02  0.11645901209E+03  0.13962540435E+03  0.00000000000E+00 0. -1.
        -12    1    3    3    0    0 -0.20844882345E+02 -0.17426932540E+02  0.22363588023E+03  0.22528030101E+03  0.00000000000E+00 0.  1.
        -13    1    4    4    0    0  0.29412525347E+01  0.68269729000E+02  0.21183661913E+03  0.22258517486E+03  0.00000000000E+00 0.  1.
         13    1    4    4    0    0  0.19460795601E+02  0.14035701283E+02  0.20706050532E+01  0.24083415065E+02  0.00000000000E+00 0. -1.
          2    1    1    2  501    0  0.52825884405E+02 -0.10334608120E+02  0.18424892834E+03  0.19195063371E+03  0.00000000000E+00 0. -1.
<scales pt_clust_5="13000.00000" pt_clust_6="13000.00000" pt_clust_7="13000.00000" pt_clust_8="13000.00000" pt_clust_9="53.82733"></scales>
<clustering>
<clus scale="   53.827">  2  9  1 -1</clus>
<clus scale="   81.563">  5  6 -1 -1</clus>
<clus scale="   88.391">  7  8 -1 -1</clus>
<clus scale="  123.473">  1  5  2 -1</clus>
<clus scale="   53.827">  2  5  1 -1</clus>
</clustering>
</event>
<event>
 9    1  0.9171696E-005  0.9652897E+02  0.7546771E-02  0.1293206E+00
          1   -1    0    0  502    0 -0.00000000000E+00  0.00000000000E+00  0.50834642155E+03  0.50834642155E+03  0.00000000000E+00 0. -1.
         21   -1    0    0  501  502  0.00000000000E+00 -0.00000000000E+00 -0.32601297730E+02  0.32601297730E+02  0.00000000000E+00 0.  1.
        -24    2    1    2    0    0 -0.30537912674E+02 -0.11951338861E+02  0.32872644922E+03  0.33979342946E+03  0.79517907903E+02 0.  0.
         23    2    1    2    0    0  0.29183582125E+02  0.42597968222E+02  0.12974740974E+03  0.16594993366E+03  0.89658919173E+02 0.  0.
         13    1    3    3    0    0 -0.57791379546E+02 -0.62271650349E+01  0.21731452245E+03  0.22495382371E+03  0.00000000000E+00 0. -1.
        -14    1    3    3    0    0  0.27253466871E+02 -0.57241738263E+01  0.11141192677E+03  0.11483960575E+03  0.00000000000E+00 0.  1.
        -13    1    4    4    0    0  0.74017283622E+01 -0.25145106388E+02  0.13080538071E+02  0.29294409607E+02  0.00000000000E+00 0. -1.
         13    1    4    4    0    0  0.21781853763E+02  0.67743074610E+02  0.11666687167E+03  0.13665552406E+03  0.00000000000E+00 0.  1.
          2    1    1    2  501    0  0.13543305494E+01 -0.30646629361E+02  0.17271264866E+02  0.35204356158E+02  0.00000000000E+00 0. -1.
<scales pt_clust_5="13000.00000" pt_clust_6="13000.00000" pt_clust_7="13000.00000" pt_clust_8="13000.00000" pt_clust_9="30.67654"></scales>
<clustering>
<clus scale="   30.677">  2  9  1 -1</clus>
<clus scale="   79.518">  5  6 -1 -1</clus>
<clus scale="   87.191">  1  5  2 -1</clus>
<clus scale="   89.659">  7  8 -1 -1</clus>
<clus scale="   30.677">  2  5  1 -1</clus>
</clustering>
</event>
<event>
 9    1  0.9171696E-005  0.1292996E+03  0.7546771E-02  0.1231650E+00
          1   -1    0    0  502    0 -0.00000000000E+00  0.00000000000E+00  0.21838354375E+03  0.21838354375E+03  0.00000000000E+00 0. -1.
         21   -1    0    0  501  502  0.00000000000E+00 -0.00000000000E+00 -0.14351008930E+03  0.14351008930E+03  0.00000000000E+00 0. -1.
        -24    2    1    2    0    0  0.45454871865E+00  0.97121965564E+02  0.11696114319E+03  0.17226243391E+03  0.81003421584E+02 0.  0.
         23    2    1    2    0    0 -0.49084249203E+02 -0.64365334084E+02 -0.44633225965E+02  0.13094283203E+03  0.92745569422E+02 0.  0.
         11    1    3    3    0    0 -0.15544900531E+01  0.10196935767E+03  0.66988044135E+02  0.12201460732E+03  0.00000000000E+00 0. -1.
        -12    1    3    3    0    0  0.20090387718E+01 -0.48473921035E+01  0.49973099059E+02  0.50247826585E+02  0.00000000000E+00 0.  1.
        -13    1    4    4    0    0 -0.71261024374E+02 -0.41498042809E+02 -0.86973087319E+01  0.82920831707E+02  0.00000000000E+00 0. -1.
         13    1    4    4    0    0  0.22176775171E+02 -0.22867291275E+02 -0.35935917233E+02  0.48022000319E+02  0.00000000000E+00 0.  1.
          2    1    1    2  501    0  0.48629700485E+02 -0.32756631480E+02  0.25455372166E+01  0.58688367117E+02  0.00000000000E+00 0. -1.
<scales pt_clust_5="13000.00000" pt_clust_6="13000.00000" pt_clust_7="13000.00000" pt_clust_8="13000.00000" pt_clust_9="58.63314"></scales>
<clustering>
<clus scale="   58.633">  2  9  1 -1</clus>
<clus scale="   81.003">  5  6 -1 -1</clus>
<clus scale="   92.746">  7  8 -1 -1</clus>
<clus scale="  121.154">  1  5  2 -1</clus>
<clus scale="   58.633">  2  5  1 -1</clus>
</clustering>
</event>
<event>
 9    1  0.9171696E-005  0.2168731E+03  0.7546771E-02  0.1147867E+00
         21   -1    0    0  501  502  0.00000000000E+00  0.00000000000E+00  0.48046952557E+02  0.48046952557E+02  0.00000000000E+00 0.  1.
          1   -1    0    0  502    0 -0.00000000000E+00 -0.00000000000E+00 -0.27402159519E+04  0.27402159519E+04  0.00000000000E+00 0. -1.
        -24    2    1    2    0    0  0.91338803928E+02 -0.10590143781E+03 -0.38588477718E+03  0.41928263603E+03  0.85632797330E+02 0.  0.
         23    2    1    2    0    0  0.14326938522E+03  0.13376757092E+03 -0.46607438912E+03  0.51366634529E+03  0.90597452051E+02 0.  0.
         13    1    3    3    0    0  0.19272605040E+02 -0.86064185407E+02 -0.23218302715E+03  0.24836955412E+03  0.00000000000E+00 0. -1.
        -14    1    3    3    0    0  0.72066198888E+02 -0.19837252399E+02 -0.15370175003E+03  0.17091308191E+03  0.00000000000E+00 0.  1.
        -13    1    4    4    0    0  0.83490676985E+01  0.61887502626E+02 -0.15329235498E+03  0.16552436681E+03  0.00000000000E+00 0. -1.
         13    1    4    4    0    0  0.13492031752E+03  0.71880068290E+02 -0.31278203414E+03  0.34814197848E+03  0.00000000000E+00 0.  1.
          2    1    1    2  501    0 -0.23460818915E+03 -0.27866133110E+02 -0.18402098331E+04  0.18553139232E+04  0.00000000000E+00 0. -1.
<scales pt_clust_5="13000.00000" pt_clust_6="13000.00000" pt_clust_7="13000.00000" pt_clust_8="13000.00000" pt_clust_9="197.04340"></scales>
<clustering>
<clus scale="   85.633">  5  6 -1 -1</clus>
<clus scale="   90.597">  7  8 -1 -1</clus>
<clus scale="  163.984">  2  5  1 -1</clus>
<clus scale="  197.043">  1  9  2 -1</clus>
<clus scale="  197.043">  1  5  2 -1</clus>
</clustering>
</event>
<event>
 9    1  0.9171696E-005  0.1001624E+03  0.7546771E-02  0.1286493E+00
         21   -1    0    0  501  502  0.00000000000E+00  0.00000000000E+00  0.51974654056E+02  0.51974654056E+02  0.00000000000E+00 0. -1.
          1   -1    0    0  502    0 -0.00000000000E+00 -0.00000000000E+00 -0.54061720731E+03  0.54061720731E+03  0.00000000000E+00 0. -1.
        -24    2    1    2    0    0 -0.41837687271E+02 -0.19569647194E+01 -0.40448609519E+03  0.41400595659E+03  0.77702696856E+02 0.  0.
         23    2    1    2    0    0  0.43517342530E+02  0.36826059576E+02 -0.25255271497E+02  0.11011675262E+03  0.90763168221E+02 0.  0.
         13    1    3    3    0    0  0.57316003354E+01  0.20677658146E+02 -0.37068161960E+02  0.42830659811E+02  0.00000000000E+00 0. -1.
        -14    1    3    3    0    0 -0.47569287606E+02 -0.22634622865E+02 -0.36741793324E+03  0.37117529678E+03  0.00000000000E+00 0.  1.
        -11    1    4    4    0    0  0.63738808600E+02  0.56044426421E+01 -0.33191716005E+02  0.72081450530E+02  0.00000000000E+00 0. -1.
         11    1    4    4    0    0 -0.20221466070E+02  0.31221616934E+02  0.79364445085E+01  0.38035302095E+02  0.00000000000E+00 0.  1.
          2    1    1    2  501    0 -0.16796552595E+01 -0.34869094857E+02 -0.58901186560E+02  0.68469152150E+02  0.00000000000E+00 0. -1.
<scales pt_clust_5="13000.00000" pt_clust_6="13000.00000" pt_clust_7="13000.00000" pt_clust_8="13000.00000" pt_clust_9="34.90954"></scales>
<clustering>
<clus scale="   34.910">  1  9  2 -1</clus>
<clus scale="   77.703">  5  6 -1 -1</clus>
<clus scale="   88.500">  2  5  1 -1</clus>
<clus scale="   90.763">  7  8 -1 -1</clus>
<clus scale="   34.910">  1  5  2 -1</clus>
</clustering>
</event>
<event>
 9    1  0.9171696E-005  0.1087638E+03  0.7546771E-02  0.1267544E+00
         -2   -1    0    0    0  501 -0.00000000000E+00  0.00000000000E+00  0.11490211283E+03  0.11490211283E+03  0.00000000000E+00 0.  1.
         21   -1    0    0  501  502  0.00000000000E+00 -0.00000000000E+00 -0.23618524938E+03  0.23618524938E+03  0.00000000000E+00 0. -1.
        -24    2    1    2    0    0 -0.26885044250E+02 -0.63109724853E+02 -0.21295689697E+02  0.10764889324E+03  0.80181885993E+02 0.  0.
         23    2    1    2    0    0  0.68371511270E+02 -0.13611632542E+01 -0.11839599750E+03  0.16459370316E+03  0.91634920077E+02 0.  0.
         13    1    3    3    0    0  0.26834929394E+02 -0.23365868086E+02  0.48125327726E+01  0.35905956312E+02  0.00000000000E+00 0. -1.
        -14    1    3    3    0    0 -0.53719973644E+02 -0.39743856767E+02 -0.26108222469E+02  0.71742936931E+02  0.00000000000E+00 0.  1.
        -11    1    4    4    0    0  0.69331502708E+01 -0.40601372633E+02 -0.48039743318E+02  0.63279988704E+02  0.00000000000E+00 0.  1.
         11    1    4    4    0    0  0.61438360999E+02  0.39240209379E+02 -0.70356254178E+02  0.10131371445E+03  0.00000000000E+00 0. -1.
         -1    1    1    2    0  502 -0.41486467019E+02  0.64470888107E+02  0.18408550643E+02  0.78844765811E+02  0.00000000000E+00 0.  1.
<scales pt_clust_5="13000.00000" pt_clust_6="13000.00000" pt_clust_7="13000.00000" pt_clust_8="13000.00000" pt_clust_9="76.66569"></scales>
<clustering>
<clus scale="   76.666">  2  9  1 -1</clus>
<clus scale="   80.182">  5  6 -1 -1</clus>
<clus scale="   91.635">  7  8 -1 -1</clus>
<clus scale="   99.306">  1  5  2 -1</clus>
<clus scale="   76.666">  2  5  1 -1</clus>
</clustering>
</event>
<event>
 9    1  0.9171696E-005  0.1138846E+03  0.7546771E-02  0.1256853E+00
          1   -1    0    0  502    0 -0.00000000000E+00  0.00000000000E+00  0.45595612387E+03  0.45595612387E+03  0.00000000000E+00 0. -1.
         21   -1    0    0  501  502  0.00000000000E+00 -0.00000000000E+00 -0.43485419764E+02  0.43485419764E+02  0.00000000000E+00 0. -1.
         23    2    1    2    0    0  0.19571584770E+02 -0.81627570705E+02  0.27564011730E+03  0.30187058526E+03  0.90012603275E+02 0.  0.
        -24    2    1    2    0    0  0.12977138673E+02  0.52279373961E+02  0.10772281366E+03  0.14495918681E+03  0.80668594808E+02 0.  0.
         13    1    4    4    0    0  0.18435596351E+02  0.47776150098E+02  0.16995401871E+02  0.53956236116E+02  0.00000000000E+00 0. -1.
        -14    1    4    4    0    0 -0.54584576783E+01  0.45032238630E+01  0.90727411787E+02  0.91002950694E+02  0.00000000000E+00 0.  1.
        -13    1    3    3    0    0 -0.13605275539E+02 -0.86403002969E+02  0.17229490769E+03  0.19322556161E+03  0.00000000000E+00 0. -1.
         13    1    3    3    0    0  0.33176860309E+02  0.47754322639E+01  0.10334520961E+03  0.10864502365E+03  0.00000000000E+00 0.  1.
          2    1    1    2  501    0 -0.32548723443E+02  0.29348196744E+02  0.29107773150E+02  0.52611771569E+02  0.00000000000E+00 0. -1.
<scales pt_clust_5="13000.00000" pt_clust_6="13000.00000" pt_clust_7="13000.00000" pt_clust_8="13000.00000" pt_clust_9="43.82620"></scales>
<clustering>
<clus scale="   43.826">  2  9  1 -1</clus>
<clus scale="   80.669">  5  6 -1 -1</clus>
<clus scale="   90.013">  7  8 -1 -1</clus>
<clus scale="  106.653">  2  5  1 -1</clus>
<clus scale="   43.826">  2  5  1 -1</clus>
</clustering>
</event>
<event>
 9    1  0.9171696E-005  0.1119879E+03  0.7546771E-02  0.1260780E+00
         21   -1    0    0  501  502  0.00000000000E+00  0.00000000000E+00  0.24343534824E+03  0.24343534824E+03  0.00000000000E+00 0.  1.
         -2   -1    0    0    0  501 -0.00000000000E+00 -0.00000000000E+00 -0.28519465743E+03  0.28519465743E+03  0.00000000000E+00 0.  1.
        -24    2    1    2    0    0 -0.47062292257E+02 -0.41210324037E+02 -0.21556438055E+03  0.23842490788E+03  0.80406992070E+02 0.  0.
         23    2    1    2    0    0  0.32755955110E+02  0.94538106180E+02  0.33092920128E+02  0.13904811603E+03  0.90712904774E+02 0.  0.
         13    1    3    3    0    0 -0.65423765203E+02 -0.12518506992E+02 -0.12452433763E+03  0.14122072346E+03  0.00000000000E+00 0. -1.
        -14    1    3    3    0    0  0.18361472947E+02 -0.28691817045E+02 -0.91040042920E+02  0.97204184422E+02  0.00000000000E+00 0.  1.
        -11    1    4    4    0    0 -0.22440713866E+02  0.38629351700E+02  0.40283711373E+02  0.60154715971E+02  0.00000000000E+00 0. -1.
         11    1    4    4    0    0  0.55196668976E+02  0.55908754480E+02 -0.71907912451E+01  0.78893400055E+02  0.00000000000E+00 0.  1.
         -1    1    1    2    0  502  0.14306337147E+02 -0.53327782143E+02  0.14071215124E+03  0.15115698177E+03  0.00000000000E+00 0.  1.
<scales pt_clust_5="13000.00000" pt_clust_6="13000.00000" pt_clust_7="13000.00000" pt_clust_8="13000.00000" pt_clust_9="55.21344"></scales>
<clustering>
<clus scale="   55.213">  1  9  2 -1</clus>
<clus scale="   80.407">  5  6 -1 -1</clus>
<clus scale="   90.713">  7  8 -1 -1</clus>
<clus scale="  103.816">  2  5  1 -1</clus>
<clus scale="   55.213">  1  5  2 -1</clus>
</clustering>
</event>
<event>
 9    1  0.9171696E-005  0.1396659E+03  0.7546771E-02  0.1226864E+00
          3   -1    0    0  502    0 -0.00000000000E+00  0.00000000000E+00  0.56147959807E+03  0.56147959807E+03  0.00000000000E+00 0. -1.
         21   -1    0    0  501  502  0.00000000000E+00 -0.00000000000E+00 -0.69846397222E+02  0.69846397222E+02  0.00000000000E+00 0. -1.
        -24    2    1    2    0    0 -0.32356893232E+02 -0.60223217933E+02  0.19317085069E+03  0.22040505114E+03  0.81176378914E+02 0.  0.
         23    2    1    2    0    0 -0.65436112092E+02 -0.15142185645E+02  0.25859484733E+03  0.28117953315E+03  0.87632552435E+02 0.  0.
         11    1    3    3    0    0 -0.44757935592E+02 -0.54100746902E+02  0.19423247956E+03  0.20653430642E+03  0.00000000000E+00 0. -1.
        -12    1    3    3    0    0  0.12401042360E+02 -0.61224710315E+01 -0.10616288692E+01  0.13870744717E+02  0.00000000000E+00 0.  1.
        -11    1    4    4    0    0 -0.23868762220E+02 -0.20741080893E+02  0.16864527461E+02  0.35837445960E+02  0.00000000000E+00 0. -1.
         11    1    4    4    0    0 -0.41567349872E+02  0.55988952481E+01  0.24173031987E+03  0.24534208719E+03  0.00000000000E+00 0.  1.
          4    1    1    2  501    0  0.97793005324E+02  0.75365403578E+02  0.39867502829E+02  0.12974141100E+03  0.00000000000E+00 0. -1.
<scales pt_clust_5="13000.00000" pt_clust_6="13000.00000" pt_clust_7="13000.00000" pt_clust_8="13000.00000" pt_clust_9="108.75252"></scales>
<clustering>
<clus scale="   81.176">  5  6 -1 -1</clus>
<clus scale="   87.633">  7  8 -1 -1</clus>
<clus scale="  106.129">  1  5  2 -1</clus>
<clus scale="  108.753">  2  9  1 -1</clus>
<clus scale="  108.753">  2  5  1 -1</clus>
</clustering>
</event>
<event>
 9    1  0.9171696E-005  0.1519102E+03  0.7546771E-02  0.1200382E+00
         21   -1    0    0  501  502  0.00000000000E+00  0.00000000000E+00  0.48052183887E+02  0.48052183887E+02  0.00000000000E+00 0. -1.
          1   -1    0    0  502    0 -0.00000000000E+00 -0.00000000000E+00 -0.85538337150E+03  0.85538337150E+03  0.00000000000E+00 0. -1.
        -24    2    1    2    0    0 -0.70885212836E+02 -0.13299244706E+03 -0.51944790228E+03  0.54679127013E+03  0.80267462482E+02 0.  0.
         23    2    1    2    0    0  0.26600559119E+02  0.83135448389E+02 -0.24848965988E+03  0.27919295475E+03  0.92641796121E+02 0.  0.
         11    1    3    3    0    0 -0.85044011584E+02 -0.12535880211E+03 -0.42985900100E+03  0.45576975976E+03  0.00000000000E+00 0. -1.
        -12    1    3    3    0    0  0.14158798748E+02 -0.76336449528E+01 -0.89588901277E+02  0.91021510366E+02  0.00000000000E+00 0.  1.
        -13    1    4    4    0    0  0.28397480066E+02  0.41391410900E+02 -0.33894925944E+02  0.60568405750E+02  0.00000000000E+00 0.  1.
         13    1    4    4    0    0 -0.17969209464E+01  0.41744037488E+02 -0.21459473394E+03  0.21862454900E+03  0.00000000000E+00 0. -1.
          2    1    1    2  501    0  0.44284653717E+02  0.49856998671E+02 -0.39393625450E+02  0.77451330507E+02  0.00000000000E+00 0. -1.
<scales pt_clust_5="13000.00000" pt_clust_6="13000.00000" pt_clust_7="13000.00000" pt_clust_8="13000.00000" pt_clust_9="66.68471"></scales>
<clustering>
<clus scale="   66.685">  1  9  2 -1</clus>
<clus scale="   80.267">  5  6 -1 -1</clus>
<clus scale="   92.642">  7  8 -1 -1</clus>
<clus scale="  144.697">  2  5  1 -1</clus>
<clus scale="   66.685">  1  5  2 -1</clus>
</clustering>
</event>
<event>
 9    1  0.9171696E-005  0.2523869E+03  0.7546771E-02  0.1146412E+00
          1   -1    0    0  502    0 -0.00000000000E+00  0.00000000000E+00  0.40183925898E+03  0.40183925898E+03  0.00000000000E+00 0. -1.
         21   -1    0    0  501  502  0.00000000000E+00 -0.00000000000E+00 -0.46324972015E+03  0.46324972015E+03  0.00000000000E+00 0. -1.
         23    2    1    2    0    0 -0.60078133673E+01 -0.57186602842E+02  0.79268795973E+02  0.13373774391E+03  0.91081506163E+02 0.  0.
        -24    2    1    2    0    0 -0.20165880228E+03  0.17134338135E+03  0.18235251032E+03  0.33071834075E+03  0.78085568597E+02 0.  0.
         11    1    4    4    0    0 -0.19544466098E+03  0.13342081909E+03  0.16540550460E+03  0.28871908739E+03  0.00000000000E+00 0. -1.
        -12    1    4    4    0    0 -0.62141412946E+01  0.37922562252E+02  0.16947005725E+02  0.41999253360E+02  0.00000000000E+00 0.  1.
        -11    1    3    3    0    0  0.63571112787E+01 -0.40697787139E+02 -0.97788398199E+01  0.42336136456E+02  0.00000000000E+00 0.  1.
         11    1    3    3    0    0 -0.12364924646E+02 -0.16488815703E+02  0.89047635792E+02  0.91401607453E+02  0.00000000000E+00 0. -1.
          2    1    1    2  501    0  0.20766661564E+03 -0.11415677850E+03 -0.32303176747E+03  0.40063289447E+03  0.00000000000E+00 0. -1.
<scales pt_clust_5="13000.00000" pt_clust_6="13000.00000" pt_clust_7="13000.00000" pt_clust_8="13000.00000" pt_clust_9="240.00369"></scales>
<clustering>
<clus scale="   78.086">  5  6 -1 -1</clus>
<clus scale="   91.082">  7  8 -1 -1</clus>
<clus scale="  107.714">  1  7  2 -1</clus>
<clus scale="  240.004">  2  9  1 -1</clus>
<clus scale="  240.004">  2  5  1 -1</clus>
</clustering>
</event>
<event>
 9    1  0.9171696E-005  0.1349066E+03  0.7546771E-02  0.1222540E+00
          1   -1    0    0  502    0 -0.00000000000E+00  0.00000000000E+00  0.11407303784E+04  0.11407303784E+04  0.00000000000E+00 0. -1.
         21   -1    0    0  501  502  0.00000000000E+00 -0.00000000000E+00 -0.35926715235E+02  0.35926715235E+02  0.00000000000E+00 0. -1.
        -24    2    1    2    0    0  0.10726230579E+03  0.32036640946E+02  0.68182473123E+03  0.69600059270E+03  0.83667869091E+02 0.  0.
         23    2    1    2    0    0 -0.78470598199E+02  0.55351349852E+02  0.28640037849E+03  0.31597704071E+03  0.92708719879E+02 0.  0.
         11    1    3    3    0    0  0.11341891269E+03  0.19127169658E+02  0.65972437582E+03  0.66967600407E+03  0.00000000000E+00 0. -1.
        -12    1    3    3    0    0 -0.61566068979E+01  0.12909471288E+02  0.22100355405E+02  0.26324588628E+02  0.00000000000E+00 0.  1.
        -11    1    4    4    0    0 -0.34357545607E+02  0.11947775622E+02  0.18096412131E+02  0.40628443417E+02  0.00000000000E+00 0.  1.
         11    1    4    4    0    0 -0.44113052592E+02  0.43403574230E+02  0.26830396636E+03  0.27534859729E+03  0.00000000000E+00 0. -1.
          2    1    1    2  501    0 -0.28791707589E+02 -0.87387990798E+02  0.13657855347E+03  0.16467946025E+03  0.00000000000E+00 0. -1.
<scales pt_clust_5="13000.00000" pt_clust_6="13000.00000" pt_clust_7="13000.00000" pt_clust_8="13000.00000" pt_clust_9="92.00882"></scales>
<clustering>
<clus scale="   83.668">  5  6 -1 -1</clus>
<clus scale="   92.009">  2  9  1 -1</clus>
<clus scale="   92.709">  7  8 -1 -1</clus>
<clus scale="  128.861">  1  5  2 -1</clus>
<clus scale="   92.009">  2  5  1 -1</clus>
</clustering>
</event>
<event>
 9    1  0.9171696E-005  0.1912882E+03  0.7546771E-02  0.1158395E+00
          1   -1    0    0  502    0 -0.00000000000E+00  0.00000000000E+00  0.27451740846E+03  0.27451740846E+03  0.00000000000E+00 0. -1.
         21   -1    0    0  501  502  0.00000000000E+00 -0.00000000000E+00 -0.35259255147E+03  0.35259255147E+03  0.00000000000E+00 0. -1.
        -24    2    1    2    0    0 -0.98892203619E+02 -0.85579998772E+02  0.48462601527E+02  0.16079792195E+03  0.80023395526E+02 0.  0.
         23    2    1    2    0    0  0.16705929687E+03  0.20527110276E+03 -0.73020530450E+00  0.27976378711E+03  0.90676397582E+02 0.  0.
         13    1    3    3    0    0 -0.89320267876E+02 -0.42895089154E+02  0.51222528913E+01  0.99218629307E+02  0.00000000000E+00 0. -1.
        -14    1    3    3    0    0 -0.95719357427E+01 -0.42684909618E+02  0.43340348636E+02  0.61579292647E+02  0.00000000000E+00 0.  1.
        -13    1    4    4    0    0  0.22323770386E+02  0.11461740997E+02  0.26321157791E+02  0.36366544768E+02  0.00000000000E+00 0.  1.
         13    1    4    4    0    0  0.14473552649E+03  0.19380936176E+03 -0.27051363095E+02  0.24339724234E+03  0.00000000000E+00 0. -1.
          2    1    1    2  501    0 -0.68167093253E+02 -0.11969110399E+03 -0.12580753923E+03  0.18654825087E+03  0.00000000000E+00 0. -1.
<scales pt_clust_5="13000.00000" pt_clust_6="13000.00000" pt_clust_7="13000.00000" pt_clust_8="13000.00000" pt_clust_9="137.74147"></scales>
<clustering>
<clus scale="   80.023">  5  6 -1 -1</clus>
<clus scale="   90.676">  7  8 -1 -1</clus>
<clus scale="  137.741">  2  9  1 -1</clus>
<clus scale="  186.474">  1  5  2 -1</clus>
<clus scale="  137.741">  2  5  1 -1</clus>
</clustering>
</event>
<event>
 9    1  0.9171696E-005  0.1209234E+03  0.7546771E-02  0.1244895E+00
         21   -1    0    0  501  502  0.00000000000E+00  0.00000000000E+00  0.72957849258E+02  0.72957849258E+02  0.00000000000E+00 0. -1.
         -4   -1    0    0    0  501 -0.00000000000E+00 -0.00000000000E+00 -0.41224002479E+03  0.41224002479E+03  0.00000000000E+00 0.  1.
         23    2    1    2    0    0  0.97440247877E+02  0.26226044434E+02 -0.27711285889E+03  0.30872085429E+03  0.91294150950E+02 0.  0.
        -24    2    1    2    0    0 -0.45789262119E+02  0.17371942974E+02 -0.53153344866E+02  0.10828686957E+03  0.80637008390E+02 0.  0.
         13    1    4    4    0    0  0.91548869466E+01  0.35350500070E+02 -0.21562046662E+02  0.42407448243E+02  0.00000000000E+00 0. -1.
        -14    1    4    4    0    0 -0.54944149065E+02 -0.17978557097E+02 -0.31591298204E+02  0.65879421324E+02  0.00000000000E+00 0.  1.
        -13    1    3    3    0    0  0.42895488027E+02  0.33434410724E+02 -0.46251231404E+02  0.71393691037E+02  0.00000000000E+00 0. -1.
         13    1    3    3    0    0  0.54544759850E+02 -0.72083662901E+01 -0.23086162748E+03  0.23732716325E+03  0.00000000000E+00 0.  1.
         -3    1    1    2    0  502 -0.51650985759E+02 -0.43597987407E+02 -0.90159717739E+01  0.68190150189E+02  0.00000000000E+00 0.  1.
<scales pt_clust_5="13000.00000" pt_clust_6="13000.00000" pt_clust_7="13000.00000" pt_clust_8="13000.00000" pt_clust_9="67.59148"></scales>
<clustering>
<clus scale="   67.591">  1  9  2 -1</clus>
<clus scale="   80.637">  5  6 -1 -1</clus>
<clus scale="   91.294">  7  8 -1 -1</clus>
<clus scale="  113.094">  1  5  2 -1</clus>
<clus scale="   67.591">  1  5  2 -1</clus>
</clustering>
</event>
<event>
 9    1  0.9171696E-005  0.1201081E+03  0.7546771E-02  0.1254335E+00
         -2   -1    0    0    0  501 -0.00000000000E+00  0.00000000000E+00  0.15188273623E+03  0.15188273623E+03  0.00000000000E+00 0.  1.
         21   -1    0    0  501  502  0.00000000000E+00 -0.00000000000E+00 -0.34002836547E+03  0.34002836547E+03  0.00000000000E+00 0. -1.
         23    2    1    2    0    0 -0.16456046932E+02 -0.35637169463E+02  0.83614782704E+02  0.12698055718E+03  0.87131054672E+02 0.  0.
        -24    2    1    2    0    0  0.77473044324E+02 -0.41583039123E+02 -0.22813629473E+03  0.25727787066E+03  0.80090648746E+02 0.  0.
         11    1    4    4    0    0  0.68896673229E+02 -0.51635432526E+02 -0.22837092605E+03  0.24406197848E+03  0.00000000000E+00 0. -1.
        -12    1    4    4    0    0  0.85763710949E+01  0.10052393403E+02  0.23463131559E+00  0.13215892181E+02  0.00000000000E+00 0.  1.
        -13    1    3    3    0    0 -0.27375575567E+02  0.15632770278E+02  0.63386686584E+02  0.70793203631E+02  0.00000000000E+00 0. -1.
         13    1    3    3    0    0  0.10919528636E+02 -0.51269939742E+02  0.20228096120E+02  0.56187353554E+02  0.00000000000E+00 0.  1.
         -1    1    1    2    0  502 -0.61016997393E+02  0.77220208587E+02 -0.43624117214E+02  0.10765267385E+03  0.00000000000E+00 0.  1.
<scales pt_clust_5="13000.00000" pt_clust_6="13000.00000" pt_clust_7="13000.00000" pt_clust_8="13000.00000" pt_clust_9="89.50675"></scales>
<clustering>
<clus scale="   80.091">  5  6 -1 -1</clus>
<clus scale="   87.131">  7  8 -1 -1</clus>
<clus scale="   95.565">  1  7  2 -1</clus>
<clus scale="   89.507">  2  9  1 -1</clus>
<clus scale="   89.507">  2  5  1 -1</clus>
</clustering>
</event>
<event>
 9    1  0.9171696E-005  0.1495425E+03  0.7546771E-02  0.1202467E+00
          1   -1    0    0  502    0 -0.00000000000E+00  0.00000000000E+00  0.43652291371E+03  0.43652291371E+03  0.00000000000E+00 0. -1.
         21   -1    0    0  501  502  0.00000000000E+00 -0.00000000000E+00 -0.13707528517E+03  0.13707528517E+03  0.00000000000E+00 0. -1.
         23    2    1    2    0    0 -0.12807162072E+03 -0.16273352578E+02  0.30708890745E+03  0.34482488748E+03  0.89069882161E+02 0.  0.
        -24    2    1    2    0    0  0.99887039680E+02  0.18696850107E+02  0.68889829586E+02  0.14718131107E+03  0.81175962014E+02 0.  0.
         11    1    4    4    0    0  0.23501420346E+02  0.17106862287E+02  0.64389413849E+02  0.70646713380E+02  0.00000000000E+00 0. -1.
        -12    1    4    4    0    0  0.76385619334E+02  0.15899878198E+01  0.45004157372E+01  0.76534597693E+02  0.00000000000E+00 0.  1.
        -13    1    3    3    0    0 -0.71477510153E+02 -0.45786124269E+02  0.22739553873E+03  0.24272234068E+03  0.00000000000E+00 0. -1.
         13    1    3    3    0    0 -0.56594110572E+02  0.29512771691E+02  0.79693368720E+02  0.10210254680E+03  0.00000000000E+00 0.  1.
          2    1    1    2  501    0  0.28184581045E+02 -0.24234975283E+01 -0.76531108499E+02  0.81592000325E+02  0.00000000000E+00 0. -1.
<scales pt_clust_5="13000.00000" pt_clust_6="13000.00000" pt_clust_7="13000.00000" pt_clust_8="13000.00000" pt_clust_9="28.28858"></scales>
<clustering>
<clus scale="   28.289">  2  9  1 -1</clus>
<clus scale="   81.176">  5  6 -1 -1</clus>
<clus scale="   89.070">  7  8 -1 -1</clus>
<clus scale="  144.979">  2  5  1 -1</clus>
<clus scale="   28.289">  2  5  1 -1</clus>
</clustering>
</event>
<event>
 9    1  0.9171696E-005  0.1242746E+03  0.7546771E-02  0.1239760E+00
         -2   -1    0    0    0  501 -0.00000000000E+00  0.00000000000E+00  0.22643138839E+03  0.22643138839E+03  0.00000000000E+00 0.  1.
         21   -1    0    0  501  502  0.00000000000E+00 -0.00000000000E+00 -0.27911832820E+03  0.27911832820E+03  0.00000000000E+00 0.  1.
        -24    2    1    2    0    0  0.76368441810E+02 -0.42582115607E+02  0.18615725328E+03  0.22064325035E+03  0.79897093196E+02 0.  0.
         23    2    1    2    0    0 -0.49616673111E+02  0.18417666810E+02 -0.11760241167E+03  0.15841873056E+03  0.92006207730E+02 0.  0.
         13    1    3    3    0    0  0.44026354460E+02  0.18651073081E+02  0.59915198551E+02  0.76655159196E+02  0.00000000000E+00 0. -1.
        -14    1    3    3    0    0  0.32342087351E+02 -0.61233188688E+02  0.12624205473E+03  0.14398809115E+03  0.00000000000E+00 0.  1.
        -11    1    4    4    0    0 -0.53017856838E+02 -0.27690797439E+02 -0.69637184071E+02  0.91798751690E+02  0.00000000000E+00 0.  1.
         11    1    4    4    0    0  0.34011837274E+01  0.46108464249E+02 -0.47965227596E+02  0.66619978869E+02  0.00000000000E+00 0. -1.
         -1    1    1    2    0  502 -0.26751768700E+02  0.24164448797E+02 -0.12124178143E+03  0.12648773569E+03  0.00000000000E+00 0.  1.
<scales pt_clust_5="13000.00000" pt_clust_6="13000.00000" pt_clust_7="13000.00000" pt_clust_8="13000.00000" pt_clust_9="36.04966"></scales>
<clustering>
<clus scale="   36.050">  2  9  1 -1</clus>
<clus scale="   79.897">  5  6 -1 -1</clus>
<clus scale="   92.006">  7  8 -1 -1</clus>
<clus scale="  115.597">  1  5  2 -1</clus>
<clus scale="   36.050">  2  5  1 -1</clus>
</clustering>
</event>
<event>
 9    1  0.9171696E-005  0.1303241E+03  0.7546771E-02  0.1244984E+00
         21   -1    0    0  501  502  0.00000000000E+00  0.00000000000E+00  0.33213159234E+02  0.33213159234E+02  0.00000000000E+00 0.  1.
          1   -1    0    0  502    0 -0.00000000000E+00 -0.00000000000E+00 -0.65614230561E+03  0.65614230561E+03  0.00000000000E+00 0. -1.
        -24    2    1    2    0    0  0.56363233896E+02  0.28254176755E+02 -0.22773806108E+03  0.24860457840E+03  0.77230170910E+02 0.  0.
         23    2    1    2    0    0  0.13784300105E+01 -0.32902578812E+02 -0.19394736116E+03  0.23133564369E+03  0.12172149103E+03 0.  0.
         11    1    3    3    0    0  0.18346528574E+02  0.41924981950E+02 -0.56721779001E+02  0.72881132231E+02  0.00000000000E+00 0. -1.
        -12    1    3    3    0    0  0.38016705322E+02 -0.13670805195E+02 -0.17101628208E+03  0.17572344617E+03  0.00000000000E+00 0.  1.
        -11    1    4    4    0    0  0.46566812357E+02  0.17338056571E+02 -0.12628774297E+03  0.13571171741E+03  0.00000000000E+00 0. -1.
         11    1    4    4    0    0 -0.45188382346E+02 -0.50240635383E+02 -0.67659618184E+02  0.95623926272E+02  0.00000000000E+00 0.  1.
          2    1    1    2  501    0 -0.57741663907E+02  0.46484020564E+01 -0.20124372414E+03  0.20941524276E+03  0.00000000000E+00 0. -1.
<scales pt_clust_5="13000.00000" pt_clust_6="13000.00000" pt_clust_7="13000.00000" pt_clust_8="13000.00000" pt_clust_9="57.92850"></scales>
<clustering>
<clus scale="   57.928">  1  9  2 -1</clus>
<clus scale="   77.230">  5  6 -1 -1</clus>
<clus scale="   90.182">  2  5  1 -1</clus>
<clus scale="  121.721">  7  8 -1 -1</clus>
<clus scale="   57.928">  1  5  2 -1</clus>
</clustering>
</event>
<event>
 9    1  0.9171696E-005  0.1519092E+03  0.7546771E-02  0.1223828E+00
          1   -1    0    0  502    0 -0.00000000000E+00  0.00000000000E+00  0.48159838253E+03  0.48159838253E+03  0.00000000000E+00 0. -1.
         21   -1    0    0  501  502  0.00000000000E+00 -0.00000000000E+00 -0.14987083521E+03  0.14987083521E+03  0.00000000000E+00 0.  1.
        -24    2    1    2    0    0 -0.24304068044E+02 -0.23777743493E+02  0.15427313182E+03  0.17753773714E+03  0.81014690640E+02 0.  0.
         23    2    1    2    0    0  0.35186945181E+02 -0.10834711803E+03 -0.75703022223E+02  0.16816216048E+03  0.97828142917E+02 0.  0.
         11    1    3    3    0    0  0.48301664873E+01 -0.38122526726E+02  0.13365879269E+03  0.13907311177E+03  0.00000000000E+00 0. -1.
        -12    1    3    3    0    0 -0.29134234531E+02  0.14344783232E+02  0.20614339124E+02  0.38464625375E+02  0.00000000000E+00 0.  1.
        -13    1    4    4    0    0  0.57231869285E+02 -0.24205162194E+02 -0.21905892733E+02  0.65888123930E+02  0.00000000000E+00 0. -1.
         13    1    4    4    0    0 -0.22044924104E+02 -0.84141955831E+02 -0.53797129490E+02  0.10227403655E+03  0.00000000000E+00 0.  1.
          2    1    1    2  501    0 -0.10882877137E+02  0.13212486152E+03  0.25315743773E+03  0.28576932012E+03  0.00000000000E+00 0. -1.
<scales pt_clust_5="13000.00000" pt_clust_6="13000.00000" pt_clust_7="13000.00000" pt_clust_8="13000.00000" pt_clust_9="116.21568"></scales>
<clustering>
<clus scale="   81.015">  5  6 -1 -1</clus>
<clus scale="   87.860">  1  5  2 -1</clus>
<clus scale="   97.828">  7  8 -1 -1</clus>
<clus scale="  116.216">  2  9  1 -1</clus>
<clus scale="  116.216">  2  5  1 -1</clus>
</clustering>
</event>
<event>
 9    1  0.9171696E-005  0.9250319E+02  0.7546771E-02  0.1304832E+00
         21   -1    0    0  501  502  0.00000000000E+00  0.00000000000E+00  0.35014981910E+03  0.35014981910E+03  0.00000000000E+00 0.  1.
         -4   -1    0    0    0  501 -0.00000000000E+00 -0.00000000000E+00 -0.80515659770E+02  0.80515659770E+02  0.00000000000E+00 0.  1.
         23    2    1    2    0    0  0.81326189628E+01  0.79100719593E+01 -0.35057955889E+02  0.98654979470E+02  0.91515222632E+02 0.  0.
        -24    2    1    2    0    0 -0.31168082871E+02  0.55894851457E+01  0.12990998860E+03  0.15520082086E+03  0.78790849240E+02 0.  0.
         13    1    4    4    0    0 -0.20720597488E+02 -0.35245587014E+02  0.80246522134E+02  0.90061639330E+02  0.00000000000E+00 0. -1.
        -14    1    4    4    0    0 -0.10447485382E+02  0.40835072160E+02  0.49663466465E+02  0.65139181530E+02  0.00000000000E+00 0.  1.
        -13    1    3    3    0    0 -0.40734621757E+02  0.45128193531E+01 -0.52637130836E+01  0.41320474630E+02  0.00000000000E+00 0.  1.
         13    1    3    3    0    0  0.48867240720E+02  0.33972526063E+01 -0.29794242805E+02  0.57334504840E+02  0.00000000000E+00 0. -1.
         -3    1    1    2    0  502  0.23035463908E+02 -0.13499557105E+02  0.17478212662E+03  0.17680967854E+03  0.00000000000E+00 0.  1.
<scales pt_clust_5="13000.00000" pt_clust_6="13000.00000" pt_clust_7="13000.00000" pt_clust_8="13000.00000" pt_clust_9="26.69964"></scales>
<clustering>
<clus scale="   26.700">  1  9  2 -1</clus>
<clus scale="   78.791">  5  6 -1 -1</clus>
<clus scale="   79.936">  1  5  2 -1</clus>
<clus scale="   91.515">  7  8 -1 -1</clus>
<clus scale="   26.700">  1  5  2 -1</clus>
</clustering>
</event>
<event>
 9    1  0.9171696E-005  0.2447702E+03  0.7546771E-02  0.1117837E+00
         21   -1    0    0  501  502  0.00000000000E+00  0.00000000000E+00  0.26624884857E+03  0.26624884857E+03  0.00000000000E+00 0. -1.
         -2   -1    0    0    0  501 -0.00000000000E+00 -0.00000000000E+00 -0.31106039507E+03  0.31106039507E+03  0.00000000000E+00 0.  1.
        -24    2    1    2    0    0 -0.75516149828E+02 -0.20096227033E+03 -0.68750032571E+02  0.23926753996E+03  0.80211381469E+02 0.  0.
         23    2    1    2    0    0  0.45997894338E+02  0.23240652362E+03 -0.40894288814E+02  0.26017414194E+03  0.99446683079E+02 0.  0.
         13    1    3    3    0    0 -0.62117759044E+02 -0.59390208864E+02 -0.14979202033E+02  0.87236399462E+02  0.00000000000E+00 0. -1.
        -14    1    3    3    0    0 -0.13398390784E+02 -0.14157206146E+03 -0.53770830538E+02  0.15203114049E+03  0.00000000000E+00 0.  1.
        -13    1    4    4    0    0 -0.12347348187E+02  0.12686136664E+03  0.12919727321E+02  0.12811394424E+03  0.00000000000E+00 0. -1.
         13    1    4    4    0    0  0.58345242525E+02  0.10554515697E+03 -0.53814016135E+02  0.13206019771E+03  0.00000000000E+00 0.  1.
         -1    1    1    2    0  502  0.29518255490E+02 -0.31444253286E+02  0.64832774882E+02  0.77867561736E+02  0.00000000000E+00 0.  1.
<scales pt_clust_5="13000.00000" pt_clust_6="13000.00000" pt_clust_7="13000.00000" pt_clust_8="13000.00000" pt_clust_9="43.12851"></scales>
<clustering>
<clus scale="   43.129">  1  9  2 -1</clus>
<clus scale="   80.211">  5  6 -1 -1</clus>
<clus scale="   99.447">  7  8 -1 -1</clus>
<clus scale="  237.606">  2  5  1 -1</clus>
<clus scale="   43.129">  1  5  2 -1</clus>
</clustering>
</event>
<event>
 9    1  0.9171696E-005  0.9186264E+02  0.7546771E-02  0.1304692E+00
         21   -1    0    0  501  502  0.00000000000E+00  0.00000000000E+00  0.10191179803E+03  0.10191179803E+03  0.00000000000E+00 0.  1.
          1   -1    0    0  502    0 -0.00000000000E+00 -0.00000000000E+00 -0.13559194654E+03  0.13559194654E+03  0.00000000000E+00 0. -1.
        -24    2    1    2    0    0  0.10210495296E+02 -0.15355983190E+02 -0.48374679379E+02  0.95992827023E+02  0.80835962300E+02 0.  0.
         23    2    1    2    0    0 -0.15770724653E+02 -0.23317499555E+02  0.29545459354E+02  0.99712538447E+02  0.90979308711E+02 0.  0.
         13    1    3    3    0    0 -0.25675355444E+02 -0.28462328393E+02 -0.57634166196E+01  0.38762675164E+02  0.00000000000E+00 0. -1.
        -14    1    3    3    0    0  0.35885850740E+02  0.13106345203E+02 -0.42611262760E+02  0.57230151860E+02  0.00000000000E+00 0.  1.
        -13    1    4    4    0    0 -0.49497280272E+02  0.19931584123E+01  0.29280816162E+02  0.57544066852E+02  0.00000000000E+00 0.  1.
         13    1    4    4    0    0  0.33726555619E+02 -0.25310657967E+02  0.26464319282E+00  0.42168471595E+02  0.00000000000E+00 0. -1.
          2    1    1    2  501    0  0.55602293572E+01  0.38673482745E+02 -0.14850928494E+02  0.41798379099E+02  0.00000000000E+00 0. -1.
<scales pt_clust_5="13000.00000" pt_clust_6="13000.00000" pt_clust_7="13000.00000" pt_clust_8="13000.00000" pt_clust_9="39.07117"></scales>
<clustering>
<clus scale="   39.071">  1  9  2 -1</clus>
<clus scale="   80.836">  5  6 -1 -1</clus>
<clus scale="   81.829">  2  5  1 -1</clus>
<clus scale="   90.979">  7  8 -1 -1</clus>
<clus scale="   39.071">  1  5  2 -1</clus>
</clustering>
</event>
<event>
 9    1  0.9171696E-005  0.1508901E+03  0.7546771E-02  0.1202189E+00
          1   -1    0    0  502    0 -0.00000000000E+00  0.00000000000E+00  0.19700581759E+03  0.19700581759E+03  0.00000000000E+00 0. -1.
         21   -1    0    0  501  502  0.00000000000E+00 -0.00000000000E+00 -0.61991209556E+03  0.61991209556E+03  0.00000000000E+00 0. -1.
        -24    2    1    2    0    0 -0.12684844163E+03  0.39037714755E+02  0.12351386271E+03  0.19787137173E+03  0.79264967985E+02 0.  0.
         23    2    1    2    0    0  0.56729603852E+02 -0.56097151916E+02 -0.80193256472E+02  0.14726779735E+03  0.94295850098E+02 0.  0.
         13    1    3    3    0    0 -0.10260178468E+03  0.18049107189E+02  0.45799341564E+02  0.11380015895E+03  0.00000000000E+00 0. -1.
        -14    1    3    3    0    0 -0.24246656956E+02  0.20988607566E+02  0.77714521145E+02  0.84071212778E+02  0.00000000000E+00 0.  1.
        -13    1    4    4    0    0  0.59494690963E+02 -0.18404642897E+02 -0.88843580580E+02  0.10849668632E+03  0.00000000000E+00 0. -1.
         13    1    4    4    0    0 -0.27650871111E+01 -0.37692509019E+02  0.86503241075E+01  0.38771111024E+02  0.00000000000E+00 0.  1.
          2    1    1    2  501    0  0.70118837779E+02  0.17059437161E+02 -0.46622688421E+03  0.47177874408E+03  0.00000000000E+00 0. -1.
<scales pt_clust_5="13000.00000" pt_clust_6="13000.00000" pt_clust_7="13000.00000" pt_clust_8="13000.00000" pt_clust_9="72.16423"></scales>
<clustering>
<clus scale="   72.164">  2  9  1 -1</clus>
<clus scale="   79.265">  5  6 -1 -1</clus>
<clus scale="   94.296">  7  8 -1 -1</clus>
<clus scale="  141.983">  1  5  2 -1</clus>
<clus scale="   72.164">  2  5  1 -1</clus>
</clustering>
</event>
<event>
 9    1  0.9171696E-005  0.9583688E+02  0.7546771E-02  0.1297312E+00
          1   -1    0    0  502    0 -0.00000000000E+00  0.00000000000E+00  0.16395991697E+03  0.16395991697E+03  0.00000000000E+00 0. -1.
         21   -1    0    0  501  502  0.00000000000E+00 -0.00000000000E+00 -0.21840449410E+03  0.21840449410E+03  0.00000000000E+00 0. -1.
         23    2    1    2    0    0 -0.28239480770E+01 -0.23006462784E+02  0.64462111038E+01  0.95743899655E+02  0.92671833213E+02 0.  0.
        -24    2    1    2    0    0 -0.19898815092E+02  0.29566380127E+02 -0.16152501844E+03  0.18324447564E+03  0.78854756324E+02 0.  0.
         13    1    4    4    0    0 -0.49314039499E+02  0.14151181756E+02 -0.78007881343E+02  0.93366803460E+02  0.00000000000E+00 0. -1.
        -14    1    4    4    0    0  0.29415224407E+02  0.15415198371E+02 -0.83517137096E+02  0.89877672180E+02  0.00000000000E+00 0.  1.
        -11    1    3    3    0    0  0.39881696679E+02 -0.14098815121E+02 -0.17732405553E+02  0.45866812888E+02  0.00000000000E+00 0.  1.
         11    1    3    3    0    0 -0.42705644756E+02 -0.89076476628E+01  0.24178616657E+02  0.49877086767E+02  0.00000000000E+00 0. -1.
          2    1    1    2  501    0  0.22722763169E+02 -0.65599173428E+01  0.10063423021E+03  0.10337603577E+03  0.00000000000E+00 0. -1.
<scales pt_clust_5="13000.00000" pt_clust_6="13000.00000" pt_clust_7="13000.00000" pt_clust_8="13000.00000" pt_clust_9="23.65073"></scales>
<clustering>
<clus scale="   23.651">  2  9  1 -1</clus>
<clus scale="   78.855">  5  6 -1 -1</clus>
<clus scale="   82.551">  2  5  1 -1</clus>
<clus scale="   92.672">  7  8 -1 -1</clus>
<clus scale="   23.651">  2  5  1 -1</clus>
</clustering>
</event>
<event>
 9    1  0.9171696E-005  0.1783481E+03  0.7546771E-02  0.1169943E+00
         -4   -1    0    0    0  501 -0.00000000000E+00  0.00000000000E+00  0.52884523391E+03  0.52884523391E+03  0.00000000000E+00 0.  1.
         21   -1    0    0  501  502  0.00000000000E+00 -0.00000000000E+00 -0.27895877574E+03  0.27895877574E+03  0.00000000000E+00 0.  1.
        -24    2    1    2    0    0  0.16259648341E+03  0.68679681968E+02  0.41497897396E+03  0.45934630695E+03  0.87389734761E+02 0.  0.
         23    2    1    2    0    0 -0.98870180756E+02 -0.40923407114E+01  0.25588989645E+02  0.13728951662E+03  0.91659997203E+02 0.  0.
         11    1    3    3    0    0  0.18986643724E+02  0.34168957099E+02  0.38214478225E+02  0.54665863344E+02  0.00000000000E+00 0. -1.
        -12    1    3    3    0    0  0.14360983969E+03  0.34510724869E+02  0.37676449574E+03  0.40468044360E+03  0.00000000000E+00 0.  1.
        -13    1    4    4    0    0 -0.10387156348E+03  0.23469054739E+02  0.16017026928E+02  0.10768771231E+03  0.00000000000E+00 0. -1.
         13    1    4    4    0    0  0.50013827248E+01 -0.27561395450E+02  0.95719627164E+01  0.29601804312E+02  0.00000000000E+00 0.  1.
         -3    1    1    2    0  502 -0.63726302657E+02 -0.64587341256E+02 -0.19068150544E+03  0.21116818609E+03  0.00000000000E+00 0.  1.
<scales pt_clust_5="13000.00000" pt_clust_6="13000.00000" pt_clust_7="13000.00000" pt_clust_8="13000.00000" pt_clust_9="90.73349"></scales>
<clustering>
<clus scale="   87.390">  5  6 -1 -1</clus>
<clus scale="   90.733">  2  9  1 -1</clus>
<clus scale="   91.660">  7  8 -1 -1</clus>
<clus scale="  176.192">  1  5  2 -1</clus>
<clus scale="   90.733">  2  5  1 -1</clus>
</clustering>
</event>
<event>
 9    1  0.1084778E-004  0.1896577E+03  0.7546771E-02  0.1164929E+00
         -4   -1    0    0    0  501 -0.00000000000E+00  0.00000000000E+00  0.15357248649E+04  0.15357248649E+04  0.00000000000E+00 0.  1.
         21   -1    0    0  501  502  0.00000000000E+00 -0.00000000000E+00 -0.11315226723E+03  0.11315226723E+03  0.00000000000E+00 0.  1.
         23    2    1    2    0    0 -0.10679607713E+03 -0.84495452761E+02  0.56873182695E+02  0.17396225706E+03  0.92105506578E+02 0.  0.
        -24    2    1    2    0    0 -0.38887825330E+02  0.17449222766E+03  0.14974397391E+03  0.24696094532E+03  0.81281303601E+02 0.  0.
         13    1    4    4    0    0  0.21787798454E+02  0.18090474084E+02  0.16945246116E+02  0.33001739045E+02  0.00000000000E+00 0. -1.
        -14    1    4    4    0    0 -0.60675623784E+02  0.15640175358E+03  0.13279872779E+03  0.21395920627E+03  0.00000000000E+00 0.  1.
        -13    1    3    3    0    0 -0.55219260001E+02 -0.95097413205E+02  0.26275031938E+02  0.11306220401E+03  0.00000000000E+00 0.  1.
         13    1    3    3    0    0 -0.51576817130E+02  0.10601960444E+02  0.30598150757E+02  0.60900053041E+02  0.00000000000E+00 0. -1.
         -3    1    1    2    0  502  0.14568390246E+03 -0.89996774904E+02  0.12159554411E+04  0.12279539298E+04  0.00000000000E+00 0.  1.
<scales pt_clust_5="13000.00000" pt_clust_6="13000.00000" pt_clust_7="13000.00000" pt_clust_8="13000.00000" pt_clust_9="171.35761"></scales>
<clustering>
<clus scale="   81.281">  5  6 -1 -1</clus>
<clus scale="   92.106">  7  8 -1 -1</clus>
<clus scale="  164.403">  1  7  2 -1</clus>
<clus scale="  171.358">  2  9  1 -1</clus>
<clus scale="  171.358">  2  5  1 -1</clus>
</clustering>
</event>
<event>
 9    1  0.9171696E-005  0.2361431E+03  0.7546771E-02  0.1147773E+00
         21   -1    0    0  501  502  0.00000000000E+00  0.00000000000E+00  0.11643369977E+03  0.11643369977E+03  0.00000000000E+00 0. -1.
          1   -1    0    0  502    0 -0.00000000000E+00 -0.00000000000E+00 -0.12235423156E+04  0.12235423156E+04  0.00000000000E+00 0. -1.
        -24    2    1    2    0    0  0.96827959415E+02  0.20637509152E+02 -0.42992082096E+03  0.44837554865E+03  0.80044736397E+02 0.  0.
         23    2    1    2    0    0  0.19708539531E+03 -0.20926282706E+02 -0.91757224146E+02  0.23653245757E+03  0.90816589597E+02 0.  0.
         11    1    3    3    0    0  0.15747852687E+02 -0.25438923269E+02 -0.62319509976E+02  0.69129263015E+02  0.00000000000E+00 0. -1.
        -12    1    3    3    0    0  0.81080106728E+02  0.46076432421E+02 -0.36760131099E+03  0.37924628564E+03  0.00000000000E+00 0.  1.
        -13    1    4    4    0    0  0.57684937525E+02  0.31239923075E+02 -0.89553760114E+01  0.66209391861E+02  0.00000000000E+00 0.  1.
         13    1    4    4    0    0  0.13940045779E+03 -0.52166205782E+02 -0.82801848135E+02  0.17032306571E+03  0.00000000000E+00 0. -1.
          2    1    1    2  501    0 -0.29391335473E+03  0.28877355370E+00 -0.58543057074E+03  0.65506800917E+03  0.00000000000E+00 0. -1.
<scales pt_clust_5="13000.00000" pt_clust_6="13000.00000" pt_clust_7="13000.00000" pt_clust_8="13000.00000" pt_clust_9="217.98161"></scales>
<clustering>
<clus scale="   80.045">  5  6 -1 -1</clus>
<clus scale="   90.817">  7  8 -1 -1</clus>
<clus scale="  127.313">  2  5  1 -1</clus>
<clus scale="  217.982">  1  9  2 -1</clus>
<clus scale="  217.982">  1  5  2 -1</clus>
</clustering>
</event>
<event>
 9    1  0.1450965E-004  0.9817723E+02  0.7546771E-02  0.1288672E+00
         21   -1    0    0  501  502  0.00000000000E+00  0.00000000000E+00  0.36227734517E+03  0.36227734517E+03  0.00000000000E+00 0. -1.
          1   -1    0    0  502    0 -0.00000000000E+00 -0.00000000000E+00 -0.23249503371E+03  0.23249503371E+03  0.00000000000E+00 0. -1.
        -24    2    1    2    0    0  0.24893380697E+02 -0.28594777827E+02 -0.21339935654E+03  0.23175486010E+03  0.82059052442E+02 0.  0.
         23    2    1    2    0    0 -0.26061289404E+02  0.67664879367E+01  0.30061078694E+03  0.31516233971E+03  0.90749539848E+02 0.  0.
         13    1    3    3    0    0  0.52825253499E+02 -0.30934556204E+02 -0.16249612997E+03  0.17364459805E+03  0.00000000000E+00 0. -1.
        -14    1    3    3    0    0 -0.27931872803E+02  0.23397783776E+01 -0.50903226564E+02  0.58110262052E+02  0.00000000000E+00 0.  1.
        -11    1    4    4    0    0 -0.16873075530E+01  0.47029318653E+02  0.13357586208E+03  0.14162314341E+03  0.00000000000E+00 0.  1.
         11    1    4    4    0    0 -0.24373981851E+02 -0.40262830716E+02  0.16703492486E+03  0.17353919630E+03  0.00000000000E+00 0. -1.
          2    1    1    2  501    0  0.11679087078E+01  0.21828289890E+02  0.42570881055E+02  0.47855179073E+02  0.00000000000E+00 0. -1.
<scales pt_clust_5="13000.00000" pt_clust_6="13000.00000" pt_clust_7="13000.00000" pt_clust_8="13000.00000" pt_clust_9="21.85951"></scales>
<clustering>
<clus scale="   21.860">  1  9  2 -1</clus>
<clus scale="   82.059">  5  6 -1 -1</clus>
<clus scale="   90.205">  2  5  1 -1</clus>
<clus scale="   90.750">  7  8 -1 -1</clus>
<clus scale="   21.860">  1  5  2 -1</clus>
</clustering>
</event>
<event>
 9    1  0.9171696E-005  0.1334803E+03  0.7546771E-02  0.1236388E+00
         21   -1    0    0  501  502  0.00000000000E+00  0.00000000000E+00  0.93398893504E+03  0.93398893504E+03  0.00000000000E+00 0.  1.
          1   -1    0    0  502    0 -0.00000000000E+00 -0.00000000000E+00 -0.40187352536E+02  0.40187352536E+02  0.00000000000E+00 0. -1.
         23    2    1    2    0    0  0.28545555520E+02  0.34452829946E+02  0.11368920114E+03  0.15136133570E+03  0.89348605232E+02 0.  0.
        -24    2    1    2    0    0  0.46539702729E+02 -0.10254211300E+03  0.60357646190E+03  0.61924953897E+03  0.80527121410E+02 0.  0.
         13    1    4    4    0    0  0.13087954666E+02 -0.10014674084E+03  0.38094864618E+03  0.39410980105E+03  0.00000000000E+00 0. -1.
        -14    1    4    4    0    0  0.33451748062E+02 -0.23953721559E+01  0.22262781572E+03  0.22513973792E+03  0.00000000000E+00 0.  1.
        -11    1    3    3    0    0  0.33533183262E+02 -0.75533046966E+01  0.10176232877E+03  0.10741088561E+03  0.00000000000E+00 0.  1.
         11    1    3    3    0    0 -0.49876277423E+01  0.42006134643E+02  0.11926872373E+02  0.43950450086E+02  0.00000000000E+00 0. -1.
          2    1    1    2  501    0 -0.75085258248E+02  0.68089283052E+02  0.17653591945E+03  0.20356541290E+03  0.00000000000E+00 0. -1.
<scales pt_clust_5="13000.00000" pt_clust_6="13000.00000" pt_clust_7="13000.00000" pt_clust_8="13000.00000" pt_clust_9="106.45365"></scales>
<clustering>
<clus scale="   80.527">  5  6 -1 -1</clus>
<clus scale="   89.349">  7  8 -1 -1</clus>
<clus scale="   99.925">  2  7  1 -1</clus>
<clus scale="  106.454">  1  9  2 -1</clus>
<clus scale="  106.454">  1  5  2 -1</clus>
</clustering>
</event>
<event>
 9    1  0.9171696E-005  0.9252439E+02  0.7546771E-02  0.1302897E+00
          1   -1    0    0  502    0 -0.00000000000E+00  0.00000000000E+00  0.57549201015E+03  0.57549201015E+03  0.00000000000E+00 0. -1.
         21   -1    0    0  501  502  0.00000000000E+00 -0.00000000000E+00 -0.76413011134E+02  0.76413011134E+02  0.00000000000E+00 0.  1.
         23    2    1    2    0    0  0.16306568021E+02 -0.29621268296E+00  0.44207402022E+03  0.45162803738E+03  0.90953025735E+02 0.  0.
        -24    2    1    2    0    0 -0.86560267308E+01  0.74439093875E+02  0.71087315622E+01  0.11058120306E+03  0.81003474676E+02 0.  0.
         13    1    4    4    0    0 -0.20819838180E+02 -0.28718966431E+01  0.22533599308E+02  0.30813577364E+02  0.00000000000E+00 0. -1.
        -14    1    4    4    0    0  0.12163811449E+02  0.77310990518E+02 -0.15424867746E+02  0.79767625694E+02  0.00000000000E+00 0.  1.
        -11    1    3    3    0    0  0.42612809578E+02  0.29234146979E+02  0.28532188796E+03  0.28996390575E+03  0.00000000000E+00 0. -1.
         11    1    3    3    0    0 -0.26306241557E+02 -0.29530359662E+02  0.15675213226E+03  0.16166413163E+03  0.00000000000E+00 0.  1.
          2    1    1    2  501    0 -0.76505412902E+01 -0.74142881192E+02  0.49896247233E+02  0.89695780845E+02  0.00000000000E+00 0. -1.
<scales pt_clust_5="13000.00000" pt_clust_6="13000.00000" pt_clust_7="13000.00000" pt_clust_8="13000.00000" pt_clust_9="74.53655"></scales>
<clustering>
<clus scale="   74.537">  2  9  1 -1</clus>
<clus scale="   81.003">  5  6 -1 -1</clus>
<clus scale="   82.764">  2  5  1 -1</clus>
<clus scale="   90.953">  7  8 -1 -1</clus>
<clus scale="   74.537">  2  5  1 -1</clus>
</clustering>
</event>
<event>
 9    1  0.9171696E-005  0.1763508E+03  0.7546771E-02  0.1171952E+00
         21   -1    0    0  501  502  0.00000000000E+00  0.00000000000E+00  0.48950806391E+03  0.48950806391E+03  0.00000000000E+00 0. -1.
          1   -1    0    0  502    0 -0.00000000000E+00 -0.00000000000E+00 -0.79448633240E+02  0.79448633240E+02  0.00000000000E+00 0. -1.
        -24    2    1    2    0    0  0.55694706800E+02  0.15288245657E+03  0.10298587182E+03  0.20868376667E+03  0.80423123429E+02 0.  0.
         23    2    1    2    0    0 -0.47963825483E+02 -0.12963561985E+03  0.28059985539E+03  0.32420301341E+03  0.85237272168E+02 0.  0.
         13    1    3    3    0    0  0.69326947443E+02  0.14522521012E+03  0.10608373538E+03  0.19274425078E+03  0.00000000000E+00 0. -1.
        -14    1    3    3    0    0 -0.13632240643E+02  0.76572464547E+01 -0.30978635565E+01  0.15939515890E+02  0.00000000000E+00 0.  1.
        -11    1    4    4    0    0 -0.34800564070E+02 -0.10885694515E+03  0.27660359073E+03  0.29928324405E+03  0.00000000000E+00 0. -1.
         11    1    4    4    0    0 -0.13163261413E+02 -0.20778674703E+02  0.39962646645E+01  0.24919769355E+02  0.00000000000E+00 0.  1.
          2    1    1    2  501    0 -0.77308813169E+01 -0.23246836718E+02  0.26473703448E+02  0.36069917072E+02  0.00000000000E+00 0. -1.
<scales pt_clust_5="13000.00000" pt_clust_6="13000.00000" pt_clust_7="13000.00000" pt_clust_8="13000.00000" pt_clust_9="24.49861"></scales>
<clustering>
<clus scale="   24.499">  1  9  2 -1</clus>
<clus scale="   80.423">  5  6 -1 -1</clus>
<clus scale="   85.237">  7  8 -1 -1</clus>
<clus scale="  174.075">  2  5  1 -1</clus>
<clus scale="   24.499">  1  5  2 -1</clus>
</clustering>
</event>
<event>
 9    1  0.9171696E-005  0.1176553E+03  0.7546771E-02  0.1260600E+00
          1   -1    0    0  502    0 -0.00000000000E+00  0.00000000000E+00  0.16773669828E+03  0.16773669828E+03  0.00000000000E+00 0. -1.
         21   -1    0    0  501  502  0.00000000000E+00 -0.00000000000E+00 -0.13312106968E+03  0.13312106968E+03  0.00000000000E+00 0.  1.
        -24    2    1    2    0    0  0.15175720249E+02 -0.39012337796E+02 -0.23774857284E+02  0.92935018766E+02  0.79494709817E+02 0.  0.
         23    2    1    2    0    0  0.54083059338E+02 -0.21469143205E+02  0.30248775427E+02  0.11176275771E+03  0.90498752364E+02 0.  0.
         13    1    3    3    0    0 -0.24591316653E+02 -0.17600632023E+02  0.14680957510E+02  0.33616151114E+02  0.00000000000E+00 0. -1.
        -14    1    3    3    0    0  0.39767036902E+02 -0.21411705773E+02 -0.38455814793E+02  0.59318867652E+02  0.00000000000E+00 0.  1.
        -11    1    4    4    0    0  0.30438397537E+02 -0.56475143691E+02  0.10046920478E+02  0.64937496954E+02  0.00000000000E+00 0.  1.
         11    1    4    4    0    0  0.23644661800E+02  0.35006000486E+02  0.20201854949E+02  0.46825260758E+02  0.00000000000E+00 0. -1.
          2    1    1    2  501    0 -0.69258779587E+02  0.60481481001E+02  0.28141710454E+02  0.96159991479E+02  0.00000000000E+00 0. -1.
<scales pt_clust_5="13000.00000" pt_clust_6="13000.00000" pt_clust_7="13000.00000" pt_clust_8="13000.00000" pt_clust_9="75.18485"></scales>
<clustering>
<clus scale="   79.495">  5  6 -1 -1</clus>
<clus scale="   89.843">  1  5  2 -1</clus>
<clus scale="   75.185">  2  9  1 -1</clus>
<clus scale="   90.499">  7  8 -1 -1</clus>
<clus scale="   75.185">  2  5  1 -1</clus>
</clustering>
</event>
<event>
 9    1  0.9171696E-005  0.9402427E+02  0.7546771E-02  0.1299414E+00
         -2   -1    0    0    0  501 -0.00000000000E+00  0.00000000000E+00  0.89951289515E+02  0.89951289515E+02  0.00000000000E+00 0.  1.
         21   -1    0    0  501  502  0.00000000000E+00 -0.00000000000E+00 -0.18132974078E+03  0.18132974078E+03  0.00000000000E+00 0.  1.
        -24    2    1    2    0    0 -0.24979191199E+01 -0.94055814769E+01 -0.94684642372E+01  0.82237394687E+02  0.81108770839E+02 0.  0.
         23    2    1    2    0    0  0.44582924957E+02  0.34925975258E+02 -0.88687101610E+02  0.13936096763E+03  0.91370763165E+02 0.  0.
         13    1    3    3    0    0 -0.35527293799E+02  0.12435891655E+02  0.87577003127E+01  0.38646310570E+02  0.00000000000E+00 0. -1.
        -14    1    3    3    0    0  0.33029374679E+02 -0.21841473132E+02 -0.18226164550E+02  0.43591084117E+02  0.00000000000E+00 0.  1.
        -11    1    4    4    0    0  0.61123000789E+01 -0.20268025887E+02  0.70814092083E+01  0.22322621754E+02  0.00000000000E+00 0. -1.
         11    1    4    4    0    0  0.38470624879E+02  0.55194001145E+02 -0.95768510818E+02  0.11703834588E+03  0.00000000000E+00 0.  1.
         -1    1    1    2    0  502 -0.42085005838E+02 -0.25520393781E+02  0.67771145856E+01  0.49682667976E+02  0.00000000000E+00 0.  1.
<scales pt_clust_5="13000.00000" pt_clust_6="13000.00000" pt_clust_7="13000.00000" pt_clust_8="13000.00000" pt_clust_9="49.21830"></scales>
<clustering>
<clus scale="   49.218">  2  9  1 -1</clus>
<clus scale="   81.109">  5  6 -1 -1</clus>
<clus scale="   84.087">  1  5  2 -1</clus>
<clus scale="   91.371">  7  8 -1 -1</clus>
<clus scale="   49.218">  2  5  1 -1</clus>
</clustering>
</event>
<event>
 9    1  0.9171696E-005  0.3136797E+03  0.7546771E-02  0.1078925E+00
         21   -1    0    0  501  502  0.00000000000E+00  0.00000000000E+00  0.20788695479E+03  0.20788695479E+03  0.00000000000E+00 0.  1.
          1   -1    0    0  502    0 -0.00000000000E+00 -0.00000000000E+00 -0.12426237019E+04  0.12426237019E+04  0.00000000000E+00 0. -1.
         23    2    1    2    0    0  0.21385729135E+03  0.20631473206E+03 -0.10439993686E+04  0.10892998673E+04  0.91317081820E+02 0.  0.
        -24    2    1    2    0    0 -0.23123630961E+03 -0.22266234186E+03 -0.88525133981E+01  0.33125360780E+03  0.81251685028E+02 0.  0.
         11    1    4    4    0    0 -0.32422071853E+02  0.25751363597E+00  0.51855642177E-01  0.32423135960E+02  0.00000000000E+00 0. -1.
        -12    1    4    4    0    0 -0.19881423776E+03 -0.22291985550E+03 -0.89043690403E+01  0.29883047184E+03  0.00000000000E+00 0.  1.
        -13    1    3    3    0    0  0.12584891943E+03  0.62506926035E+02 -0.53260303536E+03  0.55082761332E+03  0.00000000000E+00 0. -1.
         13    1    3    3    0    0  0.88008371916E+02  0.14380780602E+03 -0.51139633326E+03  0.53847225395E+03  0.00000000000E+00 0.  1.
          2    1    1    2  501    0  0.17379018260E+02  0.16347609806E+02  0.18115134866E+02  0.29957181664E+02  0.00000000000E+00 0. -1.
<scales pt_clust_5="13000.00000" pt_clust_6="13000.00000" pt_clust_7="13000.00000" pt_clust_8="13000.00000" pt_clust_9="23.85948"></scales>
<clustering>
<clus scale="   23.859">  1  9  2 -1</clus>
<clus scale="   81.252">  5  6 -1 -1</clus>
<clus scale="   91.317">  7  8 -1 -1</clus>
<clus scale="  310.899">  1  5  2 -1</clus>
<clus scale="   23.859">  1  5  2 -1</clus>
</clustering>
</event>
<event>
 9    1  0.9171696E-005  0.9908907E+02  0.7546771E-02  0.1289702E+00
         21   -1    0    0  501  502  0.00000000000E+00  0.00000000000E+00  0.93194540455E+02  0.93194540455E+02  0.00000000000E+00 0. -1.
         -2   -1    0    0    0  501 -0.00000000000E+00 -0.00000000000E+00 -0.22706885292E+03  0.22706885292E+03  0.00000000000E+00 0.  1.
        -24    2    1    2    0    0 -0.21250825885E+02 -0.26408526611E+02 -0.11363059419E+03  0.14129006229E+03  0.76824227213E+02 0.  0.
         23    2    1    2    0    0 -0.10425322669E+02  0.74757993461E+02 -0.20965852107E+01  0.11838977086E+03  0.91182768304E+02 0.  0.
         11    1    3    3    0    0 -0.50005535068E+02 -0.18538169936E+02 -0.82063592763E+02  0.97870580560E+02  0.00000000000E+00 0. -1.
        -12    1    3    3    0    0  0.28754709183E+02 -0.78703566748E+01 -0.31567001426E+02  0.43419481727E+02  0.00000000000E+00 0.  1.
        -13    1    4    4    0    0  0.32986233038E+02  0.75229101447E+01 -0.15548828750E+02  0.37235088594E+02  0.00000000000E+00 0.  1.
         13    1    4    4    0    0 -0.43411555707E+02  0.67235083316E+02  0.13452243539E+02  0.81154682266E+02  0.00000000000E+00 0. -1.
         -1    1    1    2    0  502  0.31676148554E+02 -0.48349466849E+02 -0.18147133070E+02  0.60583560233E+02  0.00000000000E+00 0.  1.
<scales pt_clust_5="13000.00000" pt_clust_6="13000.00000" pt_clust_7="13000.00000" pt_clust_8="13000.00000" pt_clust_9="57.80181"></scales>
<clustering>
<clus scale="   57.802">  1  9  2 -1</clus>
<clus scale="   76.824">  5  6 -1 -1</clus>
<clus scale="   86.060">  2  5  1 -1</clus>
<clus scale="   91.183">  7  8 -1 -1</clus>
<clus scale="   57.802">  1  5  2 -1</clus>
</clustering>
</event>
<event>
 9    1  0.9171696E-005  0.2740895E+03  0.7546771E-02  0.1099311E+00
         21   -1    0    0  501  502  0.00000000000E+00  0.00000000000E+00  0.13676146470E+03  0.13676146470E+03  0.00000000000E+00 0. -1.
          1   -1    0    0  502    0 -0.00000000000E+00 -0.00000000000E+00 -0.78393250530E+03  0.78393250530E+03  0.00000000000E+00 0. -1.
        -24    2    1    2    0    0 -0.25559945550E+03 -0.28872143335E+02 -0.45549623209E+03  0.52941906737E+03  0.81504902546E+02 0.  0.
         23    2    1    2    0    0  0.26631199462E+03 -0.21840571722E+02 -0.12886431767E+03  0.30983967854E+03  0.89417699450E+02 0.  0.
         13    1    3    3    0    0 -0.11814408421E+03  0.26797317890E+02 -0.21889547607E+03  0.25018263394E+03  0.00000000000E+00 0. -1.
        -14    1    3    3    0    0 -0.13745537129E+03 -0.55669461225E+02 -0.23660075602E+03  0.27923643344E+03  0.00000000000E+00 0.  1.
        -11    1    4    4    0    0  0.22973223995E+03 -0.41831549973E+02 -0.13164354553E+03  0.26806119400E+03  0.00000000000E+00 0. -1.
         11    1    4    4    0    0  0.36579754670E+02  0.19990978250E+02  0.27792278608E+01  0.41778484542E+02  0.00000000000E+00 0.  1.
          2    1    1    2  501    0 -0.10712539126E+02  0.50712715057E+02 -0.62810490839E+02  0.81435224089E+02  0.00000000000E+00 0. -1.
<scales pt_clust_5="13000.00000" pt_clust_6="13000.00000" pt_clust_7="13000.00000" pt_clust_8="13000.00000" pt_clust_9="51.83185"></scales>
<clustering>
<clus scale="   51.832">  1  9  2 -1</clus>
<clus scale="   81.505">  5  6 -1 -1</clus>
<clus scale="   89.418">  7  8 -1 -1</clus>
<clus scale="  271.611">  2  5  1 -1</clus>
<clus scale="   51.832">  1  5  2 -1</clus>
</clustering>
</event>
<event>
 9    1  0.9171696E-005  0.8968573E+02  0.7546771E-02  0.1307944E+00
          3   -1    0    0  502    0 -0.00000000000E+00  0.00000000000E+00  0.17281293878E+03  0.17281293878E+03  0.00000000000E+00 0. -1.
         21   -1    0    0  501  502  0.00000000000E+00 -0.00000000000E+00 -0.11088925805E+03  0.11088925805E+03  0.00000000000E+00 0. -1.
         23    2    1    2    0    0  0.47763917081E+01 -0.15414606292E+02  0.11835166352E+03  0.14862684245E+03  0.88444321657E+02 0.  0.
        -24    2    1    2    0    0  0.22277264183E+02  0.11690242728E+02 -0.64097460962E+02  0.10671002208E+03  0.81520586576E+02 0.  0.
         11    1    4    4    0    0  0.48292726908E+02  0.15075467182E+02 -0.18052113444E+02  0.53715323538E+02  0.00000000000E+00 0. -1.
        -12    1    4    4    0    0 -0.26015462725E+02 -0.33852244544E+01 -0.46045347518E+02  0.52994698541E+02  0.00000000000E+00 0.  1.
        -11    1    3    3    0    0  0.26893950755E+01  0.33836193184E+02  0.77490585725E+02  0.84598532440E+02  0.00000000000E+00 0.  1.
         11    1    3    3    0    0  0.20869966326E+01 -0.49250799476E+02  0.40861077799E+02  0.64028310011E+02  0.00000000000E+00 0. -1.
          4    1    1    2  501    0 -0.27053655891E+02  0.37243635641E+01  0.76694781751E+01  0.28365332301E+02  0.00000000000E+00 0. -1.
<scales pt_clust_5="13000.00000" pt_clust_6="13000.00000" pt_clust_7="13000.00000" pt_clust_8="13000.00000" pt_clust_9="27.30883"></scales>
<clustering>
<clus scale="   27.309">  2  9  1 -1</clus>
<clus scale="   81.521">  5  6 -1 -1</clus>
<clus scale="   82.866">  2  5  1 -1</clus>
<clus scale="   88.444">  7  8 -1 -1</clus>
<clus scale="   27.309">  2  5  1 -1</clus>
</clustering>
</event>
<event>
 9    1  0.9171696E-005  0.1007946E+03  0.7546771E-02  0.1283666E+00
         -4   -1    0    0    0  501 -0.00000000000E+00  0.00000000000E+00  0.28369900592E+03  0.28369900592E+03  0.00000000000E+00 0.  1.
         21   -1    0    0  501  502  0.00000000000E+00 -0.00000000000E+00 -0.72978477004E+02  0.72978477004E+02  0.00000000000E+00 0.  1.
        -24    2    1    2    0    0  0.36158956316E+02 -0.15962867054E+02  0.18583092164E+03  0.20619368295E+03  0.80127524652E+02 0.  0.
         23    2    1    2    0    0 -0.56664447050E+02  0.24321544295E+02  0.47026060337E+02  0.11917301605E+03  0.90489559216E+02 0.  0.
         13    1    3    3    0    0  0.43550230076E+02 -0.32673550944E+02  0.68756867056E+02  0.87702281831E+02  0.00000000000E+00 0. -1.
        -14    1    3    3    0    0 -0.73912737596E+01  0.16710683891E+02  0.11707405458E+03  0.11849140112E+03  0.00000000000E+00 0.  1.
        -11    1    4    4    0    0  0.12915711502E+02 -0.17462607252E+02 -0.56152149941E+01  0.22434101164E+02  0.00000000000E+00 0. -1.
         11    1    4    4    0    0 -0.69580158552E+02  0.41784151546E+02  0.52641275332E+02  0.96738914885E+02  0.00000000000E+00 0.  1.
         -3    1    1    2    0  502  0.20505490734E+02 -0.83586772406E+01 -0.22136453061E+02  0.31310783919E+02  0.00000000000E+00 0.  1.
<scales pt_clust_5="13000.00000" pt_clust_6="13000.00000" pt_clust_7="13000.00000" pt_clust_8="13000.00000" pt_clust_9="22.14368"></scales>
<clustering>
<clus scale="   22.144">  2  9  1 -1</clus>
<clus scale="   80.128">  5  6 -1 -1</clus>
<clus scale="   90.490">  7  8 -1 -1</clus>
<clus scale="   91.606">  1  5  2 -1</clus>
<clus scale="   22.144">  2  5  1 -1</clus>
</clustering>
</event>
<event>
 9    1  0.9171696E-005  0.2380041E+03  0.7546771E-02  0.1163480E+00
         21   -1    0    0  501  502  0.00000000000E+00  0.00000000000E+00  0.21087174229E+03  0.21087174229E+03  0.00000000000E+00 0.  1.
         -2   -1    0    0    0  501 -0.00000000000E+00 -0.00000000000E+00 -0.46218055103E+03  0.46218055103E+03  0.00000000000E+00 0.  1.
        -24    2    1    2    0    0  0.20884840188E+02  0.21314396235E+02 -0.14038698920E+03  0.16464597274E+03  0.80680292314E+02 0.  0.
         23    2    1    2    0    0 -0.20853801021E+03 -0.11889163064E+03 -0.14385242887E+03  0.29435152871E+03  0.91246806122E+02 0.  0.
         11    1    3    3    0    0  0.31171603215E+02 -0.16541320233E+02 -0.26323035945E+02  0.44024837801E+02  0.00000000000E+00 0. -1.
        -12    1    3    3    0    0 -0.10286763027E+02  0.37855716468E+02 -0.11406395325E+03  0.12062113494E+03  0.00000000000E+00 0.  1.
        -13    1    4    4    0    0 -0.83437103263E+02  0.38160809339E+00 -0.38157533285E+02  0.91749077228E+02  0.00000000000E+00 0.  1.
         13    1    4    4    0    0 -0.12510090695E+03 -0.11927323873E+03 -0.10569489558E+03  0.20260245149E+03  0.00000000000E+00 0. -1.
         -1    1    1    2    0  502  0.18765317002E+03  0.97577234402E+02  0.32930609325E+02  0.21405479187E+03  0.00000000000E+00 0.  1.
<scales pt_clust_5="13000.00000" pt_clust_6="13000.00000" pt_clust_7="13000.00000" pt_clust_8="13000.00000" pt_clust_9="219.81807"></scales>
<clustering>
<clus scale="   80.680">  5  6 -1 -1</clus>
<clus scale="   86.022">  2  5  1 -1</clus>
<clus scale="   91.247">  7  8 -1 -1</clus>
<clus scale="  219.818">  1  9  2 -1</clus>
<clus scale="  219.818">  1  5  2 -1</clus>
</clustering>
</event>
<event>
 9    1  0.9171696E-005  0.2039466E+03  0.7546771E-02  0.1167536E+00
          3   -1    0    0  502    0 -0.00000000000E+00  0.00000000000E+00  0.23232076665E+03  0.23232076665E+03  0.00000000000E+00 0. -1.
         21   -1    0    0  501  502  0.00000000000E+00 -0.00000000000E+00 -0.55506952558E+03  0.55506952558E+03  0.00000000000E+00 0. -1.
         23    2    1    2    0    0  0.27824967003E+02  0.79808200758E+02 -0.77789373004E+02  0.14681310785E+03  0.91429340947E+02 0.  0.
        -24    2    1    2    0    0  0.39847562567E+02 -0.24541024492E+03  0.76283813233E+02  0.27288056854E+03  0.82647250256E+02 0.  0.
         11    1    4    4    0    0  0.36533261566E+02 -0.24814269010E+03  0.83611450527E+02  0.26438674042E+03  0.00000000000E+00 0. -1.
        -12    1    4    4    0    0  0.33143010010E+01  0.27324451868E+01 -0.73276372943E+01  0.84938281205E+01  0.00000000000E+00 0.  1.
        -11    1    3    3    0    0 -0.26946820462E+02  0.59070335111E+02 -0.31509809705E+02  0.72168578556E+02  0.00000000000E+00 0. -1.
         11    1    3    3    0    0  0.54771787465E+02  0.20737865646E+02 -0.46279563299E+02  0.74644529289E+02  0.00000000000E+00 0.  1.
          4    1    1    2  501    0 -0.67672529570E+02  0.16560204416E+03 -0.32124319917E+03  0.36769661584E+03  0.00000000000E+00 0. -1.
<scales pt_clust_5="13000.00000" pt_clust_6="13000.00000" pt_clust_7="13000.00000" pt_clust_8="13000.00000" pt_clust_9="186.45009"></scales>
<clustering>
<clus scale="   82.647">  5  6 -1 -1</clus>
<clus scale="   91.429">  7  8 -1 -1</clus>
<clus scale="  124.511">  1  7  2 -1</clus>
<clus scale="  186.450">  2  9  1 -1</clus>
<clus scale="  186.450">  2  5  1 -1</clus>
</clustering>
</event>
<event>
 9    1  0.9171696E-005  0.1566993E+03  0.7546771E-02  0.1194428E+00
          1   -1    0    0  502    0 -0.00000000000E+00  0.00000000000E+00  0.62891219424E+03  0.62891219424E+03  0.00000000000E+00 0. -1.
         21   -1    0    0  501  502  0.00000000000E+00 -0.00000000000E+00 -0.10505729979E+03  0.10505729979E+03  0.00000000000E+00 0. -1.
         23    2    1    2    0    0  0.97239209577E+02  0.72000413829E+02  0.14937838361E+03  0.21294451065E+03  0.91607530551E+02 0.  0.
        -24    2    1    2    0    0 -0.16924410216E+03  0.36160179750E+02  0.95288852066E+02  0.21308153505E+03  0.79828882824E+02 0.  0.
         13    1    4    4    0    0 -0.11801808740E+03  0.48098145515E+02  0.97461080594E+02  0.16043803410E+03  0.00000000000E+00 0. -1.
        -14    1    4    4    0    0 -0.51226014758E+02 -0.11937965765E+02 -0.21722285279E+01  0.52643500942E+02  0.00000000000E+00 0.  1.
        -11    1    3    3    0    0  0.81219284792E+02  0.45185100479E+02  0.43619119617E+02  0.10266885177E+03  0.00000000000E+00 0. -1.
         11    1    3    3    0    0  0.16019924785E+02  0.26815313350E+02  0.10575926400E+03  0.11027565888E+03  0.00000000000E+00 0.  1.
          2    1    1    2  501    0  0.72004892586E+02 -0.10816059358E+03  0.27918765878E+03  0.30794344834E+03  0.00000000000E+00 0. -1.
<scales pt_clust_5="13000.00000" pt_clust_6="13000.00000" pt_clust_7="13000.00000" pt_clust_8="13000.00000" pt_clust_9="129.93627"></scales>
<clustering>
<clus scale="   79.829">  5  6 -1 -1</clus>
<clus scale="   91.608">  7  8 -1 -1</clus>
<clus scale="  129.936">  2  9  1 -1</clus>
<clus scale="  150.118">  2  5  1 -1</clus>
<clus scale="  129.936">  2  5  1 -1</clus>
</clustering>
</event>
<event>
 9    1  0.9171696E-005  0.1442071E+03  0.7546771E-02  0.1209559E+00
         21   -1    0    0  501  502  0.00000000000E+00  0.00000000000E+00  0.23169618046E+03  0.23169618046E+03  0.00000000000E+00 0.  1.
         -2   -1    0    0    0  501 -0.00000000000E+00 -0.00000000000E+00 -0.56261919235E+03  0.56261919235E+03  0.00000000000E+00 0.  1.
         23    2    1    2    0    0  0.70400055873E+02  0.61236555556E+02 -0.24142454669E+03  0.27410769526E+03  0.90239311018E+02 0.  0.
        -24    2    1    2    0    0 -0.10100385931E+03 -0.92838451787E+02 -0.28133163154E+03  0.32339498400E+03  0.81339234350E+02 0.  0.
         11    1    4    4    0    0 -0.10878100787E+03 -0.90926062210E+02 -0.22122555803E+03  0.26275769063E+03  0.00000000000E+00 0. -1.
        -12    1    4    4    0    0  0.77771485589E+01 -0.19123895763E+01 -0.60106073513E+02  0.60637293366E+02  0.00000000000E+00 0.  1.
        -11    1    3    3    0    0  0.72376658103E+02  0.30686070058E+02 -0.89472116091E+02  0.11910195251E+03  0.00000000000E+00 0.  1.
         11    1    3    3    0    0 -0.19766022305E+01  0.30550485498E+02 -0.15195243060E+03  0.15500574275E+03  0.00000000000E+00 0. -1.
         -1    1    1    2    0  502  0.30603803438E+02  0.31601896230E+02  0.19183316635E+03  0.19681269354E+03  0.00000000000E+00 0.  1.
<scales pt_clust_5="13000.00000" pt_clust_6="13000.00000" pt_clust_7="13000.00000" pt_clust_8="13000.00000" pt_clust_9="43.99173"></scales>
<clustering>
<clus scale="   43.992">  1  9  2 -1</clus>
<clus scale="   81.339">  5  6 -1 -1</clus>
<clus scale="   90.239">  7  8 -1 -1</clus>
<clus scale="  138.811">  1  5  2 -1</clus>
<clus scale="   43.992">  1  5  2 -1</clus>
</clustering>
</event>
<event>
 9    1  0.9171696E-005  0.1661746E+03  0.7546771E-02  0.1189514E+00
          1   -1    0    0  502    0 -0.00000000000E+00  0.00000000000E+00  0.12392912357E+04  0.12392912357E+04  0.00000000000E+00 0. -1.
         21   -1    0    0  501  502  0.00000000000E+00 -0.00000000000E+00 -0.50852181231E+02  0.50852181231E+02  0.00000000000E+00 0. -1.
         23    2    1    2    0    0 -0.93365399374E+02  0.66788033501E+02  0.57047854500E+03  0.58746791190E+03  0.80591798457E+02 0.  0.
        -24    2    1    2    0    0 -0.70872132515E+01 -0.17203579523E+03  0.35502315389E+03  0.40216947898E+03  0.77796571905E+02 0.  0.
         13    1    4    4    0    0 -0.28058147979E+02 -0.74604189481E+02  0.22255167293E+03  0.23639435670E+03  0.00000000000E+00 0. -1.
        -14    1    4    4    0    0  0.20970934727E+02 -0.97431605745E+02  0.13247148096E+03  0.16577512229E+03  0.00000000000E+00 0.  1.
        -11    1    3    3    0    0 -0.55857055457E+02 -0.60471145790E+01  0.28405914781E+03  0.28956204463E+03  0.00000000000E+00 0.  1.
         11    1    3    3    0    0 -0.37508343917E+02  0.72835148080E+02  0.28641939719E+03  0.29790586726E+03  0.00000000000E+00 0. -1.
          2    1    1    2  501    0  0.10045261263E+03  0.10524776172E+03  0.26293735553E+03  0.30050602601E+03  0.00000000000E+00 0. -1.
<scales pt_clust_5="13000.00000" pt_clust_6="13000.00000" pt_clust_7="13000.00000" pt_clust_8="13000.00000" pt_clust_9="146.83903"></scales>
<clustering>
<clus scale="   77.797">  5  6 -1 -1</clus>
<clus scale="   80.592">  7  8 -1 -1</clus>
<clus scale="  140.260">  1  7  2 -1</clus>
<clus scale="  146.839">  2  9  1 -1</clus>
<clus scale="  146.839">  2  5  1 -1</clus>
</clustering>
</event>
<event>
 9    1  0.9171696E-005  0.9141357E+02  0.7546771E-02  0.1305496E+00
          1   -1    0    0  502    0 -0.00000000000E+00  0.00000000000E+00  0.40048509907E+03  0.40048509907E+03  0.00000000000E+00 0. -1.
         21   -1    0    0  501  502  0.00000000000E+00 -0.00000000000E+00 -0.44501819152E+02  0.44501819152E+02  0.00000000000E+00 0.  1.
         23    2    1    2    0    0  0.56266998103E+00  0.16544772150E+02  0.27216010844E+03  0.28695372054E+03  0.89427439992E+02 0.  0.
        -24    2    1    2    0    0  0.20050269127E+02 -0.28918577502E+02  0.19261400571E+02  0.89140334623E+02  0.79603393696E+02 0.  0.
         11    1    4    4    0    0  0.13147276227E+02 -0.20614463675E+02  0.50489381839E+02  0.56097991615E+02  0.00000000000E+00 0. -1.
        -12    1    4    4    0    0  0.69029929007E+01 -0.83041138265E+01 -0.31227981267E+02  0.33042343008E+02  0.00000000000E+00 0.  1.
        -11    1    3    3    0    0  0.34342853131E+02  0.36976554503E+02  0.13123903458E+03  0.14060718808E+03  0.00000000000E+00 0.  1.
         11    1    3    3    0    0 -0.33780183150E+02 -0.20431782353E+02  0.14092107386E+03  0.14634653246E+03  0.00000000000E+00 0. -1.
          2    1    1    2  501    0 -0.20612939108E+02  0.12373805351E+02  0.64561770908E+02  0.68892863058E+02  0.00000000000E+00 0. -1.
<scales pt_clust_5="13000.00000" pt_clust_6="13000.00000" pt_clust_7="13000.00000" pt_clust_8="13000.00000" pt_clust_9="24.04173"></scales>
<clustering>
<clus scale="   24.042">  2  9  1 -1</clus>
<clus scale="   79.603">  5  6 -1 -1</clus>
<clus scale="   81.828">  2  5  1 -1</clus>
<clus scale="   89.427">  7  8 -1 -1</clus>
<clus scale="   24.042">  2  5  1 -1</clus>
</clustering>
</event>
<event>
 9    1  0.9171696E-005  0.9656626E+02  0.7546771E-02  0.1297232E+00
         -2   -1    0    0    0  501 -0.00000000000E+00  0.00000000000E+00  0.20486402039E+03  0.20486402039E+03  0.00000000000E+00 0.  1.
         21   -1    0    0  501  502  0.00000000000E+00 -0.00000000000E+00 -0.15111469673E+03  0.15111469673E+03  0.00000000000E+00 0.  1.
        -24    2    1    2    0    0 -0.12694136334E+02 -0.37249258820E+02  0.14612548957E+03  0.16854412547E+03  0.74201180232E+02 0.  0.
         23    2    1    2    0    0 -0.15984565420E+02 -0.23003002360E+02 -0.64673845997E+02  0.11518349173E+03  0.91103709921E+02 0.  0.
         13    1    3    3    0    0 -0.32892528284E+02  0.85015262314E+01  0.60127997148E+02  0.69062076469E+02  0.00000000000E+00 0. -1.
        -14    1    3    3    0    0  0.20198391950E+02 -0.45750785052E+02  0.85997492422E+02  0.99482048999E+02  0.00000000000E+00 0.  1.
        -11    1    4    4    0    0  0.11215577116E+01 -0.55064880473E+02 -0.54414787352E+02  0.77423304216E+02  0.00000000000E+00 0.  1.
         11    1    4    4    0    0 -0.17106123131E+02  0.32061878113E+02 -0.10259058646E+02  0.37760187513E+02  0.00000000000E+00 0. -1.
         -1    1    1    2    0  502  0.28678701753E+02  0.60252261180E+02 -0.27702319908E+02  0.72251099922E+02  0.00000000000E+00 0.  1.
<scales pt_clust_5="13000.00000" pt_clust_6="13000.00000" pt_clust_7="13000.00000" pt_clust_8="13000.00000" pt_clust_9="66.72933"></scales>
<clustering>
<clus scale="   66.729">  2  9  1 -1</clus>
<clus scale="   74.201">  5  6 -1 -1</clus>
<clus scale="   80.814">  1  5  2 -1</clus>
<clus scale="   91.104">  7  8 -1 -1</clus>
<clus scale="   66.729">  2  5  1 -1</clus>
</clustering>
</event>
<event>
 9    1  0.9171696E-005  0.1421872E+03  0.7546771E-02  0.1212485E+00
         21   -1    0    0  501  502  0.00000000000E+00  0.00000000000E+00  0.34791882120E+03  0.34791882120E+03  0.00000000000E+00 0. -1.
          1   -1    0    0  502    0 -0.00000000000E+00 -0.00000000000E+00 -0.39892905286E+03  0.39892905286E+03  0.00000000000E+00 0. -1.
         23    2    1    2    0    0  0.11771356128E+02  0.75439237683E+02 -0.10081589421E+03  0.15541524155E+03  0.90334984223E+02 0.  0.
        -24    2    1    2    0    0 -0.11618391479E+03 -0.10900014438E+03 -0.22988938778E+03  0.29100354263E+03  0.80338021365E+02 0.  0.
         11    1    4    4    0    0 -0.66676748058E+02 -0.10974290511E+02 -0.10304438588E+03  0.12322487268E+03  0.00000000000E+00 0. -1.
        -12    1    4    4    0    0 -0.49507166737E+02 -0.98025853871E+02 -0.12684500190E+03  0.16777866995E+03  0.00000000000E+00 0.  1.
        -13    1    3    3    0    0 -0.48472458142E+01  0.61221679196E+02 -0.11427735148E+03  0.12973396955E+03  0.00000000000E+00 0.  1.
         13    1    3    3    0    0  0.16618601943E+02  0.14217558487E+02  0.13461457266E+02  0.25681272001E+02  0.00000000000E+00 0. -1.
          2    1    1    2  501    0  0.10441255867E+03  0.33560906699E+02  0.27969505033E+03  0.30042908988E+03  0.00000000000E+00 0. -1.
<scales pt_clust_5="13000.00000" pt_clust_6="13000.00000" pt_clust_7="13000.00000" pt_clust_8="13000.00000" pt_clust_9="109.67368"></scales>
<clustering>
<clus scale="   80.338">  5  6 -1 -1</clus>
<clus scale="   90.335">  7  8 -1 -1</clus>
<clus scale="  109.674">  1  9  2 -1</clus>
<clus scale="  136.055">  1  5  2 -1</clus>
<clus scale="  109.674">  1  5  2 -1</clus>
</clustering>
</event>
<event>
 9    1  0.9171696E-005  0.9845173E+02  0.7546771E-02  0.1288771E+00
         21   -1    0    0  501  502  0.00000000000E+00  0.00000000000E+00  0.39989473100E+02  0.39989473100E+02  0.00000000000E+00 0.  1.
          1   -1    0    0  502    0 -0.00000000000E+00 -0.00000000000E+00 -0.38712244112E+03  0.38712244112E+03  0.00000000000E+00 0. -1.
        -24    2    1    2    0    0 -0.32430159512E+02 -0.38145268748E+02 -0.15825161148E+03  0.18453513785E+03  0.80640360814E+02 0.  0.
         23    2    1    2    0    0 -0.57379387120E+00  0.21304417798E+02 -0.65825658796E+02  0.11406382003E+03  0.90682579509E+02 0.  0.
         13    1    3    3    0    0 -0.31250192138E+01  0.24454517501E+02 -0.29876239275E+02  0.38734724015E+02  0.00000000000E+00 0. -1.
        -14    1    3    3    0    0 -0.29305140299E+02 -0.62599786249E+02 -0.12837537221E+03  0.14580041384E+03  0.00000000000E+00 0.  1.
        -11    1    4    4    0    0 -0.30750766702E+02  0.27148231447E+02  0.43347516898E+00  0.41022238166E+02  0.00000000000E+00 0.  1.
         11    1    4    4    0    0  0.30176972831E+02 -0.58438136487E+01 -0.66259133965E+02  0.73041581862E+02  0.00000000000E+00 0. -1.
          2    1    1    2  501    0  0.33003953384E+02  0.16840850950E+02 -0.12305569774E+03  0.12851295633E+03  0.00000000000E+00 0. -1.
<scales pt_clust_5="13000.00000" pt_clust_6="13000.00000" pt_clust_7="13000.00000" pt_clust_8="13000.00000" pt_clust_9="37.05235"></scales>
<clustering>
<clus scale="   37.052">  1  9  2 -1</clus>
<clus scale="   80.640">  5  6 -1 -1</clus>
<clus scale="   89.288">  2  5  1 -1</clus>
<clus scale="   90.683">  7  8 -1 -1</clus>
<clus scale="   37.052">  1  5  2 -1</clus>
</clustering>
</event>
<event>
 9    1  0.9171696E-005  0.1084479E+03  0.7546771E-02  0.1268349E+00
          1   -1    0    0  502    0 -0.00000000000E+00  0.00000000000E+00  0.21860413560E+03  0.21860413560E+03  0.00000000000E+00 0. -1.
         21   -1    0    0  501  502  0.00000000000E+00 -0.00000000000E+00 -0.98163147082E+02  0.98163147082E+02  0.00000000000E+00 0. -1.
         23    2    1    2    0    0 -0.37211109975E+02  0.25930053589E+02  0.94248050832E+02  0.13938873010E+03  0.92138420916E+02 0.  0.
        -24    2    1    2    0    0  0.44734045970E+02 -0.61855652073E+02  0.61247043864E+02  0.12662391189E+03  0.80343998638E+02 0.  0.
         13    1    4    4    0    0 -0.61245945141E+01 -0.51313243600E+02  0.53016796051E+02  0.74036074249E+02  0.00000000000E+00 0. -1.
        -14    1    4    4    0    0  0.50858640484E+02 -0.10542408473E+02  0.82302478127E+01  0.52587837637E+02  0.00000000000E+00 0.  1.
        -11    1    3    3    0    0 -0.66105524199E+02  0.21544588318E+02  0.82500098545E+02  0.10789057362E+03  0.00000000000E+00 0. -1.
         11    1    3    3    0    0  0.28894414224E+02  0.43854652712E+01  0.11747952287E+02  0.31498156484E+02  0.00000000000E+00 0.  1.
          2    1    1    2  501    0 -0.75229359952E+01  0.35925598484E+02 -0.35054106176E+02  0.50754640697E+02  0.00000000000E+00 0. -1.
<scales pt_clust_5="13000.00000" pt_clust_6="13000.00000" pt_clust_7="13000.00000" pt_clust_8="13000.00000" pt_clust_9="36.70481"></scales>
<clustering>
<clus scale="   36.705">  2  9  1 -1</clus>
<clus scale="   80.344">  5  6 -1 -1</clus>
<clus scale="   92.138">  7  8 -1 -1</clus>
<clus scale="   98.624">  2  5  1 -1</clus>
<clus scale="   36.705">  2  5  1 -1</clus>
</clustering>
</event>
<event>
 9    1  0.9171696E-005  0.1500871E+03  0.7546771E-02  0.1200686E+00
         21   -1    0    0  501  502  0.00000000000E+00  0.00000000000E+00  0.23046908454E+03  0.23046908454E+03  0.00000000000E+00 0. -1.
         -2   -1    0    0    0  501 -0.00000000000E+00 -0.00000000000E+00 -0.26760979292E+03  0.26760979292E+03  0.00000000000E+00 0.  1.
        -24    2    1    2    0    0  0.51932376336E+02  0.95992400729E+02 -0.13624521620E+03  0.19632615753E+03  0.89831444843E+02 0.  0.
         23    2    1    2    0    0 -0.82932671931E+02 -0.11723761264E+03 -0.24960413190E+02  0.17212061748E+03  0.91542333625E+02 0.  0.
         11    1    3    3    0    0  0.53103430900E+02  0.48029880276E+02 -0.26143456059E+02  0.76225481746E+02  0.00000000000E+00 0. -1.
        -12    1    3    3    0    0 -0.11710545635E+01  0.47962520453E+02 -0.11010176014E+03  0.12010067578E+03  0.00000000000E+00 0.  1.
        -11    1    4    4    0    0  0.11066828593E+02 -0.52721602470E+02 -0.21663187727E+02  0.58063204912E+02  0.00000000000E+00 0.  1.
         11    1    4    4    0    0 -0.93999500525E+02 -0.64516010170E+02 -0.32972254629E+01  0.11405741257E+03  0.00000000000E+00 0. -1.
         -1    1    1    2    0  502  0.31000295595E+02  0.21245211911E+02  0.12406492102E+03  0.12963210244E+03  0.00000000000E+00 0.  1.
<scales pt_clust_5="13000.00000" pt_clust_6="13000.00000" pt_clust_7="13000.00000" pt_clust_8="13000.00000" pt_clust_9="37.58161"></scales>
<clustering>
<clus scale="   37.582">  1  9  2 -1</clus>
<clus scale="   89.831">  5  6 -1 -1</clus>
<clus scale="   91.542">  7  8 -1 -1</clus>
<clus scale="  149.050">  2  5  1 -1</clus>
<clus scale="   37.582">  1  5  2 -1</clus>
</clustering>
</event>
<event>
 9    1  0.9171696E-005  0.1013596E+03  0.7546771E-02  0.1282941E+00
         21   -1    0    0  501  502  0.00000000000E+00  0.00000000000E+00  0.10685452894E+03  0.10685452894E+03  0.00000000000E+00 0.  1.
          3   -1    0    0  502    0 -0.00000000000E+00 -0.00000000000E+00 -0.22575018305E+03  0.22575018305E+03  0.00000000000E+00 0. -1.
         23    2    1    2    0    0  0.35069285606E+02  0.12333662670E+02 -0.14188968881E+03  0.17249278580E+03  0.90769506640E+02 0.  0.
        -24    2    1    2    0    0 -0.73928762561E+02 -0.33599455890E+02  0.22628836640E+02  0.11581264538E+03  0.79411077387E+02 0.  0.
         13    1    4    4    0    0 -0.41638113012E+02 -0.55691033079E+02 -0.20304976505E+01  0.69565411961E+02  0.00000000000E+00 0. -1.
        -14    1    4    4    0    0 -0.32290649549E+02  0.22091577189E+02  0.24659334291E+02  0.46247233416E+02  0.00000000000E+00 0.  1.
        -11    1    3    3    0    0  0.59864957293E+01 -0.37136869938E+02 -0.36075976848E+02  0.52119682899E+02  0.00000000000E+00 0.  1.
         11    1    3    3    0    0  0.29082789877E+02  0.49470532608E+02 -0.10581371196E+03  0.12037310290E+03  0.00000000000E+00 0. -1.
          4    1    1    2  501    0  0.38859476955E+02  0.21265793220E+02  0.36519806138E+00  0.44299280808E+02  0.00000000000E+00 0. -1.
<scales pt_clust_5="13000.00000" pt_clust_6="13000.00000" pt_clust_7="13000.00000" pt_clust_8="13000.00000" pt_clust_9="44.29778"></scales>
<clustering>
<clus scale="   44.298">  1  9  2 -1</clus>
<clus scale="   79.411">  5  6 -1 -1</clus>
<clus scale="   90.770">  7  8 -1 -1</clus>
<clus scale="   91.328">  1  5  2 -1</clus>
<clus scale="   44.298">  1  5  2 -1</clus>
</clustering>
</event>
<event>
 9    1  0.9171696E-005  0.1399638E+03  0.7546771E-02  0.1239306E+00
         21   -1    0    0  501  502  0.00000000000E+00  0.00000000000E+00  0.31312799010E+02  0.31312799010E+02  0.00000000000E+00 0.  1.
          1   -1    0    0  502    0 -0.00000000000E+00 -0.00000000000E+00 -0.89219197888E+03  0.89219197888E+03  0.00000000000E+00 0. -1.
        -24    2    1    2    0    0  0.68359013691E+01 -0.13512899501E+02 -0.28380031311E+03  0.29531734353E+03  0.80252025921E+02 0.  0.
         23    2    1    2    0    0  0.27611621301E+01 -0.98606348361E+02 -0.28830897602E+03  0.31826667164E+03  0.91873677794E+02 0.  0.
         11    1    3    3    0    0  0.43442122567E+02 -0.33062754251E+01 -0.15877526164E+03  0.16464426251E+03  0.00000000000E+00 0. -1.
        -12    1    3    3    0    0 -0.36606221198E+02 -0.10206624076E+02 -0.12502505147E+03  0.13067308101E+03  0.00000000000E+00 0.  1.
        -11    1    4    4    0    0 -0.34734253870E+02 -0.71824223198E+02 -0.23298857298E+03  0.24626989781E+03  0.00000000000E+00 0. -1.
         11    1    4    4    0    0  0.37495416000E+02 -0.26782125164E+02 -0.55320403040E+02  0.71996773829E+02  0.00000000000E+00 0.  1.
          2    1    1    2  501    0 -0.95970634992E+01  0.11211924786E+03 -0.28876989074E+03  0.30992076272E+03  0.00000000000E+00 0. -1.
<scales pt_clust_5="13000.00000" pt_clust_6="13000.00000" pt_clust_7="13000.00000" pt_clust_8="13000.00000" pt_clust_9="105.58932"></scales>
<clustering>
<clus scale="   80.252">  5  6 -1 -1</clus>
<clus scale="   81.668">  2  5  1 -1</clus>
<clus scale="   91.874">  7  8 -1 -1</clus>
<clus scale="  105.589">  1  9  2 -1</clus>
<clus scale="  105.589">  1  5  2 -1</clus>
</clustering>
</event>
<event>
 9    1  0.9171696E-005  0.8641774E+02  0.7546771E-02  0.1314260E+00
         -4   -1    0    0    0  501 -0.00000000000E+00  0.00000000000E+00  0.17407469839E+03  0.17407469839E+03  0.00000000000E+00 0.  1.
         21   -1    0    0  501  502  0.00000000000E+00 -0.00000000000E+00 -0.11221671975E+03  0.11221671975E+03  0.00000000000E+00 0. -1.
         23    2    1    2    0    0 -0.19422190379E+02  0.78807368420E+01  0.12907691481E+03  0.15557815424E+03  0.84287511807E+02 0.  0.
        -24    2    1    2    0    0  0.15216228839E+02  0.18759232166E+02 -0.42276640542E+02  0.93977774618E+02  0.80380752517E+02 0.  0.
         11    1    4    4    0    0  0.16683467596E+01  0.47749948567E+02 -0.39252180479E+02  0.61835059970E+02  0.00000000000E+00 0. -1.
        -12    1    4    4    0    0  0.13547882079E+02 -0.28990716401E+02 -0.30244600630E+01  0.32142714649E+02  0.00000000000E+00 0.  1.
        -13    1    3    3    0    0 -0.20519619845E+02 -0.32485074977E+02  0.95918042242E+02  0.10332766194E+03  0.00000000000E+00 0.  1.
         13    1    3    3    0    0  0.10974294659E+01  0.40365811819E+02  0.33158872573E+02  0.52250492299E+02  0.00000000000E+00 0. -1.
         -3    1    1    2    0  502  0.42059615402E+01 -0.26639969008E+02 -0.24942295634E+02  0.36735489281E+02  0.00000000000E+00 0.  1.
<scales pt_clust_5="13000.00000" pt_clust_6="13000.00000" pt_clust_7="13000.00000" pt_clust_8="13000.00000" pt_clust_9="26.96995"></scales>
<clustering>
<clus scale="   26.970">  2  9  1 -1</clus>
<clus scale="   80.381">  5  6 -1 -1</clus>
<clus scale="   82.612">  2  5  1 -1</clus>
<clus scale="   84.288">  7  8 -1 -1</clus>
<clus scale="   26.970">  2  5  1 -1</clus>
</clustering>
</event>
<event>
 9    1  0.9171696E-005  0.1623903E+03  0.7546771E-02  0.1219273E+00
         21   -1    0    0  501  502  0.00000000000E+00  0.00000000000E+00  0.88959625054E+02  0.88959625054E+02  0.00000000000E+00 0. -1.
          1   -1    0    0  502    0 -0.00000000000E+00 -0.00000000000E+00 -0.73144374672E+03  0.73144374672E+03  0.00000000000E+00 0. -1.
        -24    2    1    2    0    0 -0.92562375511E-01 -0.74104460465E+01  0.29070745065E+02  0.84291813634E+02  0.78772319685E+02 0.  0.
         23    2    1    2    0    0  0.41336421134E+02  0.13406186261E+03 -0.31998367003E+03  0.36015418882E+03  0.87408282881E+02 0.  0.
         11    1    3    3    0    0 -0.23758173802E+02 -0.21825505713E+02 -0.12276065081E+02  0.34518187900E+02  0.00000000000E+00 0. -1.
        -12    1    3    3    0    0  0.23665611427E+02  0.14415059666E+02  0.41346810146E+02  0.49773625733E+02  0.00000000000E+00 0.  1.
        -13    1    4    4    0    0  0.22269917166E+02  0.24890833812E+02 -0.17233248871E+03  0.17553913946E+03  0.00000000000E+00 0.  1.
         13    1    4    4    0    0  0.19066503968E+02  0.10917102879E+03 -0.14765118132E+03  0.18461504935E+03  0.00000000000E+00 0. -1.
          2    1    1    2  501    0 -0.41243858758E+02 -0.12665141656E+03 -0.35157119670E+03  0.37595736932E+03  0.00000000000E+00 0. -1.
<scales pt_clust_5="13000.00000" pt_clust_6="13000.00000" pt_clust_7="13000.00000" pt_clust_8="13000.00000" pt_clust_9="136.85910"></scales>
<clustering>
<clus scale="   78.772">  5  6 -1 -1</clus>
<clus scale="   79.120">  2  5  1 -1</clus>
<clus scale="   87.408">  7  8 -1 -1</clus>
<clus scale="  136.859">  1  9  2 -1</clus>
<clus scale="  136.859">  1  5  2 -1</clus>
</clustering>
</event>
<event>
 9    1  0.9171696E-005  0.9087963E+02  0.7546771E-02  0.1306310E+00
         21   -1    0    0  501  502  0.00000000000E+00  0.00000000000E+00  0.55009618454E+02  0.55009618454E+02  0.00000000000E+00 0.  1.
          3   -1    0    0  502    0 -0.00000000000E+00 -0.00000000000E+00 -0.63187037947E+03  0.63187037947E+03  0.00000000000E+00 0. -1.
         23    2    1    2    0    0  0.25457187638E+01  0.33604609361E+02 -0.49394385825E+03  0.50288091203E+03  0.88164199777E+02 0.  0.
        -24    2    1    2    0    0  0.14403344165E+02  0.37181665834E+02 -0.62632411351E+02  0.10843832834E+03  0.79032395282E+02 0.  0.
         11    1    4    4    0    0 -0.22980337486E+02  0.67277767081E+01 -0.54514784178E+02  0.59541754966E+02  0.00000000000E+00 0. -1.
        -12    1    4    4    0    0  0.37383681651E+02  0.30453889126E+02 -0.81176271725E+01  0.48896573373E+02  0.00000000000E+00 0.  1.
        -13    1    3    3    0    0  0.43448117128E+02  0.44988621801E+01 -0.20410638391E+03  0.20872803979E+03  0.00000000000E+00 0.  1.
         13    1    3    3    0    0 -0.40902398364E+02  0.29105747181E+02 -0.28983747434E+03  0.29415287224E+03  0.00000000000E+00 0. -1.
          4    1    1    2  501    0 -0.16949062929E+02 -0.70786275195E+02 -0.20284491407E+02  0.75560757552E+02  0.00000000000E+00 0. -1.
<scales pt_clust_5="13000.00000" pt_clust_6="13000.00000" pt_clust_7="13000.00000" pt_clust_8="13000.00000" pt_clust_9="72.78714"></scales>
<clustering>
<clus scale="   72.787">  1  9  2 -1</clus>
<clus scale="   79.032">  5  6 -1 -1</clus>
<clus scale="   82.051">  1  5  2 -1</clus>
<clus scale="   88.164">  7  8 -1 -1</clus>
<clus scale="   72.787">  1  5  2 -1</clus>
</clustering>
</event>
<event>
 9    1  0.9171696E-005  0.1827050E+03  0.7546771E-02  0.1166387E+00
          1   -1    0    0  502    0 -0.00000000000E+00  0.00000000000E+00  0.31017772268E+03  0.31017772268E+03  0.00000000000E+00 0. -1.
         21   -1    0    0  501  502  0.00000000000E+00 -0.00000000000E+00 -0.12352210763E+03  0.12352210763E+03  0.00000000000E+00 0.  1.
        -24    2    1    2    0    0  0.12781671585E+03  0.83771819261E+02  0.10828630414E+03  0.20518090071E+03  0.83776176791E+02 0.  0.
         23    2    1    2    0    0 -0.12139919706E+03 -0.10922924057E+03  0.71340556916E+02  0.20134047802E+03  0.93700165351E+02 0.  0.
         11    1    3    3    0    0  0.47616609907E+02  0.44429964719E+02  0.94538365393E+02  0.11479924144E+03  0.00000000000E+00 0. -1.
        -12    1    3    3    0    0  0.80200105947E+02  0.39341854542E+02  0.13747938750E+02  0.90381659271E+02  0.00000000000E+00 0.  1.
        -11    1    4    4    0    0 -0.10242542136E+03 -0.12485084472E+03  0.50743614924E+02  0.16927378658E+03  0.00000000000E+00 0.  1.
         11    1    4    4    0    0 -0.18973775694E+02  0.15621604150E+02  0.20596941992E+02  0.32066691437E+02  0.00000000000E+00 0. -1.
          2    1    1    2  501    0 -0.64175187955E+01  0.25457421308E+02  0.70287539900E+01  0.27178451571E+02  0.00000000000E+00 0. -1.
<scales pt_clust_5="13000.00000" pt_clust_6="13000.00000" pt_clust_7="13000.00000" pt_clust_8="13000.00000" pt_clust_9="26.25385"></scales>
<clustering>
<clus scale="   26.254">  2  9  1 -1</clus>
<clus scale="   83.776">  5  6 -1 -1</clus>
<clus scale="   93.700">  7  8 -1 -1</clus>
<clus scale="  177.820">  1  5  2 -1</clus>
<clus scale="   26.254">  2  5  1 -1</clus>
</clustering>
</event>
<event>
 9    1  0.9171696E-005  0.1551192E+03  0.7546771E-02  0.1204737E+00
          1   -1    0    0  502    0 -0.00000000000E+00  0.00000000000E+00  0.13907990349E+03  0.13907990349E+03  0.00000000000E+00 0. -1.
         21   -1    0    0  501  502  0.00000000000E+00 -0.00000000000E+00 -0.80796222118E+03  0.80796222118E+03  0.00000000000E+00 0. -1.
         23    2    1    2    0    0  0.81818965252E+02 -0.20138591805E+02 -0.17093090628E+03  0.21098814151E+03  0.90546756865E+02 0.  0.
        -24    2    1    2    0    0 -0.13808113150E+02  0.13452475650E+03  0.54834197549E+02  0.16747540447E+03  0.82180580321E+02 0.  0.
         11    1    4    4    0    0 -0.54374330091E+01  0.13892467401E+03  0.65100222673E+02  0.15351765279E+03  0.00000000000E+00 0. -1.
        -12    1    4    4    0    0 -0.83706801409E+01 -0.43999175105E+01 -0.10266025124E+02  0.13957751680E+02  0.00000000000E+00 0.  1.
        -13    1    3    3    0    0  0.70452995579E+01 -0.43903634456E+02 -0.73369201534E+02  0.85791637693E+02  0.00000000000E+00 0.  1.
         13    1    3    3    0    0  0.74773665694E+02  0.23765042651E+02 -0.97561704751E+02  0.12519650382E+03  0.00000000000E+00 0. -1.
          2    1    1    2  501    0 -0.68010852102E+02 -0.11438616469E+03 -0.55278560895E+03  0.56857857869E+03  0.00000000000E+00 0. -1.
<scales pt_clust_5="13000.00000" pt_clust_6="13000.00000" pt_clust_7="13000.00000" pt_clust_8="13000.00000" pt_clust_9="131.56106"></scales>
<clustering>
<clus scale="   82.181">  5  6 -1 -1</clus>
<clus scale="   90.547">  7  8 -1 -1</clus>
<clus scale="  123.688">  1  7  2 -1</clus>
<clus scale="  131.561">  2  9  1 -1</clus>
<clus scale="  131.561">  2  5  1 -1</clus>
</clustering>
</event>
<event>
 9    1  0.9171696E-005  0.1209581E+03  0.7546771E-02  0.1256066E+00
         21   -1    0    0  501  502  0.00000000000E+00  0.00000000000E+00  0.60556677755E+02  0.60556677755E+02  0.00000000000E+00 0.  1.
         -4   -1    0    0    0  501 -0.00000000000E+00 -0.00000000000E+00 -0.41026201435E+03  0.41026201435E+03  0.00000000000E+00 0.  1.
        -24    2    1    2    0    0 -0.40422963523E+02  0.13314418338E+02 -0.75774698374E+02  0.11796499007E+03  0.79766184893E+02 0.  0.
         23    2    1    2    0    0 -0.27699968932E+02  0.46444324659E+02 -0.22907316581E+03  0.25173973603E+03  0.89297345033E+02 0.  0.
         13    1    3    3    0    0 -0.38870196422E+02 -0.33716423352E+01 -0.88634171420E+02  0.96841501874E+02  0.00000000000E+00 0. -1.
        -14    1    3    3    0    0 -0.15527671012E+01  0.16686060673E+02  0.12859473046E+02  0.21123488194E+02  0.00000000000E+00 0.  1.
        -11    1    4    4    0    0  0.40559096166E+01  0.57197103021E+02 -0.19761145664E+03  0.20576259813E+03  0.00000000000E+00 0.  1.
         11    1    4    4    0    0 -0.31755878549E+02 -0.10752778362E+02 -0.31461709172E+02  0.45977137894E+02  0.00000000000E+00 0. -1.
         -3    1    1    2    0  502  0.68122932455E+02 -0.59758742997E+02 -0.44857472411E+02  0.10111396601E+03  0.00000000000E+00 0.  1.
<scales pt_clust_5="13000.00000" pt_clust_6="13000.00000" pt_clust_7="13000.00000" pt_clust_8="13000.00000" pt_clust_9="81.58954"></scales>
<clustering>
<clus scale="   79.766">  5  6 -1 -1</clus>
<clus scale="   89.297">  7  8 -1 -1</clus>
<clus scale="   90.410">  2  5  1 -1</clus>
<clus scale="   81.590">  1  9  2 -1</clus>
<clus scale="   81.590">  1  5  2 -1</clus>
</clustering>
</event>
<event>
 9    1  0.9171696E-005  0.1347933E+03  0.7546771E-02  0.1226281E+00
         21   -1    0    0  501  502  0.00000000000E+00  0.00000000000E+00  0.97647357854E+02  0.97647357854E+02  0.00000000000E+00 0. -1.
          1   -1    0    0  502    0 -0.00000000000E+00 -0.00000000000E+00 -0.71529701491E+03  0.71529701491E+03  0.00000000000E+00 0. -1.
        -24    2    1    2    0    0  0.75387872376E+02 -0.26395213798E+02 -0.36374760636E+03  0.38143255558E+03  0.82452621013E+02 0.  0.
         23    2    1    2    0    0 -0.85653819391E+02  0.48969413422E+02 -0.32563498156E+03  0.35561321690E+03  0.10338297050E+03 0.  0.
         11    1    3    3    0    0  0.67456598948E+02 -0.26782950494E+02 -0.36604107658E+03  0.37316723988E+03  0.00000000000E+00 0. -1.
        -12    1    3    3    0    0  0.79312734276E+01  0.38773669567E+00  0.22934702200E+01  0.82653156974E+01  0.00000000000E+00 0.  1.
        -11    1    4    4    0    0 -0.35745973776E+02  0.33182752479E+02 -0.28554297618E+03  0.28967854762E+03  0.00000000000E+00 0. -1.
         11    1    4    4    0    0 -0.49907845615E+02  0.15786660944E+02 -0.40092005377E+02  0.65934669279E+02  0.00000000000E+00 0.  1.
          2    1    1    2  501    0  0.10265947016E+02 -0.22574199624E+02  0.71732930858E+02  0.75898600292E+02  0.00000000000E+00 0. -1.
<scales pt_clust_5="13000.00000" pt_clust_6="13000.00000" pt_clust_7="13000.00000" pt_clust_8="13000.00000" pt_clust_9="24.79887"></scales>
<clustering>
<clus scale="   24.799">  1  9  2 -1</clus>
<clus scale="   82.453">  5  6 -1 -1</clus>
<clus scale="  103.383">  7  8 -1 -1</clus>
<clus scale="  119.497">  2  5  1 -1</clus>
<clus scale="   24.799">  1  5  2 -1</clus>
</clustering>
</event>
<event>
 9    1  0.1100391E-004  0.1164581E+03  0.7546771E-02  0.1258557E+00
         21   -1    0    0  501  502  0.00000000000E+00  0.00000000000E+00  0.24643509092E+03  0.24643509092E+03  0.00000000000E+00 0. -1.
         -4   -1    0    0    0  501 -0.00000000000E+00 -0.00000000000E+00 -0.13919288752E+03  0.13919288752E+03  0.00000000000E+00 0.  1.
        -24    2    1    2    0    0  0.45577650806E+02 -0.25011280953E+02 -0.94206035999E+02  0.13395197224E+03  0.79783878198E+02 0.  0.
         23    2    1    2    0    0 -0.67738608110E+02  0.32037834337E+02  0.16591561552E+03  0.20921369537E+03  0.10308946115E+03 0.  0.
         13    1    3    3    0    0  0.13690615848E+02  0.18277067609E+02  0.28358984191E+01  0.23011442426E+02  0.00000000000E+00 0. -1.
        -14    1    3    3    0    0  0.31887034958E+02 -0.43288348563E+02 -0.97041934418E+02  0.11094052981E+03  0.00000000000E+00 0.  1.
        -11    1    4    4    0    0 -0.95154858920E+02  0.29064773871E+02  0.12302385754E+03  0.15822160971E+03  0.00000000000E+00 0. -1.
         11    1    4    4    0    0  0.27416250810E+02  0.29730604659E+01  0.42891757978E+02  0.50992085655E+02  0.00000000000E+00 0.  1.
         -3    1    1    2    0  502  0.22160957304E+02 -0.70265533837E+01  0.35532623876E+02  0.42462310825E+02  0.00000000000E+00 0.  1.
<scales pt_clust_5="13000.00000" pt_clust_6="13000.00000" pt_clust_7="13000.00000" pt_clust_8="13000.00000" pt_clust_9="23.24824"></scales>
<clustering>
<clus scale="   23.248">  1  9  2 -1</clus>
<clus scale="   79.784">  5  6 -1 -1</clus>
<clus scale="   96.439">  2  5  1 -1</clus>
<clus scale="  103.089">  7  8 -1 -1</clus>
<clus scale="   23.248">  1  5  2 -1</clus>
</clustering>
</event>
<event>
 9    1  0.9171696E-005  0.1446176E+03  0.7546771E-02  0.1209062E+00
          1   -1    0    0  502    0 -0.00000000000E+00  0.00000000000E+00  0.15309763197E+03  0.15309763197E+03  0.00000000000E+00 0. -1.
         21   -1    0    0  501  502  0.00000000000E+00 -0.00000000000E+00 -0.41548015369E+03  0.41548015369E+03  0.00000000000E+00 0. -1.
        -24    2    1    2    0    0  0.11216679251E+03  0.99641102144E+01  0.30723171759E+02  0.14199115981E+03  0.80851118408E+02 0.  0.
         23    2    1    2    0    0 -0.93569532864E+02 -0.10070091575E+03 -0.58589983902E+02  0.17444253216E+03  0.90008215728E+02 0.  0.
         13    1    3    3    0    0  0.70762198357E+02  0.14745202656E+02  0.57575701330E+02  0.92410340878E+02  0.00000000000E+00 0. -1.
        -14    1    3    3    0    0  0.41404594154E+02 -0.47810924411E+01 -0.26852529570E+02  0.49580818936E+02  0.00000000000E+00 0.  1.
        -11    1    4    4    0    0 -0.36083505069E+02 -0.99240324873E+02 -0.47899495701E+02  0.11595267615E+03  0.00000000000E+00 0. -1.
         11    1    4    4    0    0 -0.57486027795E+02 -0.14605908780E+01 -0.10690488201E+02  0.58489856003E+02  0.00000000000E+00 0.  1.
          2    1    1    2  501    0 -0.18597259647E+02  0.90736805536E+02 -0.23451570957E+03  0.25214409369E+03  0.00000000000E+00 0. -1.
<scales pt_clust_5="13000.00000" pt_clust_6="13000.00000" pt_clust_7="13000.00000" pt_clust_8="13000.00000" pt_clust_9="92.62303"></scales>
<clustering>
<clus scale="   80.851">  5  6 -1 -1</clus>
<clus scale="   90.008">  7  8 -1 -1</clus>
<clus scale="   92.623">  2  9  1 -1</clus>
<clus scale="  139.103">  1  5  2 -1</clus>
<clus scale="   92.623">  2  5  1 -1</clus>
</clustering>
</event>
<event>
 9    1  0.9171696E-005  0.1738932E+03  0.7546771E-02  0.1176317E+00
         21   -1    0    0  501  502  0.00000000000E+00  0.00000000000E+00  0.14344308950E+03  0.14344308950E+03  0.00000000000E+00 0.  1.
         -2   -1    0    0    0  501 -0.00000000000E+00 -0.00000000000E+00 -0.44459143766E+03  0.44459143766E+03  0.00000000000E+00 0.  1.
        -24    2    1    2    0    0 -0.89593486696E+02  0.12082632198E+03 -0.34622430109E+03  0.38504389794E+03  0.75904833388E+02 0.  0.
         23    2    1    2    0    0  0.96232936858E+02 -0.81593043827E+02  0.30844295506E+02  0.16073104467E+03  0.94683130590E+02 0.  0.
         11    1    3    3    0    0 -0.62014116065E+02  0.58139355441E+02 -0.10956119158E+03  0.13867079701E+03  0.00000000000E+00 0. -1.
        -12    1    3    3    0    0 -0.27579370631E+02  0.62686966542E+02 -0.23666310951E+03  0.24637310093E+03  0.00000000000E+00 0.  1.
        -13    1    4    4    0    0  0.30553611468E+02 -0.19202661791E+02 -0.33798565366E+02  0.49442981447E+02  0.00000000000E+00 0. -1.
         13    1    4    4    0    0  0.65679325390E+02 -0.62390382036E+02  0.64642860872E+02  0.11128806322E+03  0.00000000000E+00 0.  1.
         -1    1    1    2    0  502 -0.66394501620E+01 -0.39233278156E+02  0.14231657431E+02  0.42259584552E+02  0.00000000000E+00 0.  1.
<scales pt_clust_5="13000.00000" pt_clust_6="13000.00000" pt_clust_7="13000.00000" pt_clust_8="13000.00000" pt_clust_9="39.79111"></scales>
<clustering>
<clus scale="   39.791">  1  9  2 -1</clus>
<clus scale="   75.905">  5  6 -1 -1</clus>
<clus scale="   94.683">  7  8 -1 -1</clus>
<clus scale="  164.425">  2  5  1 -1</clus>
<clus scale="   39.791">  1  5  2 -1</clus>
</clustering>
</event>
<event>
 9    1  0.9171696E-005  0.9255381E+02  0.7546771E-02  0.1304054E+00
         21   -1    0    0  501  502  0.00000000000E+00  0.00000000000E+00  0.11173053709E+03  0.11173053709E+03  0.00000000000E+00 0.  1.
          1   -1    0    0  502    0 -0.00000000000E+00 -0.00000000000E+00 -0.26674792541E+03  0.26674792541E+03  0.00000000000E+00 0. -1.
         23    2    1    2    0    0 -0.17909135739E+02  0.37599365766E+01 -0.74071804755E+02  0.11919140907E+03  0.91570112323E+02 0.  0.
        -24    2    1    2    0    0 -0.95746154956E+01 -0.12183431513E+02  0.68980155670E+02  0.10663044815E+03  0.79822812097E+02 0.  0.
         13    1    4    4    0    0 -0.13953805082E+02  0.20780884560E+02 -0.49950877742E+01  0.25524590912E+02  0.00000000000E+00 0. -1.
        -14    1    4    4    0    0  0.43791895860E+01 -0.32964316073E+02  0.73975243444E+02  0.81105857237E+02  0.00000000000E+00 0.  1.
        -11    1    3    3    0    0  0.12564184846E+02  0.42130007191E+02 -0.40674239113E+02  0.59893154652E+02  0.00000000000E+00 0.  1.
         11    1    3    3    0    0 -0.30473320585E+02 -0.38370070614E+02 -0.33397565643E+02  0.59298254420E+02  0.00000000000E+00 0. -1.
          2    1    1    2  501    0  0.27483751235E+02  0.84234949364E+01 -0.14992573924E+03  0.15265660528E+03  0.00000000000E+00 0. -1.
<scales pt_clust_5="13000.00000" pt_clust_6="13000.00000" pt_clust_7="13000.00000" pt_clust_8="13000.00000" pt_clust_9="28.74565"></scales>
<clustering>
<clus scale="   28.746">  1  9  2 -1</clus>
<clus scale="   79.823">  5  6 -1 -1</clus>
<clus scale="   80.949">  1  5  2 -1</clus>
<clus scale="   91.570">  7  8 -1 -1</clus>
<clus scale="   28.746">  1  5  2 -1</clus>
</clustering>
</event>
<event>
 9    1  0.9171696E-005  0.9639532E+02  0.7546771E-02  0.1292050E+00
         21   -1    0    0  501  502  0.00000000000E+00  0.00000000000E+00  0.49217962967E+03  0.49217962967E+03  0.00000000000E+00 0. -1.
          3   -1    0    0  502    0 -0.00000000000E+00 -0.00000000000E+00 -0.28526941893E+02  0.28526941893E+02  0.00000000000E+00 0. -1.
        -24    2    1    2    0    0  0.36044680237E+02 -0.11698872692E+02  0.11916390041E+03  0.14908974136E+03  0.81188873770E+02 0.  0.
         23    2    1    2    0    0 -0.22627347624E+02  0.36627836229E+02  0.18528052773E+03  0.20991108517E+03  0.88770459469E+02 0.  0.
         13    1    3    3    0    0  0.45006917973E+02 -0.39059355530E+02  0.91272426703E+02  0.10900418247E+03  0.00000000000E+00 0. -1.
        -14    1    3    3    0    0 -0.89622377362E+01  0.27360482838E+02  0.27891473703E+02  0.40085558892E+02  0.00000000000E+00 0.  1.
        -11    1    4    4    0    0  0.32573800278E+01  0.61490451833E+02  0.10076091801E+03  0.11808661562E+03  0.00000000000E+00 0. -1.
         11    1    4    4    0    0 -0.25884727652E+02 -0.24862615604E+02  0.84519609724E+02  0.91824469550E+02  0.00000000000E+00 0.  1.
          4    1    1    2  501    0 -0.13417332613E+02 -0.24928963537E+02  0.15920825964E+03  0.16170574503E+03  0.00000000000E+00 0. -1.
<scales pt_clust_5="13000.00000" pt_clust_6="13000.00000" pt_clust_7="13000.00000" pt_clust_8="13000.00000" pt_clust_9="28.31039"></scales>
<clustering>
<clus scale="   28.310">  1  9  2 -1</clus>
<clus scale="   81.189">  5  6 -1 -1</clus>
<clus scale="   88.770">  7  8 -1 -1</clus>
<clus scale="   89.462">  2  5  1 -1</clus>
<clus scale="   28.310">  1  5  2 -1</clus>
</clustering>
</event>
<event>
 9    1  0.9171696E-005  0.1711506E+03  0.7546771E-02  0.1204318E+00
          1   -1    0    0  502    0 -0.00000000000E+00  0.00000000000E+00  0.53110920953E+03  0.53110920953E+03  0.00000000000E+00 0. -1.
         21   -1    0    0  501  502  0.00000000000E+00 -0.00000000000E+00 -0.10905638754E+03  0.10905638754E+03  0.00000000000E+00 0. -1.
        -24    2    1    2    0    0  0.14190006236E+02  0.35324083919E+02  0.24159189408E+02  0.96010106630E+02  0.84765128210E+02 0.  0.
         23    2    1    2    0    0  0.11696865196E+03  0.46048403340E+02  0.35115271991E+03  0.38288308666E+03  0.86539611521E+02 0.  0.
         13    1    3    3    0    0 -0.26259772364E+02  0.27632190177E+02 -0.13272320146E+02  0.40364192803E+02  0.00000000000E+00 0. -1.
        -14    1    3    3    0    0  0.40449778600E+02  0.76918937414E+01  0.37431509554E+02  0.55645913826E+02  0.00000000000E+00 0.  1.
        -11    1    4    4    0    0  0.98744094072E+02 -0.24616083350E+01  0.25841521935E+03  0.27664938319E+03  0.00000000000E+00 0.  1.
         11    1    4    4    0    0  0.18224557883E+02  0.48510011675E+02  0.92737500560E+02  0.10623370347E+03  0.00000000000E+00 0. -1.
          2    1    1    2  501    0 -0.13115865819E+03 -0.81372487259E+02  0.46740912674E+02  0.16127240377E+03  0.00000000000E+00 0. -1.
<scales pt_clust_5="13000.00000" pt_clust_6="13000.00000" pt_clust_7="13000.00000" pt_clust_8="13000.00000" pt_clust_9="147.65982"></scales>
<clustering>
<clus scale="   84.765">  5  6 -1 -1</clus>
<clus scale="   86.540">  7  8 -1 -1</clus>
<clus scale="   92.921">  1  5  2 -1</clus>
<clus scale="  147.660">  2  9  1 -1</clus>
<clus scale="  147.660">  2  5  1 -1</clus>
</clustering>
</event>
<event>
 9    1  0.9171696E-005  0.1042480E+03  0.7546771E-02  0.1281548E+00
          1   -1    0    0  502    0 -0.00000000000E+00  0.00000000000E+00  0.91883632198E+02  0.91883632198E+02  0.00000000000E+00 0. -1.
         21   -1    0    0  501  502  0.00000000000E+00 -0.00000000000E+00 -0.27438294947E+03  0.27438294947E+03  0.00000000000E+00 0. -1.
        -24    2    1    2    0    0 -0.21590051280E+02 -0.33134071860E+02  0.21037189185E+02  0.91239761981E+02  0.79486689485E+02 0.  0.
         23    2    1    2    0    0  0.13406629928E+02 -0.15191721746E+02 -0.20225476648E+03  0.22599628257E+03  0.98776530800E+02 0.  0.
         11    1    3    3    0    0 -0.36163694427E+02 -0.46100729748E+02  0.34071523021E+02  0.67778748579E+02  0.00000000000E+00 0. -1.
        -12    1    3    3    0    0  0.14573643147E+02  0.12966657888E+02 -0.13034333836E+02  0.23461013403E+02  0.00000000000E+00 0.  1.
        -13    1    4    4    0    0 -0.39948851717E+02 -0.22009349209E+02 -0.11196379983E+03  0.12089753794E+03  0.00000000000E+00 0.  1.
         13    1    4    4    0    0  0.53355481645E+02  0.68176274635E+01 -0.90290966650E+02  0.10509874464E+03  0.00000000000E+00 0. -1.
          2    1    1    2  501    0  0.81834213521E+01  0.48325793606E+02 -0.12817399793E+01  0.49030537117E+02  0.00000000000E+00 0. -1.
<scales pt_clust_5="13000.00000" pt_clust_6="13000.00000" pt_clust_7="13000.00000" pt_clust_8="13000.00000" pt_clust_9="49.01381"></scales>
<clustering>
<clus scale="   49.014">  2  9  1 -1</clus>
<clus scale="   79.487">  5  6 -1 -1</clus>
<clus scale="   86.192">  1  5  2 -1</clus>
<clus scale="   98.777">  7  8 -1 -1</clus>
<clus scale="   49.014">  2  5  1 -1</clus>
</clustering>
</event>
<event>
 9    1  0.9171696E-005  0.1082262E+03  0.7546771E-02  0.1268751E+00
         -2   -1    0    0    0  501 -0.00000000000E+00  0.00000000000E+00  0.12315771562E+03  0.12315771562E+03  0.00000000000E+00 0.  1.
         21   -1    0    0  501  502  0.00000000000E+00 -0.00000000000E+00 -0.17594907961E+03  0.17594907961E+03  0.00000000000E+00 0.  1.
         23    2    1    2    0    0 -0.76915571420E+02  0.28149947354E+02  0.33269305559E+02  0.12795792858E+03  0.92509243488E+02 0.  0.
        -24    2    1    2    0    0  0.16395098689E+02 -0.35422621744E+01 -0.49285298360E+02  0.96177580712E+02  0.80868655948E+02 0.  0.
         11    1    4    4    0    0 -0.10469573820E+02 -0.27436471930E+02  0.62463668983E+01  0.30023142197E+02  0.00000000000E+00 0. -1.
        -12    1    4    4    0    0  0.26864672509E+02  0.23894209756E+02 -0.55531665258E+02  0.66154438515E+02  0.00000000000E+00 0.  1.
        -13    1    3    3    0    0 -0.42623731760E+02  0.45871892644E+02  0.55275809167E+02  0.83525014953E+02  0.00000000000E+00 0.  1.
         13    1    3    3    0    0 -0.34291839661E+02 -0.17721945289E+02 -0.22006503609E+02  0.44432913625E+02  0.00000000000E+00 0. -1.
         -1    1    1    2    0  502  0.60520472731E+02 -0.24607685180E+02 -0.36775371190E+02  0.74971285941E+02  0.00000000000E+00 0.  1.
<scales pt_clust_5="13000.00000" pt_clust_6="13000.00000" pt_clust_7="13000.00000" pt_clust_8="13000.00000" pt_clust_9="65.33197"></scales>
<clustering>
<clus scale="   65.332">  2  9  1 -1</clus>
<clus scale="   80.869">  5  6 -1 -1</clus>
<clus scale="   92.509">  7  8 -1 -1</clus>
<clus scale="   98.462">  2  5  1 -1</clus>
<clus scale="   65.332">  2  5  1 -1</clus>
</clustering>
</event>
<event>
 9    1  0.9171696E-005  0.1978289E+03  0.7546771E-02  0.1181016E+00
         21   -1    0    0  501  502  0.00000000000E+00  0.00000000000E+00  0.25269129740E+03  0.25269129740E+03  0.00000000000E+00 0.  1.
          1   -1    0    0  502    0 -0.00000000000E+00 -0.00000000000E+00 -0.28254762511E+03  0.28254762511E+03  0.00000000000E+00 0. -1.
         23    2    1    2    0    0 -0.38744060674E+02  0.98354845134E+01  0.81630297217E+02  0.12943877633E+03  0.92157758224E+02 0.  0.
        -24    2    1    2    0    0  0.19576042523E+03  0.47990062212E+02 -0.94015636023E+02  0.23756469199E+03  0.83503610139E+02 0.  0.
         13    1    4    4    0    0  0.58328211151E+02 -0.12640450025E+02 -0.57724986606E+02  0.83030929609E+02  0.00000000000E+00 0. -1.
        -14    1    4    4    0    0  0.13743221408E+03  0.60630512238E+02 -0.36290649416E+02  0.15453376238E+03  0.00000000000E+00 0.  1.
        -13    1    3    3    0    0 -0.27489161705E+02 -0.40117872260E+02  0.46927593100E+02  0.67581777722E+02  0.00000000000E+00 0. -1.
         13    1    3    3    0    0 -0.11254898969E+02  0.49953356773E+02  0.34702704117E+02  0.61856998608E+02  0.00000000000E+00 0.  1.
          2    1    1    2  501    0 -0.15701636455E+03 -0.57825546726E+02 -0.17470988908E+02  0.16823545419E+03  0.00000000000E+00 0. -1.
<scales pt_clust_5="13000.00000" pt_clust_6="13000.00000" pt_clust_7="13000.00000" pt_clust_8="13000.00000" pt_clust_9="179.34168"></scales>
<clustering>
<clus scale="   83.504">  5  6 -1 -1</clus>
<clus scale="   92.158">  7  8 -1 -1</clus>
<clus scale="  100.453">  2  7  1 -1</clus>
<clus scale="  179.342">  1  9  2 -1</clus>
<clus scale="  179.342">  1  5  2 -1</clus>
</clustering>
</event>
<event>
 9    1  0.9171696E-005  0.1458684E+03  0.7546771E-02  0.1226010E+00
         21   -1    0    0  501  502  0.00000000000E+00  0.00000000000E+00  0.28976478348E+03  0.28976478348E+03  0.00000000000E+00 0. -1.
          1   -1    0    0  502    0 -0.00000000000E+00 -0.00000000000E+00 -0.24270134266E+03  0.24270134266E+03  0.00000000000E+00 0. -1.
         23    2    1    2    0    0 -0.17555024803E+02 -0.18773394620E+02 -0.13352108317E+03  0.16376712166E+03  0.91275249892E+02 0.  0.
        -24    2    1    2    0    0 -0.26608002493E+01 -0.10645682478E+03 -0.17269600353E+02  0.13367232099E+03  0.78929809965E+02 0.  0.
         13    1    4    4    0    0 -0.71248625747E+01 -0.11778171693E+03 -0.23000492872E+02  0.12021779894E+03  0.00000000000E+00 0. -1.
        -14    1    4    4    0    0  0.44640623254E+01  0.11324892145E+02  0.57308925188E+01  0.13454522050E+02  0.00000000000E+00 0.  1.
        -11    1    3    3    0    0 -0.14895704278E+02  0.18884036753E+02  0.97679253868E+00  0.24071621751E+02  0.00000000000E+00 0.  1.
         11    1    3    3    0    0 -0.26593205248E+01 -0.37657431374E+02 -0.13449787571E+03  0.13969549991E+03  0.00000000000E+00 0. -1.
          2    1    1    2  501    0  0.20215825053E+02  0.12523021940E+03  0.19785412434E+03  0.23502668349E+03  0.00000000000E+00 0. -1.
<scales pt_clust_5="13000.00000" pt_clust_6="13000.00000" pt_clust_7="13000.00000" pt_clust_8="13000.00000" pt_clust_9="122.66900"></scales>
<clustering>
<clus scale="   78.930">  5  6 -1 -1</clus>
<clus scale="   91.275">  7  8 -1 -1</clus>
<clus scale="   94.825">  2  7  1 -1</clus>
<clus scale="  122.669">  1  9  2 -1</clus>
<clus scale="  122.669">  1  5  2 -1</clus>
</clustering>
</event>
<event>
 9    1  0.9171696E-005  0.1188859E+03  0.7546771E-02  0.1257040E+00
         -2   -1    0    0    0  501 -0.00000000000E+00  0.00000000000E+00  0.42418727512E+03  0.42418727512E+03  0.00000000000E+00 0.  1.
         21   -1    0    0  501  502  0.00000000000E+00 -0.00000000000E+00 -0.91148733134E+02  0.91148733134E+02  0.00000000000E+00 0. -1.
        -24    2    1    2    0    0 -0.18609005419E+02  0.44543145122E+02  0.29246603471E+03  0.30701939797E+03  0.79963381705E+02 0.  0.
         23    2    1    2    0    0  0.17595127386E+02  0.53008561209E+02  0.20357165182E+02  0.10868717982E+03  0.90988970840E+02 0.  0.
         11    1    3    3    0    0 -0.19204576687E+02  0.65711429092E+02  0.18004878739E+03  0.19262495560E+03  0.00000000000E+00 0. -1.
        -12    1    3    3    0    0  0.59557126826E+00 -0.21168283970E+02  0.11241724732E+03  0.11439444237E+03  0.00000000000E+00 0.  1.
        -11    1    4    4    0    0  0.46909771974E+02  0.36856438132E+01  0.20460537679E+02  0.51310274595E+02  0.00000000000E+00 0.  1.
         11    1    4    4    0    0 -0.29314644587E+02  0.49322917396E+02 -0.10337249702E+00  0.57376905228E+02  0.00000000000E+00 0. -1.
         -1    1    1    2    0  502  0.10138780323E+01 -0.97551706331E+02  0.20215342093E+02  0.99629430454E+02  0.00000000000E+00 0.  1.
<scales pt_clust_5="13000.00000" pt_clust_6="13000.00000" pt_clust_7="13000.00000" pt_clust_8="13000.00000" pt_clust_9="76.51716"></scales>
<clustering>
<clus scale="   79.963">  5  6 -1 -1</clus>
<clus scale="   90.989">  7  8 -1 -1</clus>
<clus scale="   93.405">  1  5  2 -1</clus>
<clus scale="   76.517">  2  9  1 -1</clus>
<clus scale="   76.517">  2  5  1 -1</clus>
</clustering>
</event>
<event>
 9    1  0.9171696E-005  0.8316959E+02  0.7546771E-02  0.1324826E+00
         21   -1    0    0  501  502  0.00000000000E+00  0.00000000000E+00  0.19120799370E+03  0.19120799370E+03  0.00000000000E+00 0.  1.
          1   -1    0    0  502    0 -0.00000000000E+00 -0.00000000000E+00 -0.16238046700E+03  0.16238046700E+03  0.00000000000E+00 0. -1.
         23    2    1    2    0    0 -0.18976319305E+02  0.53567862871E+01 -0.11424592251E+03  0.14144643637E+03  0.81031893091E+02 0.  0.
        -24    2    1    2    0    0  0.51652850120E+01 -0.25818225955E+02  0.13287782196E+02  0.80029441499E+02  0.74396810350E+02 0.  0.
         13    1    4    4    0    0 -0.19005988460E+02 -0.97002709552E+01 -0.24419035074E+02  0.32428569624E+02  0.00000000000E+00 0. -1.
        -14    1    4    4    0    0  0.24171273472E+02 -0.16117955000E+02  0.37706817270E+02  0.47600871875E+02  0.00000000000E+00 0.  1.
        -13    1    3    3    0    0 -0.94252207558E+01 -0.37857745394E+02 -0.49663683480E+02  0.63154771232E+02  0.00000000000E+00 0. -1.
         13    1    3    3    0    0 -0.95510985488E+01  0.43214531681E+02 -0.64582239032E+02  0.78291665139E+02  0.00000000000E+00 0.  1.
          2    1    1    2  501    0  0.13811034293E+02  0.20461439668E+02  0.12978566701E+03  0.13211258283E+03  0.00000000000E+00 0. -1.
<scales pt_clust_5="13000.00000" pt_clust_6="13000.00000" pt_clust_7="13000.00000" pt_clust_8="13000.00000" pt_clust_9="24.68634"></scales>
<clustering>
<clus scale="   24.686">  1  9  2 -1</clus>
<clus scale="   74.397">  5  6 -1 -1</clus>
<clus scale="   76.720">  1  5  2 -1</clus>
<clus scale="   81.032">  7  8 -1 -1</clus>
<clus scale="   24.686">  1  5  2 -1</clus>
</clustering>
</event>
<event>
 9    1  0.9171696E-005  0.1106492E+03  0.7546771E-02  0.1264894E+00
         21   -1    0    0  501  502  0.00000000000E+00  0.00000000000E+00  0.10341897441E+03  0.10341897441E+03  0.00000000000E+00 0.  1.
          1   -1    0    0  502    0 -0.00000000000E+00 -0.00000000000E+00 -0.31418837829E+03  0.31418837829E+03  0.00000000000E+00 0. -1.
        -24    2    1    2    0    0  0.54425781213E+02 -0.22655136855E+02 -0.98229854219E+02  0.13997478647E+03  0.80426461440E+02 0.  0.
         23    2    1    2    0    0 -0.32967862403E+02  0.57737089937E+02  0.38214688767E+02  0.12136988319E+03  0.94073559522E+02 0.  0.
         11    1    3    3    0    0  0.50664070161E+01 -0.45123968574E+02 -0.42006146078E+02  0.61857556760E+02  0.00000000000E+00 0. -1.
        -12    1    3    3    0    0  0.49359374197E+02  0.22468831719E+02 -0.56223708140E+02  0.78117229706E+02  0.00000000000E+00 0.  1.
        -11    1    4    4    0    0 -0.48445788359E+02  0.14126881030E+02  0.52617201241E+02  0.72904958979E+02  0.00000000000E+00 0.  1.
         11    1    4    4    0    0  0.15477925955E+02  0.43610208907E+02 -0.14402512475E+02  0.48464924207E+02  0.00000000000E+00 0. -1.
          2    1    1    2  501    0 -0.21457918809E+02 -0.35081953082E+02 -0.15075423843E+03  0.15626268305E+03  0.00000000000E+00 0. -1.
<scales pt_clust_5="13000.00000" pt_clust_6="13000.00000" pt_clust_7="13000.00000" pt_clust_8="13000.00000" pt_clust_9="41.12405"></scales>
<clustering>
<clus scale="   41.124">  1  9  2 -1</clus>
<clus scale="   80.426">  5  6 -1 -1</clus>
<clus scale="   94.074">  7  8 -1 -1</clus>
<clus scale="   99.307">  2  5  1 -1</clus>
<clus scale="   41.124">  1  5  2 -1</clus>
</clustering>
</event>
<event>
 9    1  0.9171696E-005  0.2285315E+03  0.7546771E-02  0.1148883E+00
         -2   -1    0    0    0  501 -0.00000000000E+00  0.00000000000E+00  0.17974304731E+03  0.17974304731E+03  0.00000000000E+00 0.  1.
         21   -1    0    0  501  502  0.00000000000E+00 -0.00000000000E+00 -0.63930202918E+03  0.63930202918E+03  0.00000000000E+00 0.  1.
        -24    2    1    2    0    0  0.97610634401E+02  0.50548506194E+02  0.45685720358E+01  0.13688057484E+03  0.81439747607E+02 0.  0.
         23    2    1    2    0    0  0.11173543627E+03  0.14027657198E+03 -0.27850954105E+03  0.34349942453E+03  0.90895356496E+02 0.  0.
         13    1    3    3    0    0  0.40401118408E+02 -0.14494089863E+02 -0.19252380010E+02  0.47042354805E+02  0.00000000000E+00 0. -1.
        -14    1    3    3    0    0  0.57209515993E+02  0.65042596057E+02  0.23820952046E+02  0.89838220031E+02  0.00000000000E+00 0.  1.
        -13    1    4    4    0    0  0.34477659226E+02  0.11005131916E+03 -0.13330942656E+03  0.17627082868E+03  0.00000000000E+00 0.  1.
         13    1    4    4    0    0  0.77257777044E+02  0.30225252819E+02 -0.14520011449E+03  0.16722859585E+03  0.00000000000E+00 0. -1.
         -1    1    1    2    0  502 -0.20934607067E+03 -0.19082507817E+03 -0.18561801286E+03  0.33866507712E+03  0.00000000000E+00 0.  1.
<scales pt_clust_5="13000.00000" pt_clust_6="13000.00000" pt_clust_7="13000.00000" pt_clust_8="13000.00000" pt_clust_9="209.67772"></scales>
<clustering>
<clus scale="   81.440">  5  6 -1 -1</clus>
<clus scale="   90.895">  7  8 -1 -1</clus>
<clus scale="  136.804">  1  5  2 -1</clus>
<clus scale="  209.678">  2  9  1 -1</clus>
<clus scale="  209.678">  2  5  1 -1</clus>
</clustering>
</event>
<event>
 9    1  0.9171696E-005  0.1007726E+03  0.7546771E-02  0.1284775E+00
         21   -1    0    0  501  502  0.00000000000E+00  0.00000000000E+00  0.93878307530E+02  0.93878307530E+02  0.00000000000E+00 0.  1.
         -2   -1    0    0    0  501 -0.00000000000E+00 -0.00000000000E+00 -0.20655200527E+03  0.20655200527E+03  0.00000000000E+00 0.  1.
         23    2    1    2    0    0  0.88073430826E+01  0.39197641491E+01 -0.23147530357E+02  0.94255892786E+02  0.90859404137E+02 0.  0.
        -24    2    1    2    0    0 -0.22725538563E+02 -0.76427192801E+02 -0.55382200515E+02  0.12483037384E+03  0.78472085455E+02 0.  0.
         11    1    4    4    0    0  0.12641877392E+02 -0.21941960347E+02  0.14694660857E+02  0.29277973727E+02  0.00000000000E+00 0. -1.
        -12    1    4    4    0    0 -0.35367415955E+02 -0.54485232454E+02 -0.70076861371E+02  0.95552400109E+02  0.00000000000E+00 0.  1.
        -11    1    3    3    0    0 -0.38557877989E+02 -0.13514582315E+02 -0.89753440014E+01  0.41831933856E+02  0.00000000000E+00 0. -1.
         11    1    3    3    0    0  0.47365221072E+02  0.17434346464E+02 -0.14172186356E+02  0.52423958930E+02  0.00000000000E+00 0.  1.
         -1    1    1    2    0  502  0.13918195481E+02  0.72507428652E+02 -0.34143966865E+02  0.81344046177E+02  0.00000000000E+00 0.  1.
<scales pt_clust_5="13000.00000" pt_clust_6="13000.00000" pt_clust_7="13000.00000" pt_clust_8="13000.00000" pt_clust_9="73.83122"></scales>
<clustering>
<clus scale="   73.831">  1  9  2 -1</clus>
<clus scale="   78.472">  5  6 -1 -1</clus>
<clus scale="   89.764">  1  5  2 -1</clus>
<clus scale="   90.859">  7  8 -1 -1</clus>
<clus scale="   73.831">  1  5  2 -1</clus>
</clustering>
</event>
<event>
 9    1  0.9171696E-005  0.9978130E+02  0.7546771E-02  0.1283655E+00
          1   -1    0    0  502    0 -0.00000000000E+00  0.00000000000E+00  0.76983883726E+03  0.76983883726E+03  0.00000000000E+00 0. -1.
         21   -1    0    0  501  502  0.00000000000E+00 -0.00000000000E+00 -0.47291002947E+02  0.47291002947E+02  0.00000000000E+00 0.  1.
         23    2    1    2    0    0 -0.29401460852E+02 -0.33832567146E+02  0.24355849854E+03  0.26224103895E+03  0.86258517240E+02 0.  0.
        -24    2    1    2    0    0  0.93085909684E+02 -0.33515327669E+01  0.74288743030E+02  0.14352407735E+03  0.80025771384E+02 0.  0.
         11    1    4    4    0    0  0.14209371037E+02  0.16743931934E+02  0.55924859215E+02  0.60082071869E+02  0.00000000000E+00 0. -1.
        -12    1    4    4    0    0  0.78876538647E+02 -0.20095464701E+02  0.18363883815E+02  0.83442005485E+02  0.00000000000E+00 0.  1.
        -13    1    3    3    0    0 -0.80558707920E+01  0.25011184185E+02  0.12946232310E+03  0.13210204196E+03  0.00000000000E+00 0.  1.
         13    1    3    3    0    0 -0.21345590060E+02 -0.58843751330E+02  0.11409617545E+03  0.13013899699E+03  0.00000000000E+00 0. -1.
          2    1    1    2  501    0 -0.63684448832E+02  0.37184099913E+02  0.40470059274E+03  0.41136472390E+03  0.00000000000E+00 0. -1.
<scales pt_clust_5="13000.00000" pt_clust_6="13000.00000" pt_clust_7="13000.00000" pt_clust_8="13000.00000" pt_clust_9="73.74532"></scales>
<clustering>
<clus scale="   73.745">  2  9  1 -1</clus>
<clus scale="   80.026">  5  6 -1 -1</clus>
<clus scale="   86.259">  7  8 -1 -1</clus>
<clus scale="   94.445">  2  5  1 -1</clus>
<clus scale="   73.745">  2  5  1 -1</clus>
</clustering>
</event>
<event>
 9    1  0.9171696E-005  0.1919405E+03  0.7546771E-02  0.1187717E+00
          3   -1    0    0  502    0 -0.00000000000E+00  0.00000000000E+00  0.99578710840E+02  0.99578710840E+02  0.00000000000E+00 0. -1.
         21   -1    0    0  501  502  0.00000000000E+00 -0.00000000000E+00 -0.69408581331E+03  0.69408581331E+03  0.00000000000E+00 0. -1.
         23    2    1    2    0    0 -0.31194271487E+02  0.10137486420E+01 -0.14742319564E+01  0.94725401523E+02  0.89423811561E+02 0.  0.
        -24    2    1    2    0    0  0.42134948969E+02 -0.17235383158E+03 -0.36105672785E+03  0.41033896115E+03  0.80838760027E+02 0.  0.
         11    1    4    4    0    0  0.64054208175E+02 -0.15246859633E+03 -0.30521358171E+03  0.34713822162E+03  0.00000000000E+00 0. -1.
        -12    1    4    4    0    0 -0.21919259206E+02 -0.19885235242E+02 -0.55843146147E+02  0.63200739524E+02  0.00000000000E+00 0.  1.
        -13    1    3    3    0    0 -0.49601721243E+02  0.25363541471E+02 -0.19797681759E+02  0.59123499467E+02  0.00000000000E+00 0. -1.
         13    1    3    3    0    0  0.18407449756E+02 -0.24349792829E+02  0.18323449803E+02  0.35601902056E+02  0.00000000000E+00 0.  1.
          4    1    1    2  501    0 -0.10940677482E+02  0.17134008293E+03 -0.23197614266E+03  0.28860016148E+03  0.00000000000E+00 0. -1.
<scales pt_clust_5="13000.00000" pt_clust_6="13000.00000" pt_clust_7="13000.00000" pt_clust_8="13000.00000" pt_clust_9="174.08704"></scales>
<clustering>
<clus scale="   80.839">  5  6 -1 -1</clus>
<clus scale="   89.424">  7  8 -1 -1</clus>
<clus scale="   94.714">  1  7  2 -1</clus>
<clus scale="  174.087">  2  9  1 -1</clus>
<clus scale="  174.087">  2  5  1 -1</clus>
</clustering>
</event>
<event>
 9    1  0.9171696E-005  0.9716493E+02  0.7546771E-02  0.1293543E+00
         21   -1    0    0  501  502  0.00000000000E+00  0.00000000000E+00  0.19338970430E+03  0.19338970430E+03  0.00000000000E+00 0. -1.
          1   -1    0    0  502    0 -0.00000000000E+00 -0.00000000000E+00 -0.11809178638E+03  0.11809178638E+03  0.00000000000E+00 0. -1.
        -24    2    1    2    0    0  0.15081398428E+02  0.25335621180E+00 -0.31825131536E+02  0.86937646170E+02  0.79484605783E+02 0.  0.
         23    2    1    2    0    0 -0.78624535836E+02 -0.31548315150E+02  0.56707854329E+02  0.13760250414E+03  0.92420531151E+02 0.  0.
         13    1    3    3    0    0 -0.92127935517E+01 -0.31926994734E+02 -0.32681133810E+02  0.46607564459E+02  0.00000000000E+00 0. -1.
        -14    1    3    3    0    0  0.24294191980E+02  0.32180350945E+02  0.85600227306E+00  0.40330081711E+02  0.00000000000E+00 0.  1.
        -11    1    4    4    0    0 -0.43065724161E+02  0.57270018066E+00  0.74856313794E+02  0.86362331475E+02  0.00000000000E+00 0. -1.
         11    1    4    4    0    0 -0.35558811675E+02 -0.32121015330E+02 -0.18148459465E+02  0.51240172663E+02  0.00000000000E+00 0.  1.
          2    1    1    2  501    0  0.63543137408E+02  0.31294958938E+02  0.50415195126E+02  0.86941340375E+02  0.00000000000E+00 0. -1.
<scales pt_clust_5="13000.00000" pt_clust_6="13000.00000" pt_clust_7="13000.00000" pt_clust_8="13000.00000" pt_clust_9="70.83152"></scales>
<clustering>
<clus scale="   70.832">  1  9  2 -1</clus>
<clus scale="   79.485">  5  6 -1 -1</clus>
<clus scale="   84.955">  2  5  1 -1</clus>
<clus scale="   92.421">  7  8 -1 -1</clus>
<clus scale="   70.832">  1  5  2 -1</clus>
</clustering>
</event>
<event>
 9    1  0.9171696E-005  0.9323499E+02  0.7546771E-02  0.1301791E+00
         21   -1    0    0  501  502  0.00000000000E+00  0.00000000000E+00  0.36278427242E+03  0.36278427242E+03  0.00000000000E+00 0.  1.
         -2   -1    0    0    0  501 -0.00000000000E+00 -0.00000000000E+00 -0.63371543047E+02  0.63371543047E+02  0.00000000000E+00 0.  1.
        -24    2    1    2    0    0  0.46431558869E+01 -0.52003295054E+01  0.10944258777E+03  0.13644198723E+03  0.81179637459E+02 0.  0.
         23    2    1    2    0    0  0.24446895905E+02 -0.46941820558E+02  0.20255931461E+03  0.22869315794E+03  0.92027709520E+02 0.  0.
         13    1    3    3    0    0 -0.70296462944E+01 -0.35354753990E+02  0.93868717158E+02  0.10055202941E+03  0.00000000000E+00 0. -1.
        -14    1    3    3    0    0  0.11672802181E+02  0.30154424484E+02  0.15573870610E+02  0.35889957823E+02  0.00000000000E+00 0.  1.
        -11    1    4    4    0    0  0.43960966120E+02 -0.63652525975E+02  0.12511395054E+03  0.14709762481E+03  0.00000000000E+00 0.  1.
         11    1    4    4    0    0 -0.19514070215E+02  0.16710705417E+02  0.77445364063E+02  0.81595533129E+02  0.00000000000E+00 0. -1.
         -1    1    1    2    0  502 -0.29090051791E+02  0.52142150064E+02 -0.12589173002E+02  0.61020670296E+02  0.00000000000E+00 0.  1.
<scales pt_clust_5="13000.00000" pt_clust_6="13000.00000" pt_clust_7="13000.00000" pt_clust_8="13000.00000" pt_clust_9="59.70794"></scales>
<clustering>
<clus scale="   59.708">  1  9  2 -1</clus>
<clus scale="   81.180">  5  6 -1 -1</clus>
<clus scale="   82.546">  2  5  1 -1</clus>
<clus scale="   92.028">  7  8 -1 -1</clus>
<clus scale="   59.708">  1  5  2 -1</clus>
</clustering>
</event>
<event>
 9    1  0.9171696E-005  0.1846761E+03  0.7546771E-02  0.1167229E+00
          1   -1    0    0  502    0 -0.00000000000E+00  0.00000000000E+00  0.55812039991E+03  0.55812039991E+03  0.00000000000E+00 0. -1.
         21   -1    0    0  501  502  0.00000000000E+00 -0.00000000000E+00 -0.12023766049E+03  0.12023766049E+03  0.00000000000E+00 0. -1.
        -24    2    1    2    0    0 -0.96363276410E+02 -0.10133510457E+03  0.31479976348E+03  0.35515100480E+03  0.86479249896E+02 0.  0.
         23    2    1    2    0    0  0.16688202447E+03  0.65132212687E+02  0.57003409172E+02  0.22000796475E+03  0.11429042250E+03 0.  0.
         13    1    3    3    0    0 -0.10204227327E+03 -0.60922708857E+02  0.26729054043E+03  0.29252082830E+03  0.00000000000E+00 0. -1.
        -14    1    3    3    0    0  0.56789968596E+01 -0.40412395718E+02  0.47509223058E+02  0.62630176501E+02  0.00000000000E+00 0.  1.
        -13    1    4    4    0    0  0.15047378699E+02  0.47838437381E+02  0.43867564556E+02  0.66628094051E+02  0.00000000000E+00 0.  1.
         13    1    4    4    0    0  0.15183464577E+03  0.17293775306E+02  0.13135844616E+02  0.15337987070E+03  0.00000000000E+00 0. -1.
          2    1    1    2  501    0 -0.70518748063E+02  0.36202891887E+02  0.66079566762E+02  0.10319909085E+03  0.00000000000E+00 0. -1.
<scales pt_clust_5="13000.00000" pt_clust_6="13000.00000" pt_clust_7="13000.00000" pt_clust_8="13000.00000" pt_clust_9="79.26880"></scales>
<clustering>
<clus scale="   79.269">  2  9  1 -1</clus>
<clus scale="   86.479">  5  6 -1 -1</clus>
<clus scale="  114.290">  7  8 -1 -1</clus>
<clus scale="  168.883">  1  5  2 -1</clus>
<clus scale="   79.269">  2  5  1 -1</clus>
</clustering>
</event>
<event>
 9    1  0.9171696E-005  0.1169544E+03  0.7546771E-02  0.1249326E+00
         21   -1    0    0  501  502  0.00000000000E+00  0.00000000000E+00  0.84441804380E+02  0.84441804380E+02  0.00000000000E+00 0.  1.
          3   -1    0    0  502    0 -0.00000000000E+00 -0.00000000000E+00 -0.24059875736E+03  0.24059875736E+03  0.00000000000E+00 0. -1.
         23    2    1    2    0    0  0.59848497732E+02  0.43272066123E+02 -0.11596240945E+03  0.16120707485E+03  0.84179131553E+02 0.  0.
        -24    2    1    2    0    0 -0.85886195054E+02 -0.41907769509E+02 -0.51806405840E+02  0.13529126670E+03  0.80542681311E+02 0.  0.
         13    1    4    4    0    0 -0.55861901284E+02 -0.62918843688E+02 -0.51490808975E+02  0.98643987728E+02  0.00000000000E+00 0. -1.
        -14    1    4    4    0    0 -0.30024293770E+02  0.21011074179E+02 -0.31559686520E+00  0.36647278970E+02  0.00000000000E+00 0.  1.
        -11    1    3    3    0    0  0.35891213634E+02  0.64973664570E+02 -0.10162086917E+03  0.12584338423E+03  0.00000000000E+00 0.  1.
         11    1    3    3    0    0  0.23957284098E+02 -0.21701598447E+02 -0.14341540275E+02  0.35363690616E+02  0.00000000000E+00 0. -1.
          4    1    1    2  501    0  0.26037697321E+02 -0.13642966133E+01  0.11611862311E+02  0.28542220190E+02  0.00000000000E+00 0. -1.
<scales pt_clust_5="13000.00000" pt_clust_6="13000.00000" pt_clust_7="13000.00000" pt_clust_8="13000.00000" pt_clust_9="26.07342"></scales>
<clustering>
<clus scale="   26.073">  1  9  2 -1</clus>
<clus scale="   80.543">  5  6 -1 -1</clus>
<clus scale="   84.179">  7  8 -1 -1</clus>
<clus scale="  114.365">  1  5  2 -1</clus>
<clus scale="   26.073">  1  5  2 -1</clus>
</clustering>
</event>
<event>
 9    1  0.9171696E-005  0.1158907E+03  0.7546771E-02  0.1252772E+00
         21   -1    0    0  501  502  0.00000000000E+00  0.00000000000E+00  0.58320168508E+02  0.58320168508E+02  0.00000000000E+00 0.  1.
          1   -1    0    0  502    0 -0.00000000000E+00 -0.00000000000E+00 -0.57372297779E+03  0.57372297779E+03  0.00000000000E+00 0. -1.
         23    2    1    2    0    0  0.39608831187E+02  0.60539247550E+02 -0.47030802433E+03  0.48423381369E+03  0.89771312630E+02 0.  0.
        -24    2    1    2    0    0 -0.22667505979E+02 -0.78851676335E+02 -0.38580238799E+02  0.12202575529E+03  0.81672807223E+02 0.  0.
         13    1    4    4    0    0 -0.38695354635E+02 -0.19332738678E+02  0.89709108416E+01  0.44176492577E+02  0.00000000000E+00 0. -1.
        -14    1    4    4    0    0  0.16027848656E+02 -0.59518937658E+02 -0.47551149641E+02  0.77849262711E+02  0.00000000000E+00 0.  1.
        -13    1    3    3    0    0  0.18236903282E+02 -0.21345595209E+02 -0.77922477565E+02  0.82825911320E+02  0.00000000000E+00 0.  1.
         13    1    3    3    0    0  0.21371927905E+02  0.81884842760E+02 -0.39238554677E+03  0.40140790237E+03  0.00000000000E+00 0. -1.
          2    1    1    2  501    0 -0.16941325208E+02  0.18312428785E+02 -0.65145461547E+01  0.25783577320E+02  0.00000000000E+00 0. -1.
<scales pt_clust_5="13000.00000" pt_clust_6="13000.00000" pt_clust_7="13000.00000" pt_clust_8="13000.00000" pt_clust_9="24.94701"></scales>
<clustering>
<clus scale="   24.947">  1  9  2 -1</clus>
<clus scale="   81.673">  5  6 -1 -1</clus>
<clus scale="   89.771">  7  8 -1 -1</clus>
<clus scale="  109.737">  1  5  2 -1</clus>
<clus scale="   24.947">  1  5  2 -1</clus>
</clustering>
</event>
<event>
 9    1  0.9171696E-005  0.1026610E+03  0.7546771E-02  0.1280961E+00
         21   -1    0    0  501  502  0.00000000000E+00  0.00000000000E+00  0.10982857731E+03  0.10982857731E+03  0.00000000000E+00 0. -1.
         -4   -1    0    0    0  501 -0.00000000000E+00 -0.00000000000E+00 -0.13130989062E+03  0.13130989062E+03  0.00000000000E+00 0.  1.
         23    2    1    2    0    0  0.14658609359E+02  0.44208728402E+02 -0.47769926182E+02  0.11590633444E+03  0.94778826862E+02 0.  0.
        -24    2    1    2    0    0 -0.22588383931E+02 -0.23456841600E+02 -0.28979165117E+01  0.88552771060E+02  0.82296639275E+02 0.  0.
         11    1    4    4    0    0  0.20612850646E+02 -0.35891709206E+02  0.83232592964E+01  0.42218254900E+02  0.00000000000E+00 0. -1.
        -12    1    4    4    0    0 -0.43201234577E+02  0.12434867606E+02 -0.11221175808E+02  0.46334516161E+02  0.00000000000E+00 0.  1.
        -13    1    3    3    0    0 -0.29745397590E+02  0.28907059252E+02  0.87792289289E+01  0.42396717007E+02  0.00000000000E+00 0. -1.
         13    1    3    3    0    0  0.44404006948E+02  0.15301669149E+02 -0.56549155111E+02  0.73509617436E+02  0.00000000000E+00 0.  1.
         -3    1    1    2    0  502  0.79297745724E+01 -0.20751886802E+02  0.29186529387E+02  0.36679362430E+02  0.00000000000E+00 0.  1.
<scales pt_clust_5="13000.00000" pt_clust_6="13000.00000" pt_clust_7="13000.00000" pt_clust_8="13000.00000" pt_clust_9="22.21536"></scales>
<clustering>
<clus scale="   22.215">  1  9  2 -1</clus>
<clus scale="   82.297">  5  6 -1 -1</clus>
<clus scale="   91.263">  1  5  2 -1</clus>
<clus scale="   94.779">  7  8 -1 -1</clus>
<clus scale="   22.215">  1  5  2 -1</clus>
</clustering>
</event>
<event>
 9    1  0.9171696E-005  0.1178083E+03  0.7546771E-02  0.1257185E+00
          1   -1    0    0  502    0 -0.00000000000E+00  0.00000000000E+00  0.53613907575E+03  0.53613907575E+03  0.00000000000E+00 0. -1.
         21   -1    0    0  501  502  0.00000000000E+00 -0.00000000000E+00 -0.64138276061E+02  0.64138276061E+02  0.00000000000E+00 0. -1.
         23    2    1    2    0    0  0.12025512205E+02  0.32645856027E+02  0.34365261994E+03  0.35673359152E+03  0.89170439406E+02 0.  0.
        -24    2    1    2    0    0  0.25932710194E+02  0.59619942405E+02  0.88211499211E+02  0.13600419859E+03  0.80553277094E+02 0.  0.
         13    1    4    4    0    0  0.34798928113E+02  0.75439944477E+02  0.82269165023E+02  0.11692034098E+03  0.00000000000E+00 0. -1.
        -14    1    4    4    0    0 -0.88662179193E+01 -0.15820002073E+02  0.59423341881E+01  0.19083857613E+02  0.00000000000E+00 0.  1.
        -11    1    3    3    0    0  0.66831273988E+01 -0.31040826841E+02  0.10846425880E+03  0.11301633758E+03  0.00000000000E+00 0.  1.
         11    1    3    3    0    0  0.53423848064E+01  0.63686682868E+02  0.23518836114E+03  0.24371725394E+03  0.00000000000E+00 0. -1.
          2    1    1    2  501    0 -0.37958222399E+02 -0.92265798431E+02  0.40136680539E+02  0.10753956171E+03  0.00000000000E+00 0. -1.
<scales pt_clust_5="13000.00000" pt_clust_6="13000.00000" pt_clust_7="13000.00000" pt_clust_8="13000.00000" pt_clust_9="85.96490"></scales>
<clustering>
<clus scale="   80.553">  5  6 -1 -1</clus>
<clus scale="   89.170">  7  8 -1 -1</clus>
<clus scale="   95.717">  1  7  2 -1</clus>
<clus scale="   85.965">  2  9  1 -1</clus>
<clus scale="   85.965">  2  5  1 -1</clus>
</clustering>
</event>
<event>
 9    1  0.9171696E-005  0.1469714E+03  0.7546771E-02  0.1216785E+00
         21   -1    0    0  501  502  0.00000000000E+00  0.00000000000E+00  0.15341481304E+03  0.15341481304E+03  0.00000000000E+00 0. -1.
          1   -1    0    0  502    0 -0.00000000000E+00 -0.00000000000E+00 -0.96331045225E+03  0.96331045225E+03  0.00000000000E+00 0. -1.
         23    2    1    2    0    0 -0.38701034807E+02  0.54098760542E+02 -0.62570154643E+02  0.12870282440E+03  0.90691492263E+02 0.  0.
        -24    2    1    2    0    0  0.74463144499E+01 -0.17192118913E+03 -0.82299392265E+03  0.84454876824E+03  0.79569355493E+02 0.  0.
         13    1    4    4    0    0  0.38219834954E+00 -0.17532189518E+03 -0.81377552175E+03  0.83244730332E+03  0.00000000000E+00 0. -1.
        -14    1    4    4    0    0  0.70641161004E+01  0.34007060468E+01 -0.92184009000E+01  0.12101464913E+02  0.00000000000E+00 0.  1.
        -11    1    3    3    0    0 -0.18828959520E+02 -0.88280464250E+01  0.15896963001E+02  0.26175896411E+02  0.00000000000E+00 0. -1.
         11    1    3    3    0    0 -0.19872075287E+02  0.62926806967E+02 -0.78467117643E+02  0.10252692799E+03  0.00000000000E+00 0.  1.
          2    1    1    2  501    0  0.31254720357E+02  0.11782242859E+03  0.75668438080E+02  0.14347367266E+03  0.00000000000E+00 0. -1.
<scales pt_clust_5="13000.00000" pt_clust_6="13000.00000" pt_clust_7="13000.00000" pt_clust_8="13000.00000" pt_clust_9="123.56908"></scales>
<clustering>
<clus scale="   79.569">  5  6 -1 -1</clus>
<clus scale="   90.691">  7  8 -1 -1</clus>
<clus scale="  112.470">  2  7  1 -1</clus>
<clus scale="  123.569">  1  9  2 -1</clus>
<clus scale="  123.569">  1  5  2 -1</clus>
</clustering>
</event>
<event>
 9    1  0.9171696E-005  0.1014329E+03  0.7546771E-02  0.1283994E+00
         -2   -1    0    0    0  501 -0.00000000000E+00  0.00000000000E+00  0.10564682014E+04  0.10564682014E+04  0.00000000000E+00 0.  1.
         21   -1    0    0  501  502  0.00000000000E+00 -0.00000000000E+00 -0.16372030909E+02  0.16372030909E+02  0.00000000000E+00 0.  1.
        -24    2    1    2    0    0  0.26448645130E+02 -0.14932320530E+02  0.41796057385E+03  0.42675452011E+03  0.80658998991E+02 0.  0.
         23    2    1    2    0    0 -0.24904450156E+02  0.59816664980E+02  0.30219487284E+03  0.32300823595E+03  0.93884579512E+02 0.  0.
         13    1    3    3    0    0  0.69569247262E+01 -0.33805172317E+02  0.73205569721E+02  0.80933577180E+02  0.00000000000E+00 0. -1.
        -14    1    3    3    0    0  0.19491720403E+02  0.18872851787E+02  0.34475500413E+03  0.34582094293E+03  0.00000000000E+00 0.  1.
        -11    1    4    4    0    0 -0.31941371360E+02 -0.17435473636E+02  0.10323020149E+03  0.10945648197E+03  0.00000000000E+00 0. -1.
         11    1    4    4    0    0  0.70369212042E+01  0.77252138615E+02  0.19896467135E+03  0.21355175398E+03  0.00000000000E+00 0.  1.
         -1    1    1    2    0  502 -0.15441949737E+01 -0.44884344450E+02  0.31994072383E+03  0.32307747628E+03  0.00000000000E+00 0.  1.
<scales pt_clust_5="13000.00000" pt_clust_6="13000.00000" pt_clust_7="13000.00000" pt_clust_8="13000.00000" pt_clust_9="44.91092"></scales>
<clustering>
<clus scale="   44.911">  2  9  1 -1</clus>
<clus scale="   80.659">  5  6 -1 -1</clus>
<clus scale="   89.332">  1  5  2 -1</clus>
<clus scale="   93.885">  7  8 -1 -1</clus>
<clus scale="   44.911">  2  5  1 -1</clus>
</clustering>
</event>
<event>
 9    1  0.9171696E-005  0.1084238E+03  0.7546771E-02  0.1267901E+00
         21   -1    0    0  501  502  0.00000000000E+00  0.00000000000E+00  0.19313539368E+03  0.19313539368E+03  0.00000000000E+00 0. -1.
          1   -1    0    0  502    0 -0.00000000000E+00 -0.00000000000E+00 -0.14613144409E+03  0.14613144409E+03  0.00000000000E+00 0. -1.
         23    2    1    2    0    0 -0.62337117584E+02  0.40122395319E+02 -0.82148134987E+02  0.14307115108E+03  0.90693524321E+02 0.  0.
        -24    2    1    2    0    0  0.16011054242E+01 -0.29093094835E+02  0.63796260365E+02  0.10629634075E+03  0.79874761440E+02 0.  0.
         13    1    4    4    0    0 -0.31382778571E+02 -0.78324299612E+01  0.58299154488E+02  0.66670961924E+02  0.00000000000E+00 0. -1.
        -14    1    4    4    0    0  0.32983883995E+02 -0.21260664874E+02  0.54971058772E+01  0.39625378828E+02  0.00000000000E+00 0.  1.
        -13    1    3    3    0    0 -0.74975446860E+02  0.11756709746E+02 -0.82390134520E+02  0.11201639220E+03  0.00000000000E+00 0. -1.
         13    1    3    3    0    0  0.12638329276E+02  0.28365685573E+02  0.24199953362E+00  0.31054758873E+02  0.00000000000E+00 0.  1.
          2    1    1    2  501    0  0.60736012159E+02 -0.11029300484E+02  0.65355824207E+02  0.89899345937E+02  0.00000000000E+00 0. -1.
<scales pt_clust_5="13000.00000" pt_clust_6="13000.00000" pt_clust_7="13000.00000" pt_clust_8="13000.00000" pt_clust_9="61.72932"></scales>
<clustering>
<clus scale="   61.729">  1  9  2 -1</clus>
<clus scale="   79.875">  5  6 -1 -1</clus>
<clus scale="   90.694">  7  8 -1 -1</clus>
<clus scale="   99.551">  1  5  2 -1</clus>
<clus scale="   61.729">  1  5  2 -1</clus>
</clustering>
</event>
<event>
 9    1  0.9171696E-005  0.1309964E+03  0.7546771E-02  0.1248743E+00
         -4   -1    0    0    0  501 -0.00000000000E+00  0.00000000000E+00  0.17880738014E+03  0.17880738014E+03  0.00000000000E+00 0.  1.
         21   -1    0    0  501  502  0.00000000000E+00 -0.00000000000E+00 -0.36406058780E+03  0.36406058780E+03  0.00000000000E+00 0.  1.
        -24    2    1    2    0    0 -0.12846360088E+01 -0.14616687804E+02 -0.92124830868E+02  0.12356210996E+03  0.81026617254E+02 0.  0.
         23    2    1    2    0    0 -0.30847124750E+02  0.91971409493E+02 -0.22627709847E+03  0.26200110567E+03  0.89626830872E+02 0.  0.
         11    1    3    3    0    0  0.27888494902E+02  0.60760109100E+01 -0.44695516915E+01  0.28890533896E+02  0.00000000000E+00 0. -1.
        -12    1    3    3    0    0 -0.29173130911E+02 -0.20692698714E+02 -0.87655279176E+02  0.94671576065E+02  0.00000000000E+00 0.  1.
        -11    1    4    4    0    0 -0.61495751645E+02  0.55328779464E+02 -0.12323932721E+03  0.14842820850E+03  0.00000000000E+00 0. -1.
         11    1    4    4    0    0  0.30648626895E+02  0.36642630030E+02 -0.10303777126E+03  0.11357289717E+03  0.00000000000E+00 0.  1.
         -3    1    1    2    0  502  0.32131760759E+02 -0.77354721690E+02  0.13314872167E+03  0.15730475231E+03  0.00000000000E+00 0.  1.
<scales pt_clust_5="13000.00000" pt_clust_6="13000.00000" pt_clust_7="13000.00000" pt_clust_8="13000.00000" pt_clust_9="95.53580"></scales>
<clustering>
<clus scale="   81.027">  5  6 -1 -1</clus>
<clus scale="   82.345">  1  5  2 -1</clus>
<clus scale="   89.627">  7  8 -1 -1</clus>
<clus scale="   95.536">  2  9  1 -1</clus>
<clus scale="   95.536">  2  5  1 -1</clus>
</clustering>
</event>
<event>
 9    1  0.9171696E-005  0.2011792E+03  0.7546771E-02  0.1156441E+00
         21   -1    0    0  501  502  0.00000000000E+00  0.00000000000E+00  0.98803291020E+02  0.98803291020E+02  0.00000000000E+00 0. -1.
          1   -1    0    0  502    0 -0.00000000000E+00 -0.00000000000E+00 -0.10316002150E+04  0.10316002150E+04  0.00000000000E+00 0. -1.
         23    2    1    2    0    0 -0.13706005483E+03 -0.25364926611E+02 -0.85629202077E+02  0.18838362031E+03  0.93419430649E+02 0.  0.
        -24    2    1    2    0    0 -0.27346436277E+02  0.16478197822E+03 -0.49995235405E+03  0.53333281683E+03  0.81182567477E+02 0.  0.
         11    1    4    4    0    0 -0.43914062597E+02  0.45120073433E+02 -0.20959581347E+03  0.21884851140E+03  0.00000000000E+00 0. -1.
        -12    1    4    4    0    0  0.16567626320E+02  0.11966190479E+03 -0.29035654059E+03  0.31448430543E+03  0.00000000000E+00 0.  1.
        -13    1    3    3    0    0 -0.83771249619E+01 -0.23805719443E+02 -0.48120261195E+02  0.54336433801E+02  0.00000000000E+00 0.  1.
         13    1    3    3    0    0 -0.12868292986E+03 -0.15592071681E+01 -0.37508940883E+02  0.13404718651E+03  0.00000000000E+00 0. -1.
          2    1    1    2  501    0  0.16440649110E+03 -0.13941705161E+03 -0.34721536786E+03  0.40868706888E+03  0.00000000000E+00 0. -1.
<scales pt_clust_5="13000.00000" pt_clust_6="13000.00000" pt_clust_7="13000.00000" pt_clust_8="13000.00000" pt_clust_9="184.07185"></scales>
<clustering>
<clus scale="   81.183">  5  6 -1 -1</clus>
<clus scale="   93.419">  7  8 -1 -1</clus>
<clus scale="  167.798">  2  7  1 -1</clus>
<clus scale="  184.072">  1  9  2 -1</clus>
<clus scale="  184.072">  1  5  2 -1</clus>
</clustering>
</event>
<event>
 9    1  0.9171696E-005  0.8523245E+02  0.7546771E-02  0.1317586E+00
          1   -1    0    0  502    0 -0.00000000000E+00  0.00000000000E+00  0.85861377252E+03  0.85861377252E+03  0.00000000000E+00 0. -1.
         21   -1    0    0  501  502  0.00000000000E+00 -0.00000000000E+00 -0.87838400299E+02  0.87838400299E+02  0.00000000000E+00 0. -1.
        -24    2    1    2    0    0 -0.10104959263E+02  0.27105352449E+01  0.76426844714E+03  0.76853539900E+03  0.80193160666E+02 0.  0.
         23    2    1    2    0    0  0.36944994549E+02 -0.63016445632E+02  0.61097863991E-01  0.11159378376E+03  0.84363284659E+02 0.  0.
         11    1    3    3    0    0 -0.36098772889E+02  0.12307816288E+02  0.20103695211E+03  0.20462272567E+03  0.00000000000E+00 0. -1.
        -12    1    3    3    0    0  0.25993813626E+02 -0.95972810428E+01  0.56323149503E+03  0.56391267333E+03  0.00000000000E+00 0.  1.
        -11    1    4    4    0    0  0.13353878374E+02 -0.27307398777E+02 -0.41828374464E+02  0.51707185245E+02  0.00000000000E+00 0.  1.
         11    1    4    4    0    0  0.23591116174E+02 -0.35709046855E+02  0.41889472328E+02  0.59886598514E+02  0.00000000000E+00 0. -1.
          2    1    1    2  501    0 -0.26840035285E+02  0.60305910388E+02  0.64458272152E+01  0.66322990058E+02  0.00000000000E+00 0. -1.
<scales pt_clust_5="13000.00000" pt_clust_6="13000.00000" pt_clust_7="13000.00000" pt_clust_8="13000.00000" pt_clust_9="66.00902"></scales>
<clustering>
<clus scale="   66.009">  2  9  1 -1</clus>
<clus scale="   80.193">  5  6 -1 -1</clus>
<clus scale="   81.107">  1  5  2 -1</clus>
<clus scale="   84.363">  7  8 -1 -1</clus>
<clus scale="   66.009">  2  5  1 -1</clus>
</clustering>
</event>
<event>
 9    1  0.9171696E-005  0.1730192E+03  0.7546771E-02  0.1175094E+00
         -2   -1    0    0    0  501 -0.00000000000E+00  0.00000000000E+00  0.23644407312E+03  0.23644407312E+03  0.00000000000E+00 0.  1.
         21   -1    0    0  501  502  0.00000000000E+00 -0.00000000000E+00 -0.16988611675E+03  0.16988611675E+03  0.00000000000E+00 0. -1.
        -24    2    1    2    0    0 -0.12827792259E+03  0.11394706788E+03  0.78989538162E+02  0.20655731492E+03  0.83590774042E+02 0.  0.
         23    2    1    2    0    0  0.10076940149E+03 -0.80122929790E+02  0.69198040742E+01  0.15207311410E+03  0.80648572135E+02 0.  0.
         13    1    3    3    0    0 -0.58697838133E+01  0.53496731711E+02  0.29284459228E+02  0.61269357904E+02  0.00000000000E+00 0. -1.
        -14    1    3    3    0    0 -0.12240813877E+03  0.60450336169E+02  0.49705078934E+02  0.14528795701E+03  0.00000000000E+00 0.  1.
        -13    1    4    4    0    0  0.39092274564E+02 -0.77599993701E+02  0.19556709801E+02  0.89064189499E+02  0.00000000000E+00 0. -1.
         13    1    4    4    0    0  0.61677126926E+02 -0.25229360890E+01 -0.12636905727E+02  0.63008924596E+02  0.00000000000E+00 0.  1.
         -1    1    1    2    0  502  0.27508521097E+02 -0.33824138090E+02 -0.19351385866E+02  0.47699760853E+02  0.00000000000E+00 0.  1.
<scales pt_clust_5="13000.00000" pt_clust_6="13000.00000" pt_clust_7="13000.00000" pt_clust_8="13000.00000" pt_clust_9="43.59806"></scales>
<clustering>
<clus scale="   43.598">  2  9  1 -1</clus>
<clus scale="   80.649">  7  8 -1 -1</clus>
<clus scale="   83.591">  5  6 -1 -1</clus>
<clus scale="  171.617">  2  7  1 -1</clus>
<clus scale="   43.598">  2  5  1 -1</clus>
</clustering>
</event>
<event>
 9    1  0.9171696E-005  0.1309576E+03  0.7546771E-02  0.1255143E+00
         21   -1    0    0  501  502  0.00000000000E+00  0.00000000000E+00  0.35478880250E+03  0.35478880250E+03  0.00000000000E+00 0.  1.
         -4   -1    0    0    0  501 -0.00000000000E+00 -0.00000000000E+00 -0.14217011931E+03  0.14217011931E+03  0.00000000000E+00 0.  1.
        -24    2    1    2    0    0  0.22689790244E+01  0.47827513930E+02  0.10891720453E+02  0.73367699131E+02  0.54512111928E+02 0.  0.
         23    2    1    2    0    0 -0.91581495243E+02 -0.24118727162E+01  0.27149029649E+03  0.30150015520E+03  0.93820973659E+02 0.  0.
         11    1    3    3    0    0  0.17859987568E+02  0.23492857968E+02  0.27242048845E+02  0.40162454565E+02  0.00000000000E+00 0. -1.
        -12    1    3    3    0    0 -0.15591008544E+02  0.24334655962E+02 -0.16350328391E+02  0.33205244566E+02  0.00000000000E+00 0.  1.
        -11    1    4    4    0    0 -0.32560888670E+02 -0.45560977318E+02  0.92174545213E+02  0.10785249608E+03  0.00000000000E+00 0. -1.
         11    1    4    4    0    0 -0.59020606572E+02  0.43149104602E+02  0.17931575128E+03  0.19364765913E+03  0.00000000000E+00 0.  1.
         -3    1    1    2    0  502  0.89312516218E+02 -0.45415641214E+02 -0.69763333758E+02  0.12209106748E+03  0.00000000000E+00 0.  1.
<scales pt_clust_5="13000.00000" pt_clust_6="13000.00000" pt_clust_7="13000.00000" pt_clust_8="13000.00000" pt_clust_9="91.36477"></scales>
<clustering>
<clus scale="   54.512">  5  6 -1 -1</clus>
<clus scale="   72.555">  2  5  1 -1</clus>
<clus scale="   91.365">  1  9  2 -1</clus>
<clus scale="   93.821">  7  8 -1 -1</clus>
<clus scale="   91.365">  1  5  2 -1</clus>
</clustering>
</event>
<event>
 9    1  0.9171696E-005  0.9220105E+02  0.7546771E-02  0.1297977E+00
         -2   -1    0    0    0  501 -0.00000000000E+00  0.00000000000E+00  0.17863032560E+03  0.17863032560E+03  0.00000000000E+00 0.  1.
         21   -1    0    0  501  502  0.00000000000E+00 -0.00000000000E+00 -0.12785999076E+03  0.12785999076E+03  0.00000000000E+00 0. -1.
        -24    2    1    2    0    0  0.25644555746E+02 -0.16803457981E+02  0.56232419665E+02  0.10956747849E+03  0.88898525763E+02 0.  0.
         23    2    1    2    0    0  0.16997697813E+02  0.74861074357E+01 -0.72653883078E+02  0.11679848100E+03  0.89545155660E+02 0.  0.
         13    1    3    3    0    0  0.32839014868E+02 -0.43944285466E+02  0.10426897618E+02  0.55841036135E+02  0.00000000000E+00 0. -1.
        -14    1    3    3    0    0 -0.71944591220E+01  0.27140827486E+02  0.45805522047E+02  0.53726442360E+02  0.00000000000E+00 0.  1.
        -11    1    4    4    0    0  0.47819990672E+02 -0.60434502127E+01 -0.15794176050E+02  0.50722093761E+02  0.00000000000E+00 0.  1.
         11    1    4    4    0    0 -0.30822292859E+02  0.13529557648E+02 -0.56859707029E+02  0.66076387240E+02  0.00000000000E+00 0. -1.
         -1    1    1    2    0  502 -0.42642253559E+02  0.93173505450E+01  0.67191798254E+02  0.80124356861E+02  0.00000000000E+00 0.  1.
<scales pt_clust_5="13000.00000" pt_clust_6="13000.00000" pt_clust_7="13000.00000" pt_clust_8="13000.00000" pt_clust_9="43.64833"></scales>
<clustering>
<clus scale="   43.648">  2  9  1 -1</clus>
<clus scale="   88.899">  5  6 -1 -1</clus>
<clus scale="   89.545">  7  8 -1 -1</clus>
<clus scale="   91.573">  1  5  2 -1</clus>
<clus scale="   43.648">  2  5  1 -1</clus>
</clustering>
</event>
<event>
 9    1  0.9171696E-005  0.1207022E+03  0.7546771E-02  0.1244743E+00
         21   -1    0    0  501  502  0.00000000000E+00  0.00000000000E+00  0.34106986865E+03  0.34106986865E+03  0.00000000000E+00 0. -1.
         -2   -1    0    0    0  501 -0.00000000000E+00 -0.00000000000E+00 -0.74523223905E+02  0.74523223905E+02  0.00000000000E+00 0.  1.
        -24    2    1    2    0    0  0.56263975634E+02  0.51628333105E+02  0.11787570398E+02  0.11195422623E+03  0.81016555229E+02 0.  0.
         23    2    1    2    0    0 -0.49802552701E+02 -0.83445332184E+02  0.19835717832E+03  0.23856010411E+03  0.90121780727E+02 0.  0.
         11    1    3    3    0    0 -0.16316243426E+02  0.14931528570E+02  0.20503125369E+02  0.30158721704E+02  0.00000000000E+00 0. -1.
        -12    1    3    3    0    0  0.72580219059E+02  0.36696804535E+02 -0.87155549710E+01  0.81795504523E+02  0.00000000000E+00 0.  1.
        -11    1    4    4    0    0 -0.50895830576E+00 -0.32354115296E+02  0.14805960096E+03  0.15155425844E+03  0.00000000000E+00 0. -1.
         11    1    4    4    0    0 -0.49293594395E+02 -0.51091216887E+02  0.50297577357E+02  0.87005845662E+02  0.00000000000E+00 0.  1.
         -1    1    1    2    0  502 -0.64614229324E+01  0.31816999079E+02  0.56401896029E+02  0.65078762222E+02  0.00000000000E+00 0.  1.
<scales pt_clust_5="13000.00000" pt_clust_6="13000.00000" pt_clust_7="13000.00000" pt_clust_8="13000.00000" pt_clust_9="32.46647"></scales>
<clustering>
<clus scale="   32.466">  1  9  2 -1</clus>
<clus scale="   81.017">  5  6 -1 -1</clus>
<clus scale="   90.122">  7  8 -1 -1</clus>
<clus scale="  114.065">  2  5  1 -1</clus>
<clus scale="   32.466">  1  5  2 -1</clus>
</clustering>
</event>
<event>
 9    1  0.9171696E-005  0.1155898E+03  0.7546771E-02  0.1257887E+00
         21   -1    0    0  501  502  0.00000000000E+00  0.00000000000E+00  0.98999299252E+02  0.98999299252E+02  0.00000000000E+00 0. -1.
          1   -1    0    0  502    0 -0.00000000000E+00 -0.00000000000E+00 -0.25636527894E+03  0.25636527894E+03  0.00000000000E+00 0. -1.
        -24    2    1    2    0    0 -0.67305142596E+02 -0.20195176621E+01 -0.17724824823E+03  0.20534951511E+03  0.78850625756E+02 0.  0.
         23    2    1    2    0    0  0.30388256028E+02  0.53692326337E+01  0.37060044873E+02  0.10915979288E+03  0.97929253502E+02 0.  0.
         11    1    3    3    0    0 -0.43381349914E+02  0.26604984866E+02 -0.15202653868E+03  0.16031791915E+03  0.00000000000E+00 0. -1.
        -12    1    3    3    0    0 -0.23923792682E+02 -0.28624502528E+02 -0.25221709559E+02  0.45031595956E+02  0.00000000000E+00 0.  1.
        -13    1    4    4    0    0 -0.21223403841E+02  0.94322580733E+01  0.50575609128E+02  0.55653325162E+02  0.00000000000E+00 0. -1.
         13    1    4    4    0    0  0.51611659869E+02 -0.40630254397E+01 -0.13515564254E+02  0.53506467715E+02  0.00000000000E+00 0.  1.
          2    1    1    2  501    0  0.36916886567E+02 -0.33497149716E+01 -0.17177776331E+02  0.40855270210E+02  0.00000000000E+00 0. -1.
<scales pt_clust_5="13000.00000" pt_clust_6="13000.00000" pt_clust_7="13000.00000" pt_clust_8="13000.00000" pt_clust_9="37.06855"></scales>
<clustering>
<clus scale="   37.069">  1  9  2 -1</clus>
<clus scale="   78.851">  5  6 -1 -1</clus>
<clus scale="   97.929">  7  8 -1 -1</clus>
<clus scale="   99.941">  2  5  1 -1</clus>
<clus scale="   37.069">  1  5  2 -1</clus>
</clustering>
</event>
<event>
 9    1  0.9171696E-005  0.1151929E+03  0.7546771E-02  0.1264085E+00
         21   -1    0    0  501  502  0.00000000000E+00  0.00000000000E+00  0.17304141225E+03  0.17304141225E+03  0.00000000000E+00 0. -1.
          3   -1    0    0  502    0 -0.00000000000E+00 -0.00000000000E+00 -0.15107606040E+03  0.15107606040E+03  0.00000000000E+00 0. -1.
        -24    2    1    2    0    0  0.26698719170E+02 -0.63283906729E+02 -0.92681218516E+01  0.89963561200E+02  0.57357386664E+02 0.  0.
         23    2    1    2    0    0  0.46834605075E+02  0.81693975290E+02  0.69537348299E+02  0.14922295592E+03  0.92545458750E+02 0.  0.
         13    1    3    3    0    0  0.33421379343E+02 -0.69878511436E+02 -0.10531207020E+01  0.77466793020E+02  0.00000000000E+00 0. -1.
        -14    1    3    3    0    0 -0.67226601727E+01  0.65946047071E+01 -0.82150011496E+01  0.12496768179E+02  0.00000000000E+00 0.  1.
        -11    1    4    4    0    0  0.43471232719E+01 -0.20694230017E+02  0.12335927237E+02  0.24481089386E+02  0.00000000000E+00 0.  1.
         11    1    4    4    0    0  0.42487481803E+02  0.10238820531E+03  0.57201421062E+02  0.12474186654E+03  0.00000000000E+00 0. -1.
          4    1    1    2  501    0 -0.73533324245E+02 -0.18410068561E+02 -0.38303874597E+02  0.84930955535E+02  0.00000000000E+00 0. -1.
<scales pt_clust_5="13000.00000" pt_clust_6="13000.00000" pt_clust_7="13000.00000" pt_clust_8="13000.00000" pt_clust_9="75.80294"></scales>
<clustering>
<clus scale="   57.357">  5  6 -1 -1</clus>
<clus scale="   75.803">  1  9  2 -1</clus>
<clus scale="   89.413">  2  5  1 -1</clus>
<clus scale="   92.545">  7  8 -1 -1</clus>
<clus scale="   75.803">  1  5  2 -1</clus>
</clustering>
</event>
<event>
 9    1  0.9171696E-005  0.2045925E+03  0.7546771E-02  0.1147052E+00
         -2   -1    0    0    0  501 -0.00000000000E+00  0.00000000000E+00  0.73264498975E+03  0.73264498975E+03  0.00000000000E+00 0.  1.
         21   -1    0    0  501  502  0.00000000000E+00 -0.00000000000E+00 -0.15554226463E+03  0.15554226463E+03  0.00000000000E+00 0. -1.
        -24    2    1    2    0    0 -0.80128282137E+02 -0.16552038406E+03  0.63288840748E+03  0.66391331595E+03  0.80097538308E+02 0.  0.
         23    2    1    2    0    0  0.60587250266E+02  0.15980534076E+03 -0.40090396249E+02  0.19856682555E+03  0.92806155555E+02 0.  0.
         11    1    3    3    0    0 -0.38748731119E+02 -0.78337990360E+02  0.17087274975E+03  0.19192655236E+03  0.00000000000E+00 0. -1.
        -12    1    3    3    0    0 -0.41379551018E+02 -0.87182393705E+02  0.46201565773E+03  0.47198676359E+03  0.00000000000E+00 0.  1.
        -13    1    4    4    0    0  0.57908623153E+02  0.84080892481E+02 -0.62308182706E+02  0.11960482744E+03  0.00000000000E+00 0. -1.
         13    1    4    4    0    0  0.26786271128E+01  0.75724448280E+02  0.22217786457E+02  0.78961998110E+02  0.00000000000E+00 0.  1.
         -1    1    1    2    0  502  0.19541031872E+02  0.57150433033E+01 -0.15695286109E+02  0.25707112879E+02  0.00000000000E+00 0.  1.
<scales pt_clust_5="13000.00000" pt_clust_6="13000.00000" pt_clust_7="13000.00000" pt_clust_8="13000.00000" pt_clust_9="20.35961"></scales>
<clustering>
<clus scale="   20.360">  2  9  1 -1</clus>
<clus scale="   80.098">  5  6 -1 -1</clus>
<clus scale="   92.806">  7  8 -1 -1</clus>
<clus scale="  199.150">  1  5  2 -1</clus>
<clus scale="   20.360">  2  5  1 -1</clus>
</clustering>
</event>
<event>
 9    1  0.9171696E-005  0.4067843E+03  0.7546771E-02  0.1041673E+00
         21   -1    0    0  501  502  0.00000000000E+00  0.00000000000E+00  0.38273808748E+03  0.38273808748E+03  0.00000000000E+00 0. -1.
          1   -1    0    0  502    0 -0.00000000000E+00 -0.00000000000E+00 -0.13026941077E+04  0.13026941077E+04  0.00000000000E+00 0. -1.
         23    2    1    2    0    0  0.38342430959E+03  0.18471660936E+03 -0.10058956553E+04  0.10959979373E+04  0.90834918200E+02 0.  0.
        -24    2    1    2    0    0 -0.22175252915E+03 -0.37805141892E+02  0.22724235182E+03  0.32926661643E+03  0.78574838842E+02 0.  0.
         11    1    4    4    0    0 -0.52167817055E+02  0.24470318262E+02  0.54645414018E+02  0.79412838291E+02  0.00000000000E+00 0. -1.
        -12    1    4    4    0    0 -0.16958471210E+03 -0.62275460154E+02  0.17259693780E+03  0.24985377814E+03  0.00000000000E+00 0.  1.
        -11    1    3    3    0    0  0.77708280822E+02  0.79377920878E+02 -0.23003980160E+03  0.25545594836E+03  0.00000000000E+00 0.  1.
         11    1    3    3    0    0  0.30571602877E+03  0.10533868848E+03 -0.77585585369E+03  0.84054198898E+03  0.00000000000E+00 0. -1.
          2    1    1    2  501    0 -0.16167178044E+03 -0.14691146747E+03 -0.14130271673E+03  0.26016764138E+03  0.00000000000E+00 0. -1.
<scales pt_clust_5="13000.00000" pt_clust_6="13000.00000" pt_clust_7="13000.00000" pt_clust_8="13000.00000" pt_clust_9="218.45078"></scales>
<clustering>
<clus scale="   78.575">  5  6 -1 -1</clus>
<clus scale="   90.835">  7  8 -1 -1</clus>
<clus scale="  218.451">  1  9  2 -1</clus>
<clus scale="  404.223">  1  5  2 -1</clus>
<clus scale="  218.451">  1  5  2 -1</clus>
</clustering>
</event>
<event>
 9    1  0.9171696E-005  0.1075255E+03  0.7546771E-02  0.1269870E+00
         21   -1    0    0  501  502  0.00000000000E+00  0.00000000000E+00  0.73717260007E+02  0.73717260007E+02  0.00000000000E+00 0.  1.
          1   -1    0    0  502    0 -0.00000000000E+00 -0.00000000000E+00 -0.43605241531E+03  0.43605241531E+03  0.00000000000E+00 0. -1.
        -24    2    1    2    0    0 -0.92363128420E+01 -0.56020083867E+02 -0.11752155366E+03  0.15317934888E+03  0.80181282590E+02 0.  0.
         23    2    1    2    0    0 -0.66881090735E+01 -0.42518002461E+02 -0.11910824185E+02  0.10319923461E+03  0.93036030408E+02 0.  0.
         11    1    3    3    0    0  0.26860507446E+02 -0.13814022844E+02 -0.81668685006E+02  0.87075187040E+02  0.00000000000E+00 0. -1.
        -12    1    3    3    0    0 -0.36096820288E+02 -0.42206061022E+02 -0.35852868651E+02  0.66104161839E+02  0.00000000000E+00 0.  1.
        -11    1    4    4    0    0 -0.63412427701E+00  0.26019436890E+02  0.14149855587E+02  0.29624848064E+02  0.00000000000E+00 0.  1.
         11    1    4    4    0    0 -0.60539847965E+01 -0.68537439351E+02 -0.26060679772E+02  0.73574386541E+02  0.00000000000E+00 0. -1.
          2    1    1    2  501    0  0.15924421915E+02  0.98538086328E+02 -0.23290277746E+03  0.25339109183E+03  0.00000000000E+00 0. -1.
<scales pt_clust_5="13000.00000" pt_clust_6="13000.00000" pt_clust_7="13000.00000" pt_clust_8="13000.00000" pt_clust_9="53.90773"></scales>
<clustering>
<clus scale="   80.181">  5  6 -1 -1</clus>
<clus scale="   93.036">  7  8 -1 -1</clus>
<clus scale="   98.248">  2  5  1 -1</clus>
<clus scale="   53.908">  1  9  2 -1</clus>
<clus scale="   53.908">  1  5  2 -1</clus>
</clustering>
</event>
<event>
 9    1  0.9171696E-005  0.1623920E+03  0.7546771E-02  0.1188161E+00
          1   -1    0    0  502    0 -0.00000000000E+00  0.00000000000E+00  0.14553318495E+04  0.14553318495E+04  0.00000000000E+00 0. -1.
         21   -1    0    0  501  502  0.00000000000E+00 -0.00000000000E+00 -0.24639181949E+02  0.24639181949E+02  0.00000000000E+00 0.  1.
         23    2    1    2    0    0 -0.99968479159E+02 -0.35260642607E+02  0.44713465321E+03  0.47002523890E+03  0.98779134261E+02 0.  0.
        -24    2    1    2    0    0  0.14109087229E+03  0.56961700963E+02  0.64617523818E+03  0.66937403094E+03  0.85836386473E+02 0.  0.
         11    1    4    4    0    0  0.36263852710E+02 -0.22472733758E+02  0.13720499615E+03  0.14368473038E+03  0.00000000000E+00 0. -1.
        -12    1    4    4    0    0  0.10482701958E+03  0.79434434720E+02  0.50897024202E+03  0.52568930056E+03  0.00000000000E+00 0.  1.
        -13    1    3    3    0    0 -0.45782215296E+02  0.30717465759E+02  0.12219938306E+03  0.13406066970E+03  0.00000000000E+00 0. -1.
         13    1    3    3    0    0 -0.54186263863E+02 -0.65978108366E+02  0.32493527014E+03  0.33596456920E+03  0.00000000000E+00 0.  1.
          2    1    1    2  501    0 -0.41122393129E+02 -0.21701058356E+02  0.33738277620E+03  0.34057176164E+03  0.00000000000E+00 0. -1.
<scales pt_clust_5="13000.00000" pt_clust_6="13000.00000" pt_clust_7="13000.00000" pt_clust_8="13000.00000" pt_clust_9="46.49720"></scales>
<clustering>
<clus scale="   46.497">  2  9  1 -1</clus>
<clus scale="   85.836">  5  6 -1 -1</clus>
<clus scale="   98.779">  7  8 -1 -1</clus>
<clus scale="  154.860">  2  5  1 -1</clus>
<clus scale="   46.497">  2  5  1 -1</clus>
</clustering>
</event>
<event>
 9    1  0.9171696E-005  0.1129248E+03  0.7546771E-02  0.1259841E+00
         21   -1    0    0  501  502  0.00000000000E+00  0.00000000000E+00  0.21493058602E+03  0.21493058602E+03  0.00000000000E+00 0. -1.
          1   -1    0    0  502    0 -0.00000000000E+00 -0.00000000000E+00 -0.29640495230E+03  0.29640495230E+03  0.00000000000E+00 0. -1.
        -24    2    1    2    0    0 -0.29859895331E+02  0.63250576887E+02 -0.25272737724E+03  0.27402177655E+03  0.79527089665E+02 0.  0.
         23    2    1    2    0    0  0.20273443470E+02 -0.27830704311E+02  0.48977078806E+02  0.10965064643E+03  0.91863754557E+02 0.  0.
         11    1    3    3    0    0 -0.57049997276E+02  0.45373586732E+02 -0.16230554790E+03  0.17792289184E+03  0.00000000000E+00 0. -1.
        -12    1    3    3    0    0  0.27190101945E+02  0.17876990155E+02 -0.90421829342E+02  0.96098884709E+02  0.00000000000E+00 0.  1.
        -11    1    4    4    0    0  0.15331732184E+02  0.33290646589E+02  0.21094209449E+02  0.42288235176E+02  0.00000000000E+00 0. -1.
         11    1    4    4    0    0  0.49417112854E+01 -0.61121350899E+02  0.27882869357E+02  0.67362411253E+02  0.00000000000E+00 0.  1.
          2    1    1    2  501    0  0.95864518618E+01 -0.35419872576E+02  0.12227593216E+03  0.12766311534E+03  0.00000000000E+00 0. -1.
<scales pt_clust_5="13000.00000" pt_clust_6="13000.00000" pt_clust_7="13000.00000" pt_clust_8="13000.00000" pt_clust_9="36.69424"></scales>
<clustering>
<clus scale="   36.694">  1  9  2 -1</clus>
<clus scale="   79.527">  5  6 -1 -1</clus>
<clus scale="   91.864">  7  8 -1 -1</clus>
<clus scale="  103.139">  2  5  1 -1</clus>
<clus scale="   36.694">  1  5  2 -1</clus>
</clustering>
</event>
<event>
 9    1  0.9171696E-005  0.4193865E+03  0.7546771E-02  0.1037422E+00
         21   -1    0    0  501  502  0.00000000000E+00  0.00000000000E+00  0.63131996831E+03  0.63131996831E+03  0.00000000000E+00 0.  1.
         -2   -1    0    0    0  501 -0.00000000000E+00 -0.00000000000E+00 -0.31445823142E+03  0.31445823142E+03  0.00000000000E+00 0.  1.
        -24    2    1    2    0    0 -0.42085471240E+03 -0.52540051684E+02  0.12418551266E+03  0.44902137133E+03  0.79492165526E+02 0.  0.
         23    2    1    2    0    0  0.39604789255E+03  0.91487844840E+01  0.15685985889E+03  0.43526705357E+03  0.88964932131E+02 0.  0.
         13    1    3    3    0    0 -0.15427437679E+03  0.10244915748E+02  0.70528249388E+02  0.16994050604E+03  0.00000000000E+00 0. -1.
        -14    1    3    3    0    0 -0.26658033561E+03 -0.62784967432E+02  0.53657263268E+02  0.27908086529E+03  0.00000000000E+00 0.  1.
        -11    1    4    4    0    0  0.42090164280E+02  0.89738912529E+01  0.49052886987E+02  0.65255638646E+02  0.00000000000E+00 0. -1.
         11    1    4    4    0    0  0.35395772827E+03  0.17489323107E+00  0.10780697190E+03  0.37001141493E+03  0.00000000000E+00 0.  1.
         -1    1    1    2    0  502  0.24806819855E+02  0.43391267200E+02  0.35816365352E+02  0.61489774821E+02  0.00000000000E+00 0.  1.
<scales pt_clust_5="13000.00000" pt_clust_6="13000.00000" pt_clust_7="13000.00000" pt_clust_8="13000.00000" pt_clust_9="49.98180"></scales>
<clustering>
<clus scale="   49.982">  1  9  2 -1</clus>
<clus scale="   79.492">  5  6 -1 -1</clus>
<clus scale="   88.965">  7  8 -1 -1</clus>
<clus scale="  417.480">  2  5  1 -1</clus>
<clus scale="   49.982">  1  5  2 -1</clus>
</clustering>
</event>
<event>
 9    1  0.9171696E-005  0.2238371E+03  0.7546771E-02  0.1131829E+00
         21   -1    0    0  501  502  0.00000000000E+00  0.00000000000E+00  0.60831962078E+02  0.60831962078E+02  0.00000000000E+00 0. -1.
          1   -1    0    0  502    0 -0.00000000000E+00 -0.00000000000E+00 -0.13076656744E+04  0.13076656744E+04  0.00000000000E+00 0. -1.
         23    2    1    2    0    0 -0.19057910178E+03  0.12607268275E+03 -0.74769703285E+03  0.78722467545E+03  0.91962608303E+02 0.  0.
        -24    2    1    2    0    0  0.98762192043E+02 -0.14012766836E+03 -0.23947092579E+03  0.30549371749E+03  0.81180989821E+02 0.  0.
         11    1    4    4    0    0  0.25136470561E+02 -0.79005769035E+02 -0.16347496233E+03  0.18329707309E+03  0.00000000000E+00 0. -1.
        -12    1    4    4    0    0  0.73625721482E+02 -0.61121899328E+02 -0.75995963463E+02  0.12219664440E+03  0.00000000000E+00 0.  1.
        -13    1    3    3    0    0 -0.11440069802E+03  0.89255240572E+02 -0.32173686883E+03  0.35294281469E+03  0.00000000000E+00 0. -1.
         13    1    3    3    0    0 -0.76178403756E+02  0.36817442179E+02 -0.42596016403E+03  0.43428186076E+03  0.00000000000E+00 0.  1.
          2    1    1    2  501    0  0.91816909737E+02  0.14054985612E+02 -0.25966575366E+03  0.27577924353E+03  0.00000000000E+00 0. -1.
<scales pt_clust_5="13000.00000" pt_clust_6="13000.00000" pt_clust_7="13000.00000" pt_clust_8="13000.00000" pt_clust_9="92.88647"></scales>
<clustering>
<clus scale="   81.181">  5  6 -1 -1</clus>
<clus scale="   91.963">  7  8 -1 -1</clus>
<clus scale="   92.886">  1  9  2 -1</clus>
<clus scale="  219.628">  1  5  2 -1</clus>
<clus scale="   92.886">  1  5  2 -1</clus>
</clustering>
</event>
<event>
 9    1  0.9171696E-005  0.1003770E+03  0.7546771E-02  0.1288192E+00
         21   -1    0    0  501  502  0.00000000000E+00  0.00000000000E+00  0.97880440135E+02  0.97880440135E+02  0.00000000000E+00 0.  1.
          3   -1    0    0  502    0 -0.00000000000E+00 -0.00000000000E+00 -0.17946259095E+03  0.17946259095E+03  0.00000000000E+00 0. -1.
         23    2    1    2    0    0  0.29454269523E+02  0.40891770710E+02 -0.11172859417E+03  0.15388491639E+03  0.93046213425E+02 0.  0.
        -24    2    1    2    0    0 -0.51461003243E+01 -0.12290594088E+02  0.38730814773E+01  0.77641044308E+02  0.76391033175E+02 0.  0.
         11    1    4    4    0    0 -0.20875590812E+02  0.12097170617E+02 -0.26359245327E+02  0.35734320238E+02  0.00000000000E+00 0. -1.
        -12    1    4    4    0    0  0.15729490487E+02 -0.24387764705E+02  0.30232326804E+02  0.41906724070E+02  0.00000000000E+00 0.  1.
        -11    1    3    3    0    0  0.17834025087E+02 -0.27887188147E+02 -0.20099387635E+02  0.38726387604E+02  0.00000000000E+00 0.  1.
         11    1    3    3    0    0  0.11620244436E+02  0.68778958857E+02 -0.91629206538E+02  0.11515852879E+03  0.00000000000E+00 0. -1.
          4    1    1    2  501    0 -0.24308169199E+02 -0.28601176622E+02  0.26273361881E+02  0.45817070383E+02  0.00000000000E+00 0. -1.
<scales pt_clust_5="13000.00000" pt_clust_6="13000.00000" pt_clust_7="13000.00000" pt_clust_8="13000.00000" pt_clust_9="37.53551"></scales>
<clustering>
<clus scale="   37.536">  1  9  2 -1</clus>
<clus scale="   76.391">  5  6 -1 -1</clus>
<clus scale="   85.168">  1  5  2 -1</clus>
<clus scale="   93.046">  7  8 -1 -1</clus>
<clus scale="   37.536">  1  5  2 -1</clus>
</clustering>
</event>
<event>
 9    1  0.9171696E-005  0.1785854E+03  0.7546771E-02  0.1180824E+00
         21   -1    0    0  501  502  0.00000000000E+00  0.00000000000E+00  0.21074641858E+03  0.21074641858E+03  0.00000000000E+00 0. -1.
          1   -1    0    0  502    0 -0.00000000000E+00 -0.00000000000E+00 -0.29135506213E+03  0.29135506213E+03  0.00000000000E+00 0. -1.
         23    2    1    2    0    0  0.16744414282E+02 -0.76189272939E+02  0.72571184311E+01  0.13733323948E+03  0.11279438008E+03 0.  0.
        -24    2    1    2    0    0  0.15061941644E+03  0.10994717430E+02 -0.19157661402E+02  0.17246175410E+03  0.81049048216E+02 0.  0.
         13    1    4    4    0    0  0.14040701454E+03  0.28156808847E+02  0.22031938987E+01  0.14321937606E+03  0.00000000000E+00 0. -1.
        -14    1    4    4    0    0  0.10212401908E+02 -0.17162091417E+02 -0.21360855301E+02  0.29242378045E+02  0.00000000000E+00 0.  1.
        -13    1    3    3    0    0  0.12591715107E+02 -0.29136608651E+02 -0.52385525702E+02  0.61251420850E+02  0.00000000000E+00 0.  1.
         13    1    3    3    0    0  0.41526991753E+01 -0.47052664288E+02  0.59642644133E+02  0.76081818632E+02  0.00000000000E+00 0. -1.
          2    1    1    2  501    0 -0.16736383073E+03  0.65194555509E+02 -0.68708100587E+02  0.19230648712E+03  0.00000000000E+00 0. -1.
<scales pt_clust_5="13000.00000" pt_clust_6="13000.00000" pt_clust_7="13000.00000" pt_clust_8="13000.00000" pt_clust_9="159.13459"></scales>
<clustering>
<clus scale="   81.049">  5  6 -1 -1</clus>
<clus scale="  112.794">  7  8 -1 -1</clus>
<clus scale="  137.141">  2  7  1 -1</clus>
<clus scale="  159.135">  1  9  2 -1</clus>
<clus scale="  159.135">  1  5  2 -1</clus>
</clustering>
</event>
<event>
 9    1  0.9171696E-005  0.1198584E+03  0.7546771E-02  0.1254902E+00
          1   -1    0    0  502    0 -0.00000000000E+00  0.00000000000E+00  0.10093293344E+04  0.10093293344E+04  0.00000000000E+00 0. -1.
         21   -1    0    0  501  502  0.00000000000E+00 -0.00000000000E+00 -0.62160436846E+02  0.62160436846E+02  0.00000000000E+00 0. -1.
        -24    2    1    2    0    0  0.44259270370E+02 -0.12256288991E+02 -0.43423517966E+01  0.95187405967E+02  0.83262756392E+02 0.  0.
         23    2    1    2    0    0  0.28921415355E+01 -0.71412622870E+02  0.38699910270E+03  0.40367883609E+03  0.89889766016E+02 0.  0.
         11    1    3    3    0    0  0.41378961798E+02  0.15660893893E+02  0.28005115894E+02  0.52361900206E+02  0.00000000000E+00 0. -1.
        -12    1    3    3    0    0  0.28803085717E+01 -0.27917182884E+02 -0.32347467691E+02  0.42825505760E+02  0.00000000000E+00 0.  1.
        -11    1    4    4    0    0 -0.39952145865E+02 -0.12594428656E+02  0.15249015876E+03  0.15813931236E+03  0.00000000000E+00 0. -1.
         11    1    4    4    0    0  0.42844287400E+02 -0.58818194214E+02  0.23450894393E+03  0.24553952374E+03  0.00000000000E+00 0.  1.
          2    1    1    2  501    0 -0.47151411905E+02  0.83668911861E+02  0.56451214667E+03  0.57262352920E+03  0.00000000000E+00 0. -1.
<scales pt_clust_5="13000.00000" pt_clust_6="13000.00000" pt_clust_7="13000.00000" pt_clust_8="13000.00000" pt_clust_9="79.28352"></scales>
<clustering>
<clus scale="   83.263">  5  6 -1 -1</clus>
<clus scale="   89.890">  7  8 -1 -1</clus>
<clus scale="   95.088">  1  5  2 -1</clus>
<clus scale="   79.284">  2  9  1 -1</clus>
<clus scale="   79.284">  2  5  1 -1</clus>
</clustering>
</event>
<event>
 9    1  0.9171696E-005  0.1297850E+03  0.7546771E-02  0.1237590E+00
         21   -1    0    0  501  502  0.00000000000E+00  0.00000000000E+00  0.13248642380E+03  0.13248642380E+03  0.00000000000E+00 0. -1.
          1   -1    0    0  502    0 -0.00000000000E+00 -0.00000000000E+00 -0.64034665970E+03  0.64034665970E+03  0.00000000000E+00 0. -1.
        -24    2    1    2    0    0 -0.39326877134E+02 -0.61550541757E+02 -0.52397760040E+03  0.53460604256E+03  0.76915684739E+02 0.  0.
         23    2    1    2    0    0 -0.62510328382E+02  0.11693080003E+02 -0.32078407749E+02  0.11502227081E+03  0.90315166306E+02 0.  0.
         11    1    3    3    0    0 -0.60411423494E+02 -0.43040982807E+02 -0.43595142348E+03  0.44221681325E+03  0.00000000000E+00 0. -1.
        -12    1    3    3    0    0  0.21084546360E+02 -0.18509558951E+02 -0.88026176926E+02  0.92389229307E+02  0.00000000000E+00 0.  1.
        -13    1    4    4    0    0 -0.66464585743E+02  0.34119489862E+02 -0.46563730678E+02  0.88033299161E+02  0.00000000000E+00 0. -1.
         13    1    4    4    0    0  0.39542573618E+01 -0.22426409859E+02  0.14485322929E+02  0.26988971652E+02  0.00000000000E+00 0.  1.
          2    1    1    2  501    0  0.10183720552E+03  0.49857461755E+02  0.48195772258E+02  0.12320477013E+03  0.00000000000E+00 0. -1.
<scales pt_clust_5="13000.00000" pt_clust_6="13000.00000" pt_clust_7="13000.00000" pt_clust_8="13000.00000" pt_clust_9="93.20573"></scales>
<clustering>
<clus scale="   76.916">  5  6 -1 -1</clus>
<clus scale="   90.315">  7  8 -1 -1</clus>
<clus scale="  106.071">  2  5  1 -1</clus>
<clus scale="   93.206">  1  9  2 -1</clus>
<clus scale="   93.206">  1  5  2 -1</clus>
</clustering>
</event>
<event>
 9    1  0.9171696E-005  0.9518300E+02  0.7546771E-02  0.1299984E+00
         -4   -1    0    0    0  501 -0.00000000000E+00  0.00000000000E+00  0.81894571650E+02  0.81894571650E+02  0.00000000000E+00 0.  1.
         21   -1    0    0  501  502  0.00000000000E+00 -0.00000000000E+00 -0.70508146919E+03  0.70508146919E+03  0.00000000000E+00 0.  1.
         23    2    1    2    0    0  0.63333111110E+01  0.20693752177E+02  0.37025451772E+02  0.10282234573E+03  0.93451637192E+02 0.  0.
        -24    2    1    2    0    0 -0.44208977795E+02  0.30861402510E+02 -0.22418602097E+03  0.24345940298E+03  0.78142491780E+02 0.  0.
         13    1    4    4    0    0  0.18902549221E+02 -0.81971100861E+01 -0.43944785061E+02  0.48534967960E+02  0.00000000000E+00 0. -1.
        -14    1    4    4    0    0 -0.63111527016E+02  0.39058512596E+02 -0.18024123590E+03  0.19492443502E+03  0.00000000000E+00 0.  1.
        -13    1    3    3    0    0 -0.34390254959E+02 -0.13073572790E+02  0.33573747642E+02  0.49807674834E+02  0.00000000000E+00 0.  1.
         13    1    3    3    0    0  0.40723566070E+02  0.33767324967E+02  0.34517041304E+01  0.53014670897E+02  0.00000000000E+00 0. -1.
         -3    1    1    2    0  502  0.37875666684E+02 -0.51555154687E+02 -0.43602632834E+03  0.44069429212E+03  0.00000000000E+00 0.  1.
<scales pt_clust_5="13000.00000" pt_clust_6="13000.00000" pt_clust_7="13000.00000" pt_clust_8="13000.00000" pt_clust_9="63.97265"></scales>
<clustering>
<clus scale="   63.973">  2  9  1 -1</clus>
<clus scale="   78.142">  5  6 -1 -1</clus>
<clus scale="   80.205">  2  5  1 -1</clus>
<clus scale="   93.452">  7  8 -1 -1</clus>
<clus scale="   63.973">  2  5  1 -1</clus>
</clustering>
</event>
<event>
 9    1  0.9171696E-005  0.1466373E+03  0.7546771E-02  0.1224781E+00
          1   -1    0    0  502    0 -0.00000000000E+00  0.00000000000E+00  0.75826779533E+03  0.75826779533E+03  0.00000000000E+00 0. -1.
         21   -1    0    0  501  502  0.00000000000E+00 -0.00000000000E+00 -0.17345117497E+03  0.17345117497E+03  0.00000000000E+00 0. -1.
        -24    2    1    2    0    0  0.18016233101E+02  0.49292781423E+02  0.33938006960E+03  0.35263094229E+03  0.80096110145E+02 0.  0.
         23    2    1    2    0    0 -0.85902134975E+02  0.44939898621E+02  0.37919908621E+03  0.40194201606E+03  0.91469481324E+02 0.  0.
         11    1    3    3    0    0  0.25528998279E+02  0.57488511431E+02  0.33471433047E+03  0.34057354818E+03  0.00000000000E+00 0. -1.
        -12    1    3    3    0    0 -0.75127651784E+01 -0.81957300077E+01  0.46657391329E+01  0.12057394107E+02  0.00000000000E+00 0.  1.
        -11    1    4    4    0    0 -0.72223038638E+02  0.77396470341E+00  0.31280326564E+03  0.32103371992E+03  0.00000000000E+00 0.  1.
         11    1    4    4    0    0 -0.13679096338E+02  0.44165933918E+02  0.66395820564E+02  0.80908296137E+02  0.00000000000E+00 0. -1.
          2    1    1    2  501    0  0.67885901875E+02 -0.94232680044E+02 -0.13376253544E+03  0.17714601195E+03  0.00000000000E+00 0. -1.
<scales pt_clust_5="13000.00000" pt_clust_6="13000.00000" pt_clust_7="13000.00000" pt_clust_8="13000.00000" pt_clust_9="114.61160"></scales>
<clustering>
<clus scale="   80.096">  5  6 -1 -1</clus>
<clus scale="   91.469">  7  8 -1 -1</clus>
<clus scale="   95.759">  1  5  2 -1</clus>
<clus scale="  114.612">  2  9  1 -1</clus>
<clus scale="  114.612">  2  5  1 -1</clus>
</clustering>
</event>
<event>
 9    1  0.9171696E-005  0.1314406E+03  0.7546771E-02  0.1238020E+00
         -2   -1    0    0    0  501 -0.00000000000E+00  0.00000000000E+00  0.32108752671E+03  0.32108752671E+03  0.00000000000E+00 0.  1.
         21   -1    0    0  501  502  0.00000000000E+00 -0.00000000000E+00 -0.32021421836E+03  0.32021421836E+03  0.00000000000E+00 0.  1.
        -24    2    1    2    0    0  0.40993652119E+02 -0.45094270412E+02  0.26529494103E+03  0.28394974863E+03  0.80821292210E+02 0.  0.
         23    2    1    2    0    0 -0.23703214555E+02 -0.66340905849E+02 -0.72526145937E+02  0.13477473890E+03  0.89113580515E+02 0.  0.
         11    1    3    3    0    0  0.42018296091E+02 -0.66799943284E+01  0.51841935684E+02  0.67065235600E+02  0.00000000000E+00 0. -1.
        -12    1    3    3    0    0 -0.10246439716E+01 -0.38414276083E+02  0.21345300534E+03  0.21688451303E+03  0.00000000000E+00 0.  1.
        -13    1    4    4    0    0  0.28430765753E+02 -0.65960365043E+00 -0.27652786022E+02  0.39666359715E+02  0.00000000000E+00 0. -1.
         13    1    4    4    0    0 -0.52133980308E+02 -0.65681302199E+02 -0.44873359915E+02  0.95108379186E+02  0.00000000000E+00 0.  1.
         -1    1    1    2    0  502 -0.17290437564E+02  0.11143517626E+03 -0.19189548674E+03  0.22257725753E+03  0.00000000000E+00 0.  1.
<scales pt_clust_5="13000.00000" pt_clust_6="13000.00000" pt_clust_7="13000.00000" pt_clust_8="13000.00000" pt_clust_9="96.61994"></scales>
<clustering>
<clus scale="   80.821">  5  6 -1 -1</clus>
<clus scale="   89.114">  7  8 -1 -1</clus>
<clus scale="  101.223">  1  5  2 -1</clus>
<clus scale="   96.620">  2  9  1 -1</clus>
<clus scale="   96.620">  2  5  1 -1</clus>
</clustering>
</event>
<event>
 9    1  0.9171696E-005  0.9090875E+02  0.7546771E-02  0.1304613E+00
         -2   -1    0    0    0  501 -0.00000000000E+00  0.00000000000E+00  0.18364716564E+03  0.18364716564E+03  0.00000000000E+00 0.  1.
         21   -1    0    0  501  502  0.00000000000E+00 -0.00000000000E+00 -0.85628518363E+02  0.85628518363E+02  0.00000000000E+00 0. -1.
        -24    2    1    2    0    0  0.25180186363E+02  0.12274986140E+02  0.11184923453E+03  0.14097239962E+03  0.81106406157E+02 0.  0.
         23    2    1    2    0    0  0.69863065419E+01 -0.26702610545E+02 -0.14235391029E+02  0.93047029931E+02  0.87711262289E+02 0.  0.
         13    1    3    3    0    0 -0.27275716789E+02 -0.10460029475E+01  0.18192492236E+02  0.32802829486E+02  0.00000000000E+00 0. -1.
        -14    1    3    3    0    0  0.52455903153E+02  0.13320989088E+02  0.93656742292E+02  0.10816957013E+03  0.00000000000E+00 0.  1.
        -13    1    4    4    0    0 -0.94065393309E+01  0.29159620506E+02  0.63622092748E+01  0.31292877099E+02  0.00000000000E+00 0.  1.
         13    1    4    4    0    0  0.16392845873E+02 -0.55862231051E+02 -0.20597600304E+02  0.61754152833E+02  0.00000000000E+00 0. -1.
         -1    1    1    2    0  502 -0.32166492905E+02  0.14427624405E+02  0.40480377610E+00  0.35256254450E+02  0.00000000000E+00 0.  1.
<scales pt_clust_5="13000.00000" pt_clust_6="13000.00000" pt_clust_7="13000.00000" pt_clust_8="13000.00000" pt_clust_9="35.25393"></scales>
<clustering>
<clus scale="   35.254">  2  9  1 -1</clus>
<clus scale="   81.106">  5  6 -1 -1</clus>
<clus scale="   84.554">  1  5  2 -1</clus>
<clus scale="   87.711">  7  8 -1 -1</clus>
<clus scale="   35.254">  2  5  1 -1</clus>
</clustering>
</event>
<event>
 9    1  0.9171696E-005  0.1078678E+03  0.7546771E-02  0.1270147E+00
          1   -1    0    0  502    0 -0.00000000000E+00  0.00000000000E+00  0.79165064806E+02  0.79165064806E+02  0.00000000000E+00 0. -1.
         21   -1    0    0  501  502  0.00000000000E+00 -0.00000000000E+00 -0.26776385458E+03  0.26776385458E+03  0.00000000000E+00 0. -1.
         23    2    1    2    0    0  0.28255252098E+02  0.47503371190E+02 -0.11770968045E+02  0.10959991408E+03  0.93907698997E+02 0.  0.
        -24    2    1    2    0    0  0.21451396160E+02 -0.60340461737E+02 -0.14093129632E+03  0.17468634963E+03  0.80947864353E+02 0.  0.
         13    1    4    4    0    0  0.47126182583E+02 -0.26108298175E+02 -0.10799678508E+03  0.12068896348E+03  0.00000000000E+00 0. -1.
        -14    1    4    4    0    0 -0.25674786422E+02 -0.34232163561E+02 -0.32934511244E+02  0.53997386148E+02  0.00000000000E+00 0.  1.
        -11    1    3    3    0    0 -0.23788780285E+02 -0.65976635986E+01  0.16156210015E+02  0.29503531220E+02  0.00000000000E+00 0.  1.
         11    1    3    3    0    0  0.52044032384E+02  0.54101034789E+02 -0.27927178060E+02  0.80096382855E+02  0.00000000000E+00 0. -1.
          2    1    1    2  501    0 -0.49706648259E+02  0.12837090546E+02 -0.35896525406E+02  0.62642655683E+02  0.00000000000E+00 0. -1.
<scales pt_clust_5="13000.00000" pt_clust_6="13000.00000" pt_clust_7="13000.00000" pt_clust_8="13000.00000" pt_clust_9="51.33753"></scales>
<clustering>
<clus scale="   51.338">  2  9  1 -1</clus>
<clus scale="   80.948">  5  6 -1 -1</clus>
<clus scale="   93.908">  7  8 -1 -1</clus>
<clus scale="   96.795">  2  5  1 -1</clus>
<clus scale="   51.338">  2  5  1 -1</clus>
</clustering>
</event>
<event>
 9    1  0.9171696E-005  0.9669974E+02  0.7546771E-02  0.1292628E+00
         21   -1    0    0  501  502  0.00000000000E+00  0.00000000000E+00  0.25370235466E+03  0.25370235466E+03  0.00000000000E+00 0.  1.
         -4   -1    0    0    0  501 -0.00000000000E+00 -0.00000000000E+00 -0.16760580625E+03  0.16760580625E+03  0.00000000000E+00 0.  1.
         23    2    1    2    0    0 -0.19711704879E+02 -0.25122625323E+02 -0.94678388108E+02  0.13476270368E+03  0.90428377828E+02 0.  0.
        -24    2    1    2    0    0 -0.27399731687E+02  0.83877828967E+02  0.17373275347E+03  0.21090648743E+03  0.80698459231E+02 0.  0.
         11    1    4    4    0    0  0.19013352388E+02  0.67776831965E+02  0.99119333371E+02  0.12157240134E+03  0.00000000000E+00 0. -1.
        -12    1    4    4    0    0 -0.46413084076E+02  0.16100997002E+02  0.74613420100E+02  0.89334086086E+02  0.00000000000E+00 0.  1.
        -13    1    3    3    0    0 -0.53487305385E+02 -0.35122211991E+01 -0.39642397922E+02  0.66668937655E+02  0.00000000000E+00 0. -1.
         13    1    3    3    0    0  0.33775600506E+02 -0.21610404124E+02 -0.55035990186E+02  0.68093766027E+02  0.00000000000E+00 0.  1.
         -3    1    1    2    0  502  0.47111436566E+02 -0.58755203644E+02  0.70421830544E+01  0.75638969802E+02  0.00000000000E+00 0.  1.
<scales pt_clust_5="13000.00000" pt_clust_6="13000.00000" pt_clust_7="13000.00000" pt_clust_8="13000.00000" pt_clust_9="75.31047"></scales>
<clustering>
<clus scale="   75.310">  1  9  2 -1</clus>
<clus scale="   80.698">  5  6 -1 -1</clus>
<clus scale="   87.669">  1  5  2 -1</clus>
<clus scale="   90.428">  7  8 -1 -1</clus>
<clus scale="   75.310">  1  5  2 -1</clus>
</clustering>
</event>
<event>
 9    1  0.9171696E-005  0.8557175E+02  0.7546771E-02  0.1315285E+00
          3   -1    0    0  502    0 -0.00000000000E+00  0.00000000000E+00  0.87375388122E+02  0.87375388122E+02  0.00000000000E+00 0. -1.
         21   -1    0    0  501  502  0.00000000000E+00 -0.00000000000E+00 -0.11776512637E+03  0.11776512637E+03  0.00000000000E+00 0.  1.
        -24    2    1    2    0    0 -0.24591576662E+02 -0.79717943001E+01 -0.17425435679E+01  0.83850946641E+02  0.79747411541E+02 0.  0.
         23    2    1    2    0    0  0.25244747492E+02 -0.14226823041E+02 -0.40809082584E+02  0.95969284259E+02  0.81884201956E+02 0.  0.
         13    1    3    3    0    0  0.40809292190E+01 -0.37431774887E+02 -0.15183728428E+02  0.40599721224E+02  0.00000000000E+00 0. -1.
        -14    1    3    3    0    0 -0.28672505881E+02  0.29459980587E+02  0.13441184860E+02  0.43251225417E+02  0.00000000000E+00 0.  1.
        -11    1    4    4    0    0  0.27352234956E+02 -0.44627586423E+02 -0.39307233751E+02  0.65458573557E+02  0.00000000000E+00 0.  1.
         11    1    4    4    0    0 -0.21074874640E+01  0.30400763382E+02 -0.15018488334E+01  0.30510710701E+02  0.00000000000E+00 0. -1.
          4    1    1    2  501    0 -0.65317083038E+00  0.22198617341E+02  0.12161887901E+02  0.25320283595E+02  0.00000000000E+00 0. -1.
<scales pt_clust_5="13000.00000" pt_clust_6="13000.00000" pt_clust_7="13000.00000" pt_clust_8="13000.00000" pt_clust_9="22.20824"></scales>
<clustering>
<clus scale="   22.208">  2  9  1 -1</clus>
<clus scale="   79.747">  5  6 -1 -1</clus>
<clus scale="   81.884">  7  8 -1 -1</clus>
<clus scale="   83.529">  1  5  2 -1</clus>
<clus scale="   22.208">  2  5  1 -1</clus>
</clustering>
</event>
<event>
 9    1  0.9171696E-005  0.1031169E+03  0.7546771E-02  0.1278901E+00
          1   -1    0    0  502    0 -0.00000000000E+00  0.00000000000E+00  0.69903180293E+02  0.69903180293E+02  0.00000000000E+00 0. -1.
         21   -1    0    0  501  502  0.00000000000E+00 -0.00000000000E+00 -0.20756853922E+03  0.20756853922E+03  0.00000000000E+00 0.  1.
         23    2    1    2    0    0  0.23258088938E+02  0.52459604654E+02 -0.38859428237E+02  0.11494193727E+03  0.91698663891E+02 0.  0.
        -24    2    1    2    0    0 -0.25894753963E+02 -0.22313329570E+02 -0.98888481499E+02  0.13226830973E+03  0.80916939064E+02 0.  0.
         11    1    4    4    0    0  0.11494424212E+02  0.18372643520E+02 -0.33896109303E+01  0.21935479939E+02  0.00000000000E+00 0. -1.
        -12    1    4    4    0    0 -0.37389178175E+02 -0.40685973089E+02 -0.95498870569E+02  0.11033282980E+03  0.00000000000E+00 0.  1.
        -11    1    3    3    0    0  0.18898640637E+02  0.77480507673E+02 -0.40586421244E+02  0.89485447289E+02  0.00000000000E+00 0.  1.
         11    1    3    3    0    0  0.43594483005E+01 -0.25020903019E+02  0.17269930070E+01  0.25456489982E+02  0.00000000000E+00 0. -1.
          2    1    1    2  501    0  0.26366650252E+01 -0.30146275084E+02  0.82550803493E-01  0.30261472511E+02  0.00000000000E+00 0. -1.
<scales pt_clust_5="13000.00000" pt_clust_6="13000.00000" pt_clust_7="13000.00000" pt_clust_8="13000.00000" pt_clust_9="30.26138"></scales>
<clustering>
<clus scale="   30.261">  2  9  1 -1</clus>
<clus scale="   80.917">  5  6 -1 -1</clus>
<clus scale="   91.699">  7  8 -1 -1</clus>
<clus scale="   93.659">  2  5  1 -1</clus>
<clus scale="   30.261">  2  5  1 -1</clus>
</clustering>
</event>
<event>
 9    1  0.9171696E-005  0.9404402E+02  0.7546771E-02  0.1298658E+00
         21   -1    0    0  501  502  0.00000000000E+00  0.00000000000E+00  0.18069817777E+03  0.18069817777E+03  0.00000000000E+00 0.  1.
         -4   -1    0    0    0  501 -0.00000000000E+00 -0.00000000000E+00 -0.12369400002E+03  0.12369400002E+03  0.00000000000E+00 0.  1.
        -24    2    1    2    0    0  0.29202297385E+02  0.21382152079E+01 -0.83076958770E+02  0.11976236702E+03  0.81141218503E+02 0.  0.
         23    2    1    2    0    0 -0.52754920993E+01 -0.12621878877E+02  0.90697969547E+02  0.12876303715E+03  0.90369549145E+02 0.  0.
         11    1    3    3    0    0  0.13196878067E+02  0.38077967875E+02 -0.18960195030E+02  0.44537380073E+02  0.00000000000E+00 0. -1.
        -12    1    3    3    0    0  0.16005419318E+02 -0.35939752668E+02 -0.64116763740E+02  0.75224986951E+02  0.00000000000E+00 0.  1.
        -11    1    4    4    0    0  0.36870866149E+02  0.15138378476E+02  0.30371663550E+02  0.50110569946E+02  0.00000000000E+00 0.  1.
         11    1    4    4    0    0 -0.42146358249E+02 -0.27760257353E+02  0.60326305997E+02  0.78652467203E+02  0.00000000000E+00 0. -1.
         -3    1    1    2    0  502 -0.23926805286E+02  0.10483663669E+02  0.49383166973E+02  0.55866773626E+02  0.00000000000E+00 0.  1.
<scales pt_clust_5="13000.00000" pt_clust_6="13000.00000" pt_clust_7="13000.00000" pt_clust_8="13000.00000" pt_clust_9="26.12277"></scales>
<clustering>
<clus scale="   26.123">  1  9  2 -1</clus>
<clus scale="   81.141">  5  6 -1 -1</clus>
<clus scale="   85.215">  2  5  1 -1</clus>
<clus scale="   90.370">  7  8 -1 -1</clus>
<clus scale="   26.123">  1  5  2 -1</clus>
</clustering>
</event>
<event>
 9    1  0.9171696E-005  0.1469804E+03  0.7546771E-02  0.1239722E+00
         21   -1    0    0  501  502  0.00000000000E+00  0.00000000000E+00  0.65994100579E+03  0.65994100579E+03  0.00000000000E+00 0. -1.
          1   -1    0    0  502    0 -0.00000000000E+00 -0.00000000000E+00 -0.12429173825E+03  0.12429173825E+03  0.00000000000E+00 0. -1.
        -24    2    1    2    0    0  0.17061583869E+01 -0.56560234071E+01 -0.83556076694E+02  0.10895640851E+03  0.69677682412E+02 0.  0.
         23    2    1    2    0    0  0.11054349173E+03 -0.22926111601E+02  0.26083918439E+03  0.29865553563E+03  0.91720110645E+02 0.  0.
         11    1    3    3    0    0 -0.11334321068E+01 -0.34126564947E+02 -0.20790111433E+02  0.39976691169E+02  0.00000000000E+00 0. -1.
        -12    1    3    3    0    0  0.28395904937E+01  0.28470541540E+02 -0.62765965261E+02  0.68979717344E+02  0.00000000000E+00 0.  1.
        -11    1    4    4    0    0  0.90051889492E+02 -0.20072552722E+01  0.97607106108E+02  0.13281761569E+03  0.00000000000E+00 0. -1.
         11    1    4    4    0    0  0.20491602236E+02 -0.20918856328E+02  0.16323207828E+03  0.16583791994E+03  0.00000000000E+00 0.  1.
          2    1    1    2  501    0 -0.11224965011E+03  0.28582135008E+02  0.35836615985E+03  0.37662079990E+03  0.00000000000E+00 0. -1.
<scales pt_clust_5="13000.00000" pt_clust_6="13000.00000" pt_clust_7="13000.00000" pt_clust_8="13000.00000" pt_clust_9="114.85059"></scales>
<clustering>
<clus scale="   69.678">  5  6 -1 -1</clus>
<clus scale="   69.928">  2  5  1 -1</clus>
<clus scale="   91.720">  7  8 -1 -1</clus>
<clus scale="  114.851">  1  9  2 -1</clus>
<clus scale="  114.851">  1  5  2 -1</clus>
</clustering>
</event>
<event>
 9    1  0.9171696E-005  0.1259805E+03  0.7546771E-02  0.1236290E+00
         -4   -1    0    0    0  501 -0.00000000000E+00  0.00000000000E+00  0.89203733661E+02  0.89203733661E+02  0.00000000000E+00 0.  1.
         21   -1    0    0  501  502  0.00000000000E+00 -0.00000000000E+00 -0.29544052023E+03  0.29544052023E+03  0.00000000000E+00 0. -1.
        -24    2    1    2    0    0  0.53701308322E+02 -0.98039665311E+02 -0.33869143889E+02  0.14077131358E+03  0.78573769976E+02 0.  0.
         23    2    1    2    0    0 -0.50101999131E+02  0.33064123610E+02 -0.11486648486E+03  0.15703309234E+03  0.88665868056E+02 0.  0.
         11    1    3    3    0    0  0.54411873095E+02 -0.27961861620E+02 -0.35386759877E+02  0.70673477441E+02  0.00000000000E+00 0. -1.
        -12    1    3    3    0    0 -0.71056477354E+00 -0.70077803691E+02  0.15176159880E+01  0.70097836135E+02  0.00000000000E+00 0.  1.
        -11    1    4    4    0    0 -0.19462524725E+02 -0.19178212455E+02 -0.16550813251E+00  0.27324368146E+02  0.00000000000E+00 0. -1.
         11    1    4    4    0    0 -0.30639474406E+02  0.52242336065E+02 -0.11470097672E+03  0.12970872419E+03  0.00000000000E+00 0.  1.
         -3    1    1    2    0  502 -0.35993091906E+01  0.64975541701E+02 -0.57501157819E+02  0.86839847976E+02  0.00000000000E+00 0.  1.
<scales pt_clust_5="13000.00000" pt_clust_6="13000.00000" pt_clust_7="13000.00000" pt_clust_8="13000.00000" pt_clust_9="65.07516"></scales>
<clustering>
<clus scale="   65.075">  2  9  1 -1</clus>
<clus scale="   78.574">  5  6 -1 -1</clus>
<clus scale="   88.666">  7  8 -1 -1</clus>
<clus scale="  119.094">  1  5  2 -1</clus>
<clus scale="   65.075">  2  5  1 -1</clus>
</clustering>
</event>
<event>
 9    1  0.9171696E-005  0.1024851E+03  0.7546771E-02  0.1280210E+00
          3   -1    0    0  502    0 -0.00000000000E+00  0.00000000000E+00  0.91470737856E+02  0.91470737856E+02  0.00000000000E+00 0. -1.
         21   -1    0    0  501  502  0.00000000000E+00 -0.00000000000E+00 -0.15084982617E+03  0.15084982617E+03  0.00000000000E+00 0.  1.
         23    2    1    2    0    0  0.10004464477E+02  0.38739345688E+02  0.12121553045E+02  0.10043501910E+03  0.91320505909E+02 0.  0.
        -24    2    1    2    0    0 -0.32623230265E+01 -0.59122791889E+02 -0.51255534852E+02  0.11237612799E+03  0.80592288818E+02 0.  0.
         13    1    4    4    0    0 -0.32476711505E+02  0.72192582694E+00 -0.24141724224E+02  0.40473211086E+02  0.00000000000E+00 0. -1.
        -14    1    4    4    0    0  0.29214388479E+02 -0.59844717716E+02 -0.27113810627E+02  0.71902916905E+02  0.00000000000E+00 0.  1.
        -11    1    3    3    0    0 -0.25857964418E+02 -0.13436834153E+02  0.21792598251E+02  0.36388187293E+02  0.00000000000E+00 0.  1.
         11    1    3    3    0    0  0.35862428895E+02  0.52176179841E+02 -0.96710452061E+01  0.64046831806E+02  0.00000000000E+00 0. -1.
          4    1    1    2  501    0 -0.67421414509E+01  0.20383446201E+02 -0.20245106509E+02  0.29509416936E+02  0.00000000000E+00 0. -1.
<scales pt_clust_5="13000.00000" pt_clust_6="13000.00000" pt_clust_7="13000.00000" pt_clust_8="13000.00000" pt_clust_9="21.46954"></scales>
<clustering>
<clus scale="   21.470">  2  9  1 -1</clus>
<clus scale="   80.592">  5  6 -1 -1</clus>
<clus scale="   91.321">  7  8 -1 -1</clus>
<clus scale="   93.053">  2  5  1 -1</clus>
<clus scale="   21.470">  2  5  1 -1</clus>
</clustering>
</event>
<event>
 9    1  0.9171696E-005  0.1006045E+03  0.7546771E-02  0.1283352E+00
         -4   -1    0    0    0  501 -0.00000000000E+00  0.00000000000E+00  0.44114788633E+02  0.44114788633E+02  0.00000000000E+00 0.  1.
         21   -1    0    0  501  502  0.00000000000E+00 -0.00000000000E+00 -0.47244926268E+03  0.47244926268E+03  0.00000000000E+00 0.  1.
        -24    2    1    2    0    0  0.79463719586E+01 -0.67552546422E+01 -0.74937774962E+02  0.12423890125E+03  0.98543676482E+02 0.  0.
         23    2    1    2    0    0  0.38780402260E+02  0.44338696202E+02 -0.19365670537E+03  0.22170049739E+03  0.90434238139E+02 0.  0.
         11    1    3    3    0    0 -0.36745526668E+02 -0.27101585178E+02 -0.54373423405E+02  0.71001400141E+02  0.00000000000E+00 0. -1.
        -12    1    3    3    0    0  0.44691898627E+02  0.20346330536E+02 -0.20564351557E+02  0.53237501107E+02  0.00000000000E+00 0.  1.
        -11    1    4    4    0    0 -0.23323913270E+02  0.35330059527E+02 -0.10378698849E+03  0.11208905842E+03  0.00000000000E+00 0. -1.
         11    1    4    4    0    0  0.62104315529E+02  0.90086366747E+01 -0.89869716877E+02  0.10961143897E+03  0.00000000000E+00 0.  1.
         -3    1    1    2    0  502 -0.46726774218E+02 -0.37583441560E+02 -0.15973999372E+03  0.17062465268E+03  0.00000000000E+00 0.  1.
<scales pt_clust_5="13000.00000" pt_clust_6="13000.00000" pt_clust_7="13000.00000" pt_clust_8="13000.00000" pt_clust_9="59.96588"></scales>
<clustering>
<clus scale="   59.966">  2  9  1 -1</clus>
<clus scale="   90.434">  7  8 -1 -1</clus>
<clus scale="   92.676">  2  7  1 -1</clus>
<clus scale="   98.544">  5  6 -1 -1</clus>
<clus scale="   59.966">  2  5  1 -1</clus>
</clustering>
</event>
<event>
 9    1  0.9171696E-005  0.1214308E+03  0.7546771E-02  0.1247364E+00
          1   -1    0    0  502    0 -0.00000000000E+00  0.00000000000E+00  0.67854829338E+03  0.67854829338E+03  0.00000000000E+00 0. -1.
         21   -1    0    0  501  502  0.00000000000E+00 -0.00000000000E+00 -0.25315330069E+02  0.25315330069E+02  0.00000000000E+00 0. -1.
        -24    2    1    2    0    0 -0.39643600154E+00 -0.80163768594E+02  0.27075087001E+03  0.29067444978E+03  0.68987065370E+02 0.  0.
         23    2    1    2    0    0 -0.31593508445E+02  0.78926910098E+02  0.30810250431E+03  0.33221257443E+03  0.90611448155E+02 0.  0.
         11    1    3    3    0    0 -0.54056258620E+01 -0.50246787888E+02  0.63210881441E+02  0.80929450860E+02  0.00000000000E+00 0. -1.
        -12    1    3    3    0    0  0.50091898605E+01 -0.29916980707E+02  0.20753998857E+03  0.20974499892E+03  0.00000000000E+00 0.  1.
        -13    1    4    4    0    0  0.29146205830E+02  0.12567598177E+02  0.53775500455E+02  0.62443977191E+02  0.00000000000E+00 0.  1.
         13    1    4    4    0    0 -0.60739714275E+02  0.66359311921E+02  0.25432700385E+03  0.26976859724E+03  0.00000000000E+00 0. -1.
          2    1    1    2  501    0  0.31989944447E+02  0.12368584965E+01  0.74379588999E+02  0.80976599239E+02  0.00000000000E+00 0. -1.
<scales pt_clust_5="13000.00000" pt_clust_6="13000.00000" pt_clust_7="13000.00000" pt_clust_8="13000.00000" pt_clust_9="32.01385"></scales>
<clustering>
<clus scale="   32.014">  2  9  1 -1</clus>
<clus scale="   68.987">  5  6 -1 -1</clus>
<clus scale="   90.611">  7  8 -1 -1</clus>
<clus scale="  106.274">  1  5  2 -1</clus>
<clus scale="   32.014">  2  5  1 -1</clus>
</clustering>
</event>
<event>
 9    1  0.9171696E-005  0.1003296E+03  0.7546771E-02  0.1285693E+00
         21   -1    0    0  501  502  0.00000000000E+00  0.00000000000E+00  0.22703876024E+03  0.22703876024E+03  0.00000000000E+00 0. -1.
          1   -1    0    0  502    0 -0.00000000000E+00 -0.00000000000E+00 -0.11209867197E+03  0.11209867197E+03  0.00000000000E+00 0. -1.
        -24    2    1    2    0    0  0.14947799832E+02 -0.39049223892E+02 -0.61819525125E+02  0.10854915722E+03  0.78822504657E+02 0.  0.
         23    2    1    2    0    0 -0.39433045480E+02  0.30295510292E+02  0.81715304958E+02  0.13205109763E+03  0.91034709317E+02 0.  0.
         11    1    3    3    0    0 -0.30440541051E+02 -0.22611480166E+02 -0.41380978521E+02  0.56127452803E+02  0.00000000000E+00 0. -1.
        -12    1    3    3    0    0  0.45388340883E+02 -0.16437743726E+02 -0.20438546604E+02  0.52421704419E+02  0.00000000000E+00 0.  1.
        -13    1    4    4    0    0  0.13758295094E+02  0.17936204645E+02 -0.10464665305E+02  0.24909984763E+02  0.00000000000E+00 0.  1.
         13    1    4    4    0    0 -0.53191340574E+02  0.12359305647E+02  0.92179970262E+02  0.10714111286E+03  0.00000000000E+00 0. -1.
          2    1    1    2  501    0  0.24485245648E+02  0.87537136001E+01  0.95044308439E+02  0.98537177365E+02  0.00000000000E+00 0. -1.
<scales pt_clust_5="13000.00000" pt_clust_6="13000.00000" pt_clust_7="13000.00000" pt_clust_8="13000.00000" pt_clust_9="26.00298"></scales>
<clustering>
<clus scale="   26.003">  1  9  2 -1</clus>
<clus scale="   78.823">  5  6 -1 -1</clus>
<clus scale="   89.396">  2  5  1 -1</clus>
<clus scale="   91.035">  7  8 -1 -1</clus>
<clus scale="   26.003">  1  5  2 -1</clus>
</clustering>
</event>
<event>
 9    1  0.9171696E-005  0.9201450E+02  0.7546771E-02  0.1323266E+00
          1   -1    0    0  502    0 -0.00000000000E+00  0.00000000000E+00  0.31504762744E+03  0.31504762744E+03  0.00000000000E+00 0. -1.
         21   -1    0    0  501  502  0.00000000000E+00 -0.00000000000E+00 -0.61330365014E+02  0.61330365014E+02  0.00000000000E+00 0.  1.
        -24    2    1    2    0    0  0.12481192186E+01  0.15198198301E+01  0.21400172655E+03  0.22178303091E+03  0.58198850308E+02 0.  0.
         23    2    1    2    0    0  0.39105054833E+02  0.22113871978E+02  0.22906947646E+02  0.10490131323E+03  0.91985480481E+02 0.  0.
         11    1    3    3    0    0  0.28236271157E+02  0.63794728902E+01  0.13752239095E+03  0.14053609037E+03  0.00000000000E+00 0. -1.
        -12    1    3    3    0    0 -0.26988151938E+02 -0.48596530602E+01  0.76479335601E+02  0.81246940539E+02  0.00000000000E+00 0.  1.
        -11    1    4    4    0    0 -0.25555353579E+02 -0.11172642306E+02  0.15213306107E+02  0.31770248903E+02  0.00000000000E+00 0. -1.
         11    1    4    4    0    0  0.64660408413E+02  0.33286514284E+02  0.76936415391E+01  0.73131064326E+02  0.00000000000E+00 0.  1.
          2    1    1    2  501    0 -0.40353174052E+02 -0.23633691808E+02  0.16808588220E+02  0.49693648312E+02  0.00000000000E+00 0. -1.
<scales pt_clust_5="13000.00000" pt_clust_6="13000.00000" pt_clust_7="13000.00000" pt_clust_8="13000.00000" pt_clust_9="46.76462"></scales>
<clustering>
<clus scale="   46.765">  2  9  1 -1</clus>
<clus scale="   58.199">  5  6 -1 -1</clus>
<clus scale="   58.245">  1  5  2 -1</clus>
<clus scale="   91.985">  7  8 -1 -1</clus>
<clus scale="   46.765">  2  5  1 -1</clus>
</clustering>
</event>
<event>
 9    1  0.9171696E-005  0.1312886E+03  0.7546771E-02  0.1227597E+00
          3   -1    0    0  502    0 -0.00000000000E+00  0.00000000000E+00  0.33004778265E+02  0.33004778265E+02  0.00000000000E+00 0. -1.
         21   -1    0    0  501  502  0.00000000000E+00 -0.00000000000E+00 -0.94080406919E+03  0.94080406919E+03  0.00000000000E+00 0. -1.
         23    2    1    2    0    0 -0.45757661813E+02 -0.11380789497E+03 -0.20935288803E+03  0.25261123280E+03  0.70269500068E+02 0.  0.
        -24    2    1    2    0    0 -0.79508130292E+01  0.79964332695E+02 -0.37973555392E+03  0.39622593552E+03  0.79614013483E+02 0.  0.
         13    1    4    4    0    0 -0.27931672608E+01  0.71938531828E+02 -0.15092266961E+03  0.16721425283E+03  0.00000000000E+00 0. -1.
        -14    1    4    4    0    0 -0.51576457683E+01  0.80258008671E+01 -0.22881288430E+03  0.22901168270E+03  0.00000000000E+00 0.  1.
        -11    1    3    3    0    0 -0.39687444527E+02 -0.36507459077E+02 -0.13420031730E+03  0.14462922590E+03  0.00000000000E+00 0. -1.
         11    1    3    3    0    0 -0.60702172863E+01 -0.77300435893E+02 -0.75152570724E+02  0.10798200690E+03  0.00000000000E+00 0.  1.
          4    1    1    2  501    0  0.53708474843E+02  0.33843562275E+02 -0.31871084898E+03  0.32497167913E+03  0.00000000000E+00 0. -1.
<scales pt_clust_5="13000.00000" pt_clust_6="13000.00000" pt_clust_7="13000.00000" pt_clust_8="13000.00000" pt_clust_9="63.48218"></scales>
<clustering>
<clus scale="   63.482">  2  9  1 -1</clus>
<clus scale="   70.270">  7  8 -1 -1</clus>
<clus scale="   79.614">  5  6 -1 -1</clus>
<clus scale="  125.842">  1  7  2 -1</clus>
<clus scale="   63.482">  2  5  1 -1</clus>
</clustering>
</event>
<event>
 9    1  0.9171696E-005  0.2047230E+03  0.7546771E-02  0.1166431E+00
         21   -1    0    0  501  502  0.00000000000E+00  0.00000000000E+00  0.80343506598E+02  0.80343506598E+02  0.00000000000E+00 0. -1.
          1   -1    0    0  502    0 -0.00000000000E+00 -0.00000000000E+00 -0.11448702162E+04  0.11448702162E+04  0.00000000000E+00 0. -1.
         23    2    1    2    0    0 -0.76851000818E+02  0.38362577291E+02 -0.48869785650E+02  0.13539284493E+03  0.92548381112E+02 0.  0.
        -24    2    1    2    0    0 -0.11824811017E+03 -0.10323625686E+03 -0.56957778382E+03  0.59863979448E+03  0.96490473273E+02 0.  0.
         11    1    4    4    0    0 -0.12496255164E+03 -0.66370480236E+02 -0.49972768222E+03  0.51937311861E+03  0.00000000000E+00 0. -1.
        -12    1    4    4    0    0  0.67144414759E+01 -0.36865776626E+02 -0.69850101597E+02  0.79266675872E+02  0.00000000000E+00 0.  1.
        -11    1    3    3    0    0  0.73440190016E+01  0.29929849755E+02 -0.39734618559E+02  0.50284892697E+02  0.00000000000E+00 0.  1.
         11    1    3    3    0    0 -0.84195019820E+02  0.84327275358E+01 -0.91351670908E+01  0.85107952237E+02  0.00000000000E+00 0. -1.
          2    1    1    2  501    0  0.19509911099E+03  0.64873679571E+02 -0.44607914013E+03  0.49118108338E+03  0.00000000000E+00 0. -1.
<scales pt_clust_5="13000.00000" pt_clust_6="13000.00000" pt_clust_7="13000.00000" pt_clust_8="13000.00000" pt_clust_9="180.55776"></scales>
<clustering>
<clus scale="   92.548">  7  8 -1 -1</clus>
<clus scale="   96.490">  5  6 -1 -1</clus>
<clus scale="  126.266">  2  7  1 -1</clus>
<clus scale="  180.558">  1  9  2 -1</clus>
<clus scale="  180.558">  1  5  2 -1</clus>
</clustering>
</event>
<event>
 9    1  0.9171696E-005  0.9882982E+02  0.7546771E-02  0.1289093E+00
         21   -1    0    0  501  502  0.00000000000E+00  0.00000000000E+00  0.98017039005E+02  0.98017039005E+02  0.00000000000E+00 0. -1.
          1   -1    0    0  502    0 -0.00000000000E+00 -0.00000000000E+00 -0.36589178049E+03  0.36589178049E+03  0.00000000000E+00 0. -1.
        -24    2    1    2    0    0 -0.42281972428E+02  0.16222558139E+01 -0.29757987567E+03  0.31071249987E+03  0.78727874760E+02 0.  0.
         23    2    1    2    0    0 -0.21096674333E+01 -0.23084614829E+02  0.41331302708E+02  0.10253648999E+03  0.90929121063E+02 0.  0.
         13    1    3    3    0    0 -0.63746994728E+02  0.13001166356E+02 -0.21340235267E+03  0.22309924649E+03  0.00000000000E+00 0. -1.
        -14    1    3    3    0    0  0.21465022300E+02 -0.11378910542E+02 -0.84177523003E+02  0.87613253372E+02  0.00000000000E+00 0.  1.
        -11    1    4    4    0    0 -0.16662279982E+02  0.20619069780E+02  0.49122496802E+02  0.55819327342E+02  0.00000000000E+00 0. -1.
         11    1    4    4    0    0  0.14552612549E+02 -0.43703684609E+02 -0.77911940938E+01  0.46717162647E+02  0.00000000000E+00 0.  1.
          2    1    1    2  501    0  0.44391639861E+02  0.21462359016E+02 -0.11626168521E+02  0.50659829634E+02  0.00000000000E+00 0. -1.
<scales pt_clust_5="13000.00000" pt_clust_6="13000.00000" pt_clust_7="13000.00000" pt_clust_8="13000.00000" pt_clust_9="49.30771"></scales>
<clustering>
<clus scale="   49.308">  1  9  2 -1</clus>
<clus scale="   78.728">  5  6 -1 -1</clus>
<clus scale="   87.734">  2  5  1 -1</clus>
<clus scale="   90.929">  7  8 -1 -1</clus>
<clus scale="   49.308">  1  5  2 -1</clus>
</clustering>
</event>
<event>
 9    1  0.9171696E-005  0.1254607E+03  0.7546771E-02  0.1239124E+00
         21   -1    0    0  501  502  0.00000000000E+00  0.00000000000E+00  0.12406327233E+03  0.12406327233E+03  0.00000000000E+00 0.  1.
         -2   -1    0    0    0  501 -0.00000000000E+00 -0.00000000000E+00 -0.24529781895E+03  0.24529781895E+03  0.00000000000E+00 0.  1.
        -24    2    1    2    0    0 -0.25323726447E+02 -0.97822767940E+02 -0.11823424455E+03  0.17477652208E+03  0.79730239165E+02 0.  0.
         23    2    1    2    0    0 -0.38300326277E+02  0.49698734075E+02 -0.80035949374E+01  0.11465350103E+03  0.95626819482E+02 0.  0.
         11    1    3    3    0    0  0.28798911880E+02 -0.26685329306E+02 -0.38712187614E+02  0.55137261408E+02  0.00000000000E+00 0. -1.
        -12    1    3    3    0    0 -0.54122638327E+02 -0.71137438634E+02 -0.79522056937E+02  0.11963926067E+03  0.00000000000E+00 0.  1.
        -11    1    4    4    0    0 -0.26157703132E+02  0.78440297286E+01  0.40881142432E+02  0.49163218386E+02  0.00000000000E+00 0.  1.
         11    1    4    4    0    0 -0.12142623144E+02  0.41854704346E+02 -0.48884737369E+02  0.65490282641E+02  0.00000000000E+00 0. -1.
         -1    1    1    2    0  502  0.63624052724E+02  0.48124033866E+02  0.50032928641E+01  0.79931068178E+02  0.00000000000E+00 0.  1.
<scales pt_clust_5="13000.00000" pt_clust_6="13000.00000" pt_clust_7="13000.00000" pt_clust_8="13000.00000" pt_clust_9="79.77432"></scales>
<clustering>
<clus scale="   79.730">  5  6 -1 -1</clus>
<clus scale="   79.774">  1  9  2 -1</clus>
<clus scale="   95.627">  7  8 -1 -1</clus>
<clus scale="  113.810">  2  5  1 -1</clus>
<clus scale="   79.774">  1  5  2 -1</clus>
</clustering>
</event>
<event>
 9    1  0.9171696E-005  0.9350025E+02  0.7546771E-02  0.1300808E+00
         -2   -1    0    0    0  501 -0.00000000000E+00  0.00000000000E+00  0.23059746628E+03  0.23059746628E+03  0.00000000000E+00 0.  1.
         21   -1    0    0  501  502  0.00000000000E+00 -0.00000000000E+00 -0.84258818583E+02  0.84258818583E+02  0.00000000000E+00 0.  1.
         23    2    1    2    0    0  0.63145764110E+01 -0.24393250164E+02  0.10910103612E+03  0.14387565604E+03  0.90345247746E+02 0.  0.
        -24    2    1    2    0    0 -0.55808371313E+02 -0.20858105694E+02  0.26741625937E+02  0.10310215908E+03  0.79782866373E+02 0.  0.
         13    1    4    4    0    0 -0.30336785491E+02  0.19475475732E+02  0.39744462405E+02  0.53658522164E+02  0.00000000000E+00 0. -1.
        -14    1    4    4    0    0 -0.25471585822E+02 -0.40333581426E+02 -0.13002836468E+02  0.49443636913E+02  0.00000000000E+00 0.  1.
        -11    1    3    3    0    0  0.39988239659E+02 -0.31235548104E+02  0.92970401538E+02  0.10591607214E+03  0.00000000000E+00 0.  1.
         11    1    3    3    0    0 -0.33673663248E+02  0.68422979403E+01  0.16130634583E+02  0.37959583898E+02  0.00000000000E+00 0. -1.
         -1    1    1    2    0  502  0.49493794902E+02  0.45251355858E+02  0.10495985643E+02  0.67878469749E+02  0.00000000000E+00 0.  1.
<scales pt_clust_5="13000.00000" pt_clust_6="13000.00000" pt_clust_7="13000.00000" pt_clust_8="13000.00000" pt_clust_9="67.06207"></scales>
<clustering>
<clus scale="   67.062">  2  9  1 -1</clus>
<clus scale="   79.783">  5  6 -1 -1</clus>
<clus scale="   83.339">  2  5  1 -1</clus>
<clus scale="   90.345">  7  8 -1 -1</clus>
<clus scale="   67.062">  2  5  1 -1</clus>
</clustering>
</event>
<event>
 9    1  0.1190695E-004  0.9470325E+02  0.7546771E-02  0.1299162E+00
          1   -1    0    0  502    0 -0.00000000000E+00  0.00000000000E+00  0.33066869839E+03  0.33066869839E+03  0.00000000000E+00 0. -1.
         21   -1    0    0  501  502  0.00000000000E+00 -0.00000000000E+00 -0.23546047037E+03  0.23546047037E+03  0.00000000000E+00 0.  1.
         23    2    1    2    0    0 -0.17278539476E+02  0.80425616313E+01  0.30575359686E+03  0.32001223473E+03  0.92516688539E+02 0.  0.
        -24    2    1    2    0    0  0.34111581321E+02 -0.21663039997E+02 -0.10395939289E+03  0.13735370956E+03  0.80159833323E+02 0.  0.
         13    1    4    4    0    0  0.33865302034E+02 -0.35871880429E+01 -0.23358123804E+01  0.34134771413E+02  0.00000000000E+00 0. -1.
        -14    1    4    4    0    0  0.24627928731E+00 -0.18075851954E+02 -0.10162358051E+03  0.10321893815E+03  0.00000000000E+00 0.  1.
        -11    1    3    3    0    0 -0.31767985356E+02  0.44670419685E+02  0.18936545979E+03  0.19713936352E+03  0.00000000000E+00 0. -1.
         11    1    3    3    0    0  0.14489445880E+02 -0.36627858054E+02  0.11638813707E+03  0.12287287121E+03  0.00000000000E+00 0.  1.
          2    1    1    2  501    0 -0.16833041846E+02  0.13620478365E+02 -0.10658597595E+03  0.10876322448E+03  0.00000000000E+00 0. -1.
<scales pt_clust_5="13000.00000" pt_clust_6="13000.00000" pt_clust_7="13000.00000" pt_clust_8="13000.00000" pt_clust_9="21.65338"></scales>
<clustering>
<clus scale="   21.653">  2  9  1 -1</clus>
<clus scale="   80.160">  5  6 -1 -1</clus>
<clus scale="   82.674">  2  5  1 -1</clus>
<clus scale="   92.517">  7  8 -1 -1</clus>
<clus scale="   21.653">  2  5  1 -1</clus>
</clustering>
</event>
<event>
 9    1  0.9171696E-005  0.1719355E+03  0.7546771E-02  0.1199159E+00
         21   -1    0    0  501  502  0.00000000000E+00  0.00000000000E+00  0.83030743012E+02  0.83030743012E+02  0.00000000000E+00 0.  1.
          3   -1    0    0  502    0 -0.00000000000E+00 -0.00000000000E+00 -0.98837074492E+03  0.98837074492E+03  0.00000000000E+00 0. -1.
        -24    2    1    2    0    0 -0.81993015585E+01  0.44999617163E+02 -0.97577529179E+01  0.10295074800E+03  0.91713950306E+02 0.  0.
         23    2    1    2    0    0 -0.11858478365E+03  0.68636179198E+02 -0.23921123027E+03  0.29035766911E+03  0.91171746271E+02 0.  0.
         13    1    3    3    0    0  0.41586249135E+02  0.24587830944E+02 -0.26281806129E+00  0.48311971818E+02  0.00000000000E+00 0. -1.
        -14    1    3    3    0    0 -0.49785550694E+02  0.20411786219E+02 -0.94949348566E+01  0.54638776180E+02  0.00000000000E+00 0.  1.
        -11    1    4    4    0    0 -0.16307228952E+02 -0.18938983331E+02 -0.15987618924E+02  0.29668413583E+02  0.00000000000E+00 0. -1.
         11    1    4    4    0    0 -0.10227755470E+03  0.87575162528E+02 -0.22322361135E+03  0.26068925553E+03  0.00000000000E+00 0.  1.
          4    1    1    2  501    0  0.12678408521E+03 -0.11363579636E+03 -0.65637101873E+03  0.67809307082E+03  0.00000000000E+00 0. -1.
<scales pt_clust_5="13000.00000" pt_clust_6="13000.00000" pt_clust_7="13000.00000" pt_clust_8="13000.00000" pt_clust_9="145.77229"></scales>
<clustering>
<clus scale="   91.172">  7  8 -1 -1</clus>
<clus scale="   91.714">  5  6 -1 -1</clus>
<clus scale="  102.487">  2  5  1 -1</clus>
<clus scale="  145.772">  1  9  2 -1</clus>
<clus scale="  145.772">  1  5  2 -1</clus>
</clustering>
</event>
<event>
 9    1  0.9171696E-005  0.1816896E+03  0.7546771E-02  0.1191284E+00
         -2   -1    0    0    0  501 -0.00000000000E+00  0.00000000000E+00  0.15370742849E+03  0.15370742849E+03  0.00000000000E+00 0.  1.
         21   -1    0    0  501  502  0.00000000000E+00 -0.00000000000E+00 -0.49063166305E+03  0.49063166305E+03  0.00000000000E+00 0.  1.
        -24    2    1    2    0    0 -0.56854160246E+02  0.31653744846E+02 -0.22056819711E+03  0.24351543318E+03  0.80094204023E+02 0.  0.
         23    2    1    2    0    0  0.19031911561E+03  0.29036167444E+02  0.52772871288E+00  0.21331905961E+03  0.91870985140E+02 0.  0.
         13    1    3    3    0    0 -0.28427387180E+02 -0.23427829996E+02 -0.50531555587E+02  0.62533332473E+02  0.00000000000E+00 0. -1.
        -14    1    3    3    0    0 -0.28426773066E+02  0.55081574842E+02 -0.17003664153E+03  0.18098210070E+03  0.00000000000E+00 0.  1.
        -13    1    4    4    0    0  0.39869619492E+02 -0.20974177691E+02  0.27086966583E+02  0.52566210125E+02  0.00000000000E+00 0. -1.
         13    1    4    4    0    0  0.15044949611E+03  0.50010345135E+02 -0.26559237870E+02  0.16075284949E+03  0.00000000000E+00 0.  1.
         -1    1    1    2    0  502 -0.13346495536E+03 -0.60689912290E+02 -0.11688376616E+03  0.18750459876E+03  0.00000000000E+00 0.  1.
<scales pt_clust_5="13000.00000" pt_clust_6="13000.00000" pt_clust_7="13000.00000" pt_clust_8="13000.00000" pt_clust_9="156.75092"></scales>
<clustering>
<clus scale="   80.094">  5  6 -1 -1</clus>
<clus scale="   91.871">  7  8 -1 -1</clus>
<clus scale="  103.196">  1  5  2 -1</clus>
<clus scale="  156.751">  2  9  1 -1</clus>
<clus scale="  156.751">  2  5  1 -1</clus>
</clustering>
</event>
<event>
 9    1  0.9171696E-005  0.3174072E+03  0.7546771E-02  0.1124761E+00
         21   -1    0    0  501  502  0.00000000000E+00  0.00000000000E+00  0.16223245191E+03  0.16223245191E+03  0.00000000000E+00 0. -1.
          1   -1    0    0  502    0 -0.00000000000E+00 -0.00000000000E+00 -0.98641466693E+03  0.98641466693E+03  0.00000000000E+00 0. -1.
        -24    2    1    2    0    0  0.22170356742E+02 -0.33864471580E+02 -0.11705588889E+03  0.14868333130E+03  0.82257672765E+02 0.  0.
         23    2    1    2    0    0  0.29262687978E+03  0.65746149593E+02 -0.12528834211E+03  0.33765783018E+03  0.91447223365E+02 0.  0.
         13    1    3    3    0    0  0.32166992949E+02 -0.56714048222E+02 -0.95971486467E+02  0.11602467374E+03  0.00000000000E+00 0. -1.
        -14    1    3    3    0    0 -0.99966362072E+01  0.22849576642E+02 -0.21084402426E+02  0.32658657564E+02  0.00000000000E+00 0.  1.
        -11    1    4    4    0    0  0.43123323266E+02  0.24830933169E+02 -0.57196695061E+02  0.75813311347E+02  0.00000000000E+00 0.  1.
         11    1    4    4    0    0  0.24950355651E+03  0.40915216425E+02 -0.68091647047E+02  0.26184451884E+03  0.00000000000E+00 0. -1.
          2    1    1    2  501    0 -0.31479723652E+03 -0.31881678013E+02 -0.58183798402E+03  0.66230595736E+03  0.00000000000E+00 0. -1.
<scales pt_clust_5="13000.00000" pt_clust_6="13000.00000" pt_clust_7="13000.00000" pt_clust_8="13000.00000" pt_clust_9="303.94870"></scales>
<clustering>
<clus scale="   82.258">  5  6 -1 -1</clus>
<clus scale="   91.447">  7  8 -1 -1</clus>
<clus scale="   91.677">  2  5  1 -1</clus>
<clus scale="  303.949">  1  9  2 -1</clus>
<clus scale="  303.949">  1  5  2 -1</clus>
</clustering>
</event>
<event>
 9    1  0.9171696E-005  0.2420251E+03  0.7546771E-02  0.1118951E+00
          1   -1    0    0  502    0 -0.00000000000E+00  0.00000000000E+00  0.78596297486E+03  0.78596297486E+03  0.00000000000E+00 0. -1.
         21   -1    0    0  501  502  0.00000000000E+00 -0.00000000000E+00 -0.16860367609E+03  0.16860367609E+03  0.00000000000E+00 0. -1.
        -24    2    1    2    0    0  0.22921205351E+03 -0.10513820502E+03  0.44954083007E+03  0.52200982804E+03  0.82553588908E+02 0.  0.
         23    2    1    2    0    0 -0.75926065229E+02  0.18492344920E+03  0.55690530685E+02  0.22655936207E+03  0.90918974313E+02 0.  0.
         11    1    3    3    0    0  0.20337908813E+03 -0.98797397873E+02  0.33324714440E+03  0.40271284877E+03  0.00000000000E+00 0. -1.
        -12    1    3    3    0    0  0.25832965376E+02 -0.63408071504E+01  0.11629368568E+03  0.11929697927E+03  0.00000000000E+00 0.  1.
        -11    1    4    4    0    0 -0.71514963842E+02  0.13901865880E+03  0.78694532044E+02  0.17502401813E+03  0.00000000000E+00 0.  1.
         11    1    4    4    0    0 -0.44111013870E+01  0.45904790398E+02 -0.23004001359E+02  0.51535343944E+02  0.00000000000E+00 0. -1.
          2    1    1    2  501    0 -0.15328598828E+03 -0.79785244172E+02  0.11212793801E+03  0.20599746084E+03  0.00000000000E+00 0. -1.
<scales pt_clust_5="13000.00000" pt_clust_6="13000.00000" pt_clust_7="13000.00000" pt_clust_8="13000.00000" pt_clust_9="172.80706"></scales>
<clustering>
<clus scale="   82.554">  5  6 -1 -1</clus>
<clus scale="   90.919">  7  8 -1 -1</clus>
<clus scale="  172.807">  2  9  1 -1</clus>
<clus scale="  239.008">  1  5  2 -1</clus>
<clus scale="  172.807">  2  5  1 -1</clus>
</clustering>
</event>
<event>
 9    1  0.9171696E-005  0.1103421E+03  0.7546771E-02  0.1263563E+00
         21   -1    0    0  501  502  0.00000000000E+00  0.00000000000E+00  0.38259436238E+03  0.38259436238E+03  0.00000000000E+00 0. -1.
          3   -1    0    0  502    0 -0.00000000000E+00 -0.00000000000E+00 -0.72102806236E+02  0.72102806236E+02  0.00000000000E+00 0. -1.
         23    2    1    2    0    0  0.43738213083E+02 -0.38818436620E+02 -0.24235182094E+01  0.10940734835E+03  0.92434799333E+02 0.  0.
        -24    2    1    2    0    0 -0.68451799875E+02  0.27344686985E+02  0.28657563817E+03  0.30739293119E+03  0.83255251735E+02 0.  0.
         11    1    4    4    0    0 -0.47060923483E+02 -0.25057276667E+02  0.16236090736E+03  0.17089078931E+03  0.00000000000E+00 0. -1.
        -12    1    4    4    0    0 -0.21390876392E+02  0.52401963651E+02  0.12421473081E+03  0.13650214188E+03  0.00000000000E+00 0.  1.
        -13    1    3    3    0    0  0.33935950524E+02  0.16974945295E+02  0.26030243911E+02  0.46014900888E+02  0.00000000000E+00 0.  1.
         13    1    3    3    0    0  0.98022625599E+01 -0.55793381915E+02 -0.28453762120E+02  0.63392447465E+02  0.00000000000E+00 0. -1.
          4    1    1    2  501    0  0.24713586791E+02  0.11473749635E+02  0.26339436183E+02  0.37896889071E+02  0.00000000000E+00 0. -1.
<scales pt_clust_5="13000.00000" pt_clust_6="13000.00000" pt_clust_7="13000.00000" pt_clust_8="13000.00000" pt_clust_9="27.24717"></scales>
<clustering>
<clus scale="   27.247">  1  9  2 -1</clus>
<clus scale="   83.255">  5  6 -1 -1</clus>
<clus scale="   92.435">  7  8 -1 -1</clus>
<clus scale="  102.775">  1  5  2 -1</clus>
<clus scale="   27.247">  1  5  2 -1</clus>
</clustering>
</event>
<event>
 9    1  0.9171696E-005  0.1024686E+03  0.7546771E-02  0.1280868E+00
          1   -1    0    0  502    0 -0.00000000000E+00  0.00000000000E+00  0.59878726557E+03  0.59878726557E+03  0.00000000000E+00 0. -1.
         21   -1    0    0  501  502  0.00000000000E+00 -0.00000000000E+00 -0.42087893969E+02  0.42087893969E+02  0.00000000000E+00 0. -1.
        -24    2    1    2    0    0  0.71689117565E+02 -0.23750265961E+02  0.35921686293E+03  0.37546026408E+03  0.78931936368E+02 0.  0.
         23    2    1    2    0    0  0.83863617291E+01  0.12901809224E+02  0.13379388428E+03  0.16252654688E+03  0.90979597846E+02 0.  0.
         13    1    3    3    0    0  0.65045247221E+02  0.10917721592E+02  0.29395897981E+03  0.30126726115E+03  0.00000000000E+00 0. -1.
        -14    1    3    3    0    0  0.66438703440E+01 -0.34667987553E+02  0.65257883121E+02  0.74193002928E+02  0.00000000000E+00 0.  1.
        -13    1    4    4    0    0 -0.29365567217E+02  0.31780855638E+02  0.98207764725E+02  0.10731786606E+03  0.00000000000E+00 0.  1.
         13    1    4    4    0    0  0.37751928946E+02 -0.18879046413E+02  0.35586119555E+02  0.55208680817E+02  0.00000000000E+00 0. -1.
          2    1    1    2  501    0 -0.80075479294E+02  0.10848456737E+02  0.63688624394E+02  0.10288834859E+03  0.00000000000E+00 0. -1.
<scales pt_clust_5="13000.00000" pt_clust_6="13000.00000" pt_clust_7="13000.00000" pt_clust_8="13000.00000" pt_clust_9="80.80700"></scales>
<clustering>
<clus scale="   78.932">  5  6 -1 -1</clus>
<clus scale="   80.807">  2  9  1 -1</clus>
<clus scale="   90.980">  7  8 -1 -1</clus>
<clus scale="   91.939">  1  5  2 -1</clus>
<clus scale="   80.807">  2  5  1 -1</clus>
</clustering>
</event>
<event>
 9    1  0.9171696E-005  0.1076538E+03  0.7546771E-02  0.1269896E+00
         21   -1    0    0  501  502  0.00000000000E+00  0.00000000000E+00  0.70074493819E+02  0.70074493819E+02  0.00000000000E+00 0.  1.
          1   -1    0    0  502    0 -0.00000000000E+00 -0.00000000000E+00 -0.27195346620E+03  0.27195346620E+03  0.00000000000E+00 0. -1.
         23    2    1    2    0    0  0.15388056713E+02 -0.44557314614E+02 -0.90302310185E+02  0.13665475884E+03  0.91092641388E+02 0.  0.
        -24    2    1    2    0    0 -0.73253458515E+02  0.36633891543E+02 -0.71717709723E+02  0.13466307848E+03  0.79262876714E+02 0.  0.
         13    1    4    4    0    0 -0.40225249609E+02 -0.19848777965E+02 -0.46311145237E+02  0.64472993306E+02  0.00000000000E+00 0. -1.
        -14    1    4    4    0    0 -0.33028208906E+02  0.56482669508E+02 -0.25406564486E+02  0.70190085178E+02  0.00000000000E+00 0.  1.
        -13    1    3    3    0    0 -0.30246659606E+02  0.88552564230E+01 -0.36109544376E+02  0.47928855387E+02  0.00000000000E+00 0.  1.
         13    1    3    3    0    0  0.45634716319E+02 -0.53412571037E+02 -0.54192765808E+02  0.88725903457E+02  0.00000000000E+00 0. -1.
          2    1    1    2  501    0  0.57865401802E+02  0.79234230707E+01 -0.39858952479E+02  0.70710122695E+02  0.00000000000E+00 0. -1.
<scales pt_clust_5="13000.00000" pt_clust_6="13000.00000" pt_clust_7="13000.00000" pt_clust_8="13000.00000" pt_clust_9="58.40535"></scales>
<clustering>
<clus scale="   58.405">  1  9  2 -1</clus>
<clus scale="   79.263">  5  6 -1 -1</clus>
<clus scale="   91.093">  7  8 -1 -1</clus>
<clus scale="   97.847">  1  5  2 -1</clus>
<clus scale="   58.405">  1  5  2 -1</clus>
</clustering>
</event>
<event>
 9    1  0.9171696E-005  0.1318944E+03  0.7546771E-02  0.1228030E+00
         21   -1    0    0  501  502  0.00000000000E+00  0.00000000000E+00  0.39275943173E+03  0.39275943173E+03  0.00000000000E+00 0. -1.
         -4   -1    0    0    0  501 -0.00000000000E+00 -0.00000000000E+00 -0.56428408944E+02  0.56428408944E+02  0.00000000000E+00 0.  1.
        -24    2    1    2    0    0  0.39954891596E+02 -0.81421910462E+02  0.73006819826E+02  0.13905528913E+03  0.76029315592E+02 0.  0.
         23    2    1    2    0    0 -0.41977017110E+02  0.10212204360E+03  0.21865925352E+03  0.26086245705E+03  0.89701564031E+02 0.  0.
         11    1    3    3    0    0  0.30523929581E+02 -0.40227649947E+02  0.81570768910E+02  0.95936251948E+02  0.00000000000E+00 0. -1.
        -12    1    3    3    0    0  0.94309620150E+01 -0.41194260515E+02 -0.85639490839E+01  0.43119037186E+02  0.00000000000E+00 0.  1.
        -11    1    4    4    0    0  0.70757559640E+01  0.62144603810E+02  0.47978328896E+02  0.78828536387E+02  0.00000000000E+00 0.  1.
         11    1    4    4    0    0 -0.49052773075E+02  0.39977439787E+02  0.17068092463E+03  0.18203392066E+03  0.00000000000E+00 0. -1.
         -3    1    1    2    0  502  0.20221255145E+01 -0.20700133135E+02  0.44664949430E+02  0.49270094490E+02  0.00000000000E+00 0.  1.
<scales pt_clust_5="13000.00000" pt_clust_6="13000.00000" pt_clust_7="13000.00000" pt_clust_8="13000.00000" pt_clust_9="20.79867"></scales>
<clustering>
<clus scale="   20.799">  1  9  2 -1</clus>
<clus scale="   76.029">  5  6 -1 -1</clus>
<clus scale="   89.702">  7  8 -1 -1</clus>
<clus scale="  123.005">  2  5  1 -1</clus>
<clus scale="   20.799">  1  5  2 -1</clus>
</clustering>
</event>
<event>
 9    1  0.9171696E-005  0.1085114E+03  0.7546771E-02  0.1268809E+00
          1   -1    0    0  502    0 -0.00000000000E+00  0.00000000000E+00  0.22923055878E+03  0.22923055878E+03  0.00000000000E+00 0. -1.
         21   -1    0    0  501  502  0.00000000000E+00 -0.00000000000E+00 -0.93696155994E+02  0.93696155994E+02  0.00000000000E+00 0. -1.
         23    2    1    2    0    0  0.14239953721E+02  0.72292011064E+02  0.14440088658E+03  0.18594204535E+03  0.91070945081E+02 0.  0.
        -24    2    1    2    0    0 -0.20446461145E+02 -0.19998617997E+02 -0.14312201599E+02  0.84043423358E+02  0.77720366701E+02 0.  0.
         13    1    4    4    0    0 -0.29530573237E+02  0.17758086550E+02 -0.26358259578E+02  0.43383893804E+02  0.00000000000E+00 0. -1.
        -14    1    4    4    0    0  0.90841120923E+01 -0.37756704547E+02  0.12046057979E+02  0.40659529554E+02  0.00000000000E+00 0.  1.
        -13    1    3    3    0    0 -0.15911209456E+02  0.62277222531E+02  0.13976180161E+03  0.15383426218E+03  0.00000000000E+00 0. -1.
         13    1    3    3    0    0  0.30151163177E+02  0.10014788533E+02  0.46390849673E+01  0.32107783163E+02  0.00000000000E+00 0.  1.
          2    1    1    2  501    0  0.62065074243E+01 -0.52293393067E+02  0.54457178084E+01  0.52941246069E+02  0.00000000000E+00 0. -1.
<scales pt_clust_5="13000.00000" pt_clust_6="13000.00000" pt_clust_7="13000.00000" pt_clust_8="13000.00000" pt_clust_9="52.66042"></scales>
<clustering>
<clus scale="   52.660">  2  9  1 -1</clus>
<clus scale="   77.720">  5  6 -1 -1</clus>
<clus scale="   91.071">  7  8 -1 -1</clus>
<clus scale="   97.577">  2  5  1 -1</clus>
<clus scale="   52.660">  2  5  1 -1</clus>
</clustering>
</event>
<event>
 9    1  0.9171696E-005  0.1098923E+03  0.7546771E-02  0.1268352E+00
          1   -1    0    0  502    0 -0.00000000000E+00  0.00000000000E+00  0.65983986713E+03  0.65983986713E+03  0.00000000000E+00 0. -1.
         21   -1    0    0  501  502  0.00000000000E+00 -0.00000000000E+00 -0.56327922293E+02  0.56327922293E+02  0.00000000000E+00 0.  1.
        -24    2    1    2    0    0  0.26503642450E+02 -0.47677460674E+02  0.52657906204E+03  0.53548355287E+03  0.80508033733E+02 0.  0.
         23    2    1    2    0    0 -0.42844319629E+02 -0.30371846447E+01  0.67988791273E+02  0.12665656074E+03  0.97849621484E+02 0.  0.
         11    1    3    3    0    0 -0.83018836470E+00 -0.58834976313E+02  0.22881668798E+03  0.23626112746E+03  0.00000000000E+00 0. -1.
        -12    1    3    3    0    0  0.27333830815E+02  0.11157515639E+02  0.29776237406E+03  0.29922242541E+03  0.00000000000E+00 0.  1.
        -11    1    4    4    0    0 -0.53300435642E+02 -0.37426300270E+02  0.22994588363E+02  0.69068194457E+02  0.00000000000E+00 0.  1.
         11    1    4    4    0    0  0.10456116012E+02  0.34389115626E+02  0.44994202910E+02  0.57588366283E+02  0.00000000000E+00 0. -1.
          2    1    1    2  501    0  0.16340677179E+02  0.50714645319E+02  0.89440915225E+01  0.54027675812E+02  0.00000000000E+00 0. -1.
<scales pt_clust_5="13000.00000" pt_clust_6="13000.00000" pt_clust_7="13000.00000" pt_clust_8="13000.00000" pt_clust_9="53.28220"></scales>
<clustering>
<clus scale="   53.282">  2  9  1 -1</clus>
<clus scale="   80.508">  5  6 -1 -1</clus>
<clus scale="   94.780">  1  5  2 -1</clus>
<clus scale="   97.850">  7  8 -1 -1</clus>
<clus scale="   53.282">  2  5  1 -1</clus>
</clustering>
</event>
<event>
 9    1  0.9171696E-005  0.1057180E+03  0.7546771E-02  0.1279770E+00
         21   -1    0    0  501  502  0.00000000000E+00  0.00000000000E+00  0.57243451745E+02  0.57243451745E+02  0.00000000000E+00 0.  1.
         -4   -1    0    0    0  501 -0.00000000000E+00 -0.00000000000E+00 -0.46745305195E+03  0.46745305195E+03  0.00000000000E+00 0.  1.
        -24    2    1    2    0    0 -0.15270941959E+02 -0.17998608591E+02 -0.28659994397E+03  0.29854528633E+03  0.80203544352E+02 0.  0.
         23    2    1    2    0    0 -0.49805239519E+01  0.76434329719E+02 -0.89810698426E+02  0.15567267507E+03  0.10149388077E+03 0.  0.
         13    1    3    3    0    0 -0.45568414764E+02  0.25352398427E+01 -0.18525222469E+03  0.19079123307E+03  0.00000000000E+00 0. -1.
        -14    1    3    3    0    0  0.30297472805E+02 -0.20533848433E+02 -0.10134771928E+03  0.10775405326E+03  0.00000000000E+00 0.  1.
        -13    1    4    4    0    0  0.10023051060E+02  0.99114623695E+02 -0.65742436188E+02  0.11935760595E+03  0.00000000000E+00 0.  1.
         13    1    4    4    0    0 -0.15003575012E+02 -0.22680293975E+02 -0.24068262237E+02  0.36315069118E+02  0.00000000000E+00 0. -1.
         -3    1    1    2    0  502  0.20251465911E+02 -0.58435721129E+02 -0.33798957814E+02  0.70478542300E+02  0.00000000000E+00 0.  1.
<scales pt_clust_5="13000.00000" pt_clust_6="13000.00000" pt_clust_7="13000.00000" pt_clust_8="13000.00000" pt_clust_9="61.84542"></scales>
<clustering>
<clus scale="   61.845">  1  9  2 -1</clus>
<clus scale="   80.204">  5  6 -1 -1</clus>
<clus scale="   85.486">  2  5  1 -1</clus>
<clus scale="  101.494">  7  8 -1 -1</clus>
<clus scale="   61.845">  1  5  2 -1</clus>
</clustering>
</event>
<event>
 9    1  0.9171696E-005  0.2106468E+03  0.7546771E-02  0.1141950E+00
         21   -1    0    0  501  502  0.00000000000E+00  0.00000000000E+00  0.71359952854E+02  0.71359952854E+02  0.00000000000E+00 0.  1.
          1   -1    0    0  502    0 -0.00000000000E+00 -0.00000000000E+00 -0.13394948123E+04  0.13394948123E+04  0.00000000000E+00 0. -1.
        -24    2    1    2    0    0 -0.41028321128E+02 -0.18666499643E+03 -0.11043716023E+04  0.11237102883E+04  0.81000197760E+02 0.  0.
         23    2    1    2    0    0  0.67191479142E+02  0.17035851933E+03 -0.14599047510E+03  0.25155959505E+03  0.91827507115E+02 0.  0.
         11    1    3    3    0    0 -0.55782419041E+02 -0.18383406773E+03 -0.10031280000E+04  0.10213581287E+04  0.00000000000E+00 0. -1.
        -12    1    3    3    0    0  0.14754097913E+02 -0.28309286991E+01 -0.10124360229E+03  0.10235215957E+03  0.00000000000E+00 0.  1.
        -13    1    4    4    0    0  0.74642658006E+02  0.64404718602E+02 -0.67225578885E+02  0.11932632831E+03  0.00000000000E+00 0.  1.
         13    1    4    4    0    0 -0.74511788641E+01  0.10595380073E+03 -0.78764896217E+02  0.13223326674E+03  0.00000000000E+00 0. -1.
          2    1    1    2  501    0 -0.26163158014E+02  0.16306477099E+02 -0.17772782083E+02  0.35584881841E+02  0.00000000000E+00 0. -1.
<scales pt_clust_5="13000.00000" pt_clust_6="13000.00000" pt_clust_7="13000.00000" pt_clust_8="13000.00000" pt_clust_9="30.82875"></scales>
<clustering>
<clus scale="   30.829">  1  9  2 -1</clus>
<clus scale="   81.000">  5  6 -1 -1</clus>
<clus scale="   91.828">  7  8 -1 -1</clus>
<clus scale="  206.157">  2  5  1 -1</clus>
<clus scale="   30.829">  1  5  2 -1</clus>
</clustering>
</event>
<event>
 9    1  0.9171696E-005  0.2236156E+03  0.7546771E-02  0.1149339E+00
          1   -1    0    0  502    0 -0.00000000000E+00  0.00000000000E+00  0.90782439601E+03  0.90782439601E+03  0.00000000000E+00 0. -1.
         21   -1    0    0  501  502  0.00000000000E+00 -0.00000000000E+00 -0.44340593505E+03  0.44340593505E+03  0.00000000000E+00 0.  1.
        -24    2    1    2    0    0  0.28650725771E+02  0.12358904661E+03 -0.23066971431E+03  0.27216828076E+03  0.69079225729E+02 0.  0.
         23    2    1    2    0    0  0.19153065044E+03 -0.73984305837E+02 -0.10480405672E+03  0.24793747989E+03  0.91276700542E+02 0.  0.
         13    1    3    3    0    0  0.30559222042E+02  0.12312370457E+02 -0.59109588500E+02  0.67671293550E+02  0.00000000000E+00 0. -1.
        -14    1    3    3    0    0 -0.19084962707E+01  0.11127667615E+03 -0.17156012581E+03  0.20449698721E+03  0.00000000000E+00 0.  1.
        -13    1    4    4    0    0  0.37272317312E+02  0.21101205200E+02 -0.12759253407E+02  0.44690995135E+02  0.00000000000E+00 0. -1.
         13    1    4    4    0    0  0.15425833312E+03 -0.95085511037E+02 -0.92044803316E+02  0.20324648475E+03  0.00000000000E+00 0.  1.
          2    1    1    2  501    0 -0.22018137621E+03 -0.49604740769E+02  0.79989223199E+03  0.83112457041E+03  0.00000000000E+00 0. -1.
<scales pt_clust_5="13000.00000" pt_clust_6="13000.00000" pt_clust_7="13000.00000" pt_clust_8="13000.00000" pt_clust_9="204.13851"></scales>
<clustering>
<clus scale="   69.079">  5  6 -1 -1</clus>
<clus scale="   91.277">  7  8 -1 -1</clus>
<clus scale="  144.454">  1  5  2 -1</clus>
<clus scale="  204.139">  2  9  1 -1</clus>
<clus scale="  204.139">  2  5  1 -1</clus>
</clustering>
</event>
<event>
 9    1  0.9171696E-005  0.9515417E+02  0.7546771E-02  0.1293664E+00
         -2   -1    0    0    0  501 -0.00000000000E+00  0.00000000000E+00  0.34098784529E+03  0.34098784529E+03  0.00000000000E+00 0.  1.
         21   -1    0    0  501  502  0.00000000000E+00 -0.00000000000E+00 -0.67011829383E+02  0.67011829383E+02  0.00000000000E+00 0.  1.
         23    2    1    2    0    0  0.33366640346E+02  0.24089675945E+02  0.12240978193E+03  0.15613096644E+03  0.87744394661E+02 0.  0.
        -24    2    1    2    0    0 -0.11913019739E+02 -0.23751764423E+02 -0.11550398577E+02  0.87346953325E+02  0.82401530298E+02 0.  0.
         13    1    4    4    0    0 -0.77860673882E+01  0.30851911472E+02 -0.40180947217E+01  0.32071924982E+02  0.00000000000E+00 0. -1.
        -14    1    4    4    0    0 -0.41269523505E+01 -0.54603675895E+02 -0.75323038551E+01  0.55275028343E+02  0.00000000000E+00 0.  1.
        -13    1    3    3    0    0 -0.23427804561E+02  0.13768407113E+02  0.80035595983E+02  0.84522941770E+02  0.00000000000E+00 0. -1.
         13    1    3    3    0    0  0.56794444907E+02  0.10321268832E+02  0.42374185943E+02  0.71608024668E+02  0.00000000000E+00 0.  1.
         -1    1    1    2    0  502 -0.21453620607E+02 -0.33791152241E+00  0.16311663256E+03  0.16452175491E+03  0.00000000000E+00 0.  1.
<scales pt_clust_5="13000.00000" pt_clust_6="13000.00000" pt_clust_7="13000.00000" pt_clust_8="13000.00000" pt_clust_9="21.45629"></scales>
<clustering>
<clus scale="   21.456">  2  9  1 -1</clus>
<clus scale="   82.402">  5  6 -1 -1</clus>
<clus scale="   87.744">  7  8 -1 -1</clus>
<clus scale="   90.251">  2  5  1 -1</clus>
<clus scale="   21.456">  2  5  1 -1</clus>
</clustering>
</event>
<event>
 9    1  0.9171696E-005  0.1295065E+03  0.7546771E-02  0.1230818E+00
         -2   -1    0    0    0  501 -0.00000000000E+00  0.00000000000E+00  0.61716832764E+02  0.61716832764E+02  0.00000000000E+00 0.  1.
         21   -1    0    0  501  502  0.00000000000E+00 -0.00000000000E+00 -0.73564012423E+03  0.73564012423E+03  0.00000000000E+00 0.  1.
        -24    2    1    2    0    0 -0.10054159701E+03  0.17481690458E+02 -0.18370935563E+03  0.22219013727E+03  0.72146431136E+02 0.  0.
         23    2    1    2    0    0  0.56850932919E+02 -0.11439972457E+03 -0.42237312019E+03  0.44905434717E+03  0.83255201026E+02 0.  0.
         13    1    3    3    0    0 -0.28649982996E+02  0.34360181092E+01 -0.53126569005E+01  0.29340280664E+02  0.00000000000E+00 0. -1.
        -14    1    3    3    0    0 -0.71891614013E+02  0.14045672349E+02 -0.17839669873E+03  0.19284985661E+03  0.00000000000E+00 0.  1.
        -11    1    4    4    0    0  0.25985475364E+02 -0.43978475773E+02 -0.30151529367E+03  0.30581174533E+03  0.00000000000E+00 0.  1.
         11    1    4    4    0    0  0.30865457555E+02 -0.70421248800E+02 -0.12085782652E+03  0.14324260185E+03  0.00000000000E+00 0. -1.
         -1    1    1    2    0  502  0.43690664089E+02  0.96918034115E+02 -0.67840815650E+02  0.12611247255E+03  0.00000000000E+00 0.  1.
<scales pt_clust_5="13000.00000" pt_clust_6="13000.00000" pt_clust_7="13000.00000" pt_clust_8="13000.00000" pt_clust_9="106.31082"></scales>
<clustering>
<clus scale="   72.146">  5  6 -1 -1</clus>
<clus scale="   83.255">  7  8 -1 -1</clus>
<clus scale="  106.311">  2  9  1 -1</clus>
<clus scale="  122.661">  1  5  2 -1</clus>
<clus scale="  106.311">  2  5  1 -1</clus>
</clustering>
</event>
<event>
 9    1  0.9171696E-005  0.1033588E+03  0.7546771E-02  0.1280560E+00
         21   -1    0    0  501  502  0.00000000000E+00  0.00000000000E+00  0.47511022971E+02  0.47511022971E+02  0.00000000000E+00 0. -1.
          1   -1    0    0  502    0 -0.00000000000E+00 -0.00000000000E+00 -0.30270223798E+03  0.30270223798E+03  0.00000000000E+00 0. -1.
        -24    2    1    2    0    0  0.26923546299E+02 -0.45845794468E+02 -0.12031133879E+03  0.15172828922E+03  0.75630293483E+02 0.  0.
         23    2    1    2    0    0 -0.83851192242E+00  0.45148804397E+02 -0.57318669486E+02  0.11665187571E+03  0.91011606927E+02 0.  0.
         11    1    3    3    0    0  0.34027952539E+02 -0.39977794927E+01 -0.13560319630E+02  0.36847877325E+02  0.00000000000E+00 0. -1.
        -12    1    3    3    0    0 -0.71044062400E+01 -0.41848014976E+02 -0.10675101916E+03  0.11488041189E+03  0.00000000000E+00 0.  1.
        -11    1    4    4    0    0 -0.23669819938E+02  0.12781954196E+02  0.17432466642E+02  0.32055102904E+02  0.00000000000E+00 0. -1.
         11    1    4    4    0    0  0.22831308016E+02  0.32366850201E+02 -0.74751136127E+02  0.84596772811E+02  0.00000000000E+00 0.  1.
          2    1    1    2  501    0 -0.26085034377E+02  0.69699007114E+00 -0.77561206733E+02  0.81833096016E+02  0.00000000000E+00 0. -1.
<scales pt_clust_5="13000.00000" pt_clust_6="13000.00000" pt_clust_7="13000.00000" pt_clust_8="13000.00000" pt_clust_9="26.09436"></scales>
<clustering>
<clus scale="   26.094">  1  9  2 -1</clus>
<clus scale="   75.630">  5  6 -1 -1</clus>
<clus scale="   90.110">  2  5  1 -1</clus>
<clus scale="   91.012">  7  8 -1 -1</clus>
<clus scale="   26.094">  1  5  2 -1</clus>
</clustering>
</event>
<event>
 9    1  0.9171696E-005  0.9704942E+02  0.7546771E-02  0.1294576E+00
         21   -1    0    0  501  502  0.00000000000E+00  0.00000000000E+00  0.16237787976E+03  0.16237787976E+03  0.00000000000E+00 0.  1.
          1   -1    0    0  502    0 -0.00000000000E+00 -0.00000000000E+00 -0.23065706273E+03  0.23065706273E+03  0.00000000000E+00 0. -1.
         23    2    1    2    0    0 -0.35490504443E+02 -0.69923058201E+01 -0.19397206987E+03  0.21762102937E+03  0.91789325570E+02 0.  0.
        -24    2    1    2    0    0 -0.78179866519E+01 -0.19772427647E+01  0.85399734138E+02  0.11558401788E+03  0.77469479117E+02 0.  0.
         13    1    4    4    0    0  0.34518842911E+02 -0.69452355634E+01  0.36572538513E+02  0.50767483552E+02  0.00000000000E+00 0. -1.
        -14    1    4    4    0    0 -0.42336829563E+02  0.49679927987E+01  0.48827195625E+02  0.64816534329E+02  0.00000000000E+00 0.  1.
        -13    1    3    3    0    0  0.62380603804E+01 -0.27258342240E+02 -0.15359804985E+03  0.15612268104E+03  0.00000000000E+00 0.  1.
         13    1    3    3    0    0 -0.41728564823E+02  0.20266036420E+02 -0.40374020026E+02  0.61498348331E+02  0.00000000000E+00 0. -1.
          2    1    1    2  501    0  0.43308491095E+02  0.89695485847E+01  0.40293152769E+02  0.59829895226E+02  0.00000000000E+00 0. -1.
<scales pt_clust_5="13000.00000" pt_clust_6="13000.00000" pt_clust_7="13000.00000" pt_clust_8="13000.00000" pt_clust_9="44.22757"></scales>
<clustering>
<clus scale="   44.228">  1  9  2 -1</clus>
<clus scale="   77.469">  5  6 -1 -1</clus>
<clus scale="   83.635">  1  5  2 -1</clus>
<clus scale="   91.789">  7  8 -1 -1</clus>
<clus scale="   44.228">  1  5  2 -1</clus>
</clustering>
</event>
<event>
 9    1  0.9171696E-005  0.9904907E+02  0.7546771E-02  0.1287684E+00
          1   -1    0    0  502    0 -0.00000000000E+00  0.00000000000E+00  0.37870966335E+03  0.37870966335E+03  0.00000000000E+00 0. -1.
         21   -1    0    0  501  502  0.00000000000E+00 -0.00000000000E+00 -0.63649088756E+02  0.63649088756E+02  0.00000000000E+00 0.  1.
        -24    2    1    2    0    0  0.19585107402E+02 -0.35888955196E+02  0.29907350379E+03  0.31252396459E+03  0.80960942667E+02 0.  0.
         23    2    1    2    0    0  0.90066446216E+01  0.25310665194E+02 -0.27640146808E+00  0.95282088154E+02  0.91415811024E+02 0.  0.
         13    1    3    3    0    0 -0.17910697708E+02 -0.45423619239E+02  0.12489192983E+03  0.13409732441E+03  0.00000000000E+00 0. -1.
        -14    1    3    3    0    0  0.37495805110E+02  0.95346640432E+01  0.17418157396E+03  0.17842664018E+03  0.00000000000E+00 0.  1.
        -13    1    4    4    0    0 -0.27680911343E+02 -0.96477917201E+01  0.25114157653E+02  0.38600954035E+02  0.00000000000E+00 0. -1.
         13    1    4    4    0    0  0.36687555964E+02  0.34958456914E+02 -0.25390559121E+02  0.56681134118E+02  0.00000000000E+00 0.  1.
          2    1    1    2  501    0 -0.28591752023E+02  0.10578290001E+02  0.16263472279E+02  0.34552699369E+02  0.00000000000E+00 0. -1.
<scales pt_clust_5="13000.00000" pt_clust_6="13000.00000" pt_clust_7="13000.00000" pt_clust_8="13000.00000" pt_clust_9="30.48587"></scales>
<clustering>
<clus scale="   30.486">  2  9  1 -1</clus>
<clus scale="   80.961">  5  6 -1 -1</clus>
<clus scale="   89.490">  1  5  2 -1</clus>
<clus scale="   91.416">  7  8 -1 -1</clus>
<clus scale="   30.486">  2  5  1 -1</clus>
</clustering>
</event>
<event>
 9    1  0.9171696E-005  0.4088309E+03  0.7546771E-02  0.1061230E+00
          1   -1    0    0  502    0 -0.00000000000E+00  0.00000000000E+00  0.11740775958E+04  0.11740775958E+04  0.00000000000E+00 0. -1.
         21   -1    0    0  501  502  0.00000000000E+00 -0.00000000000E+00 -0.88975690222E+03  0.88975690222E+03  0.00000000000E+00 0. -1.
         23    2    1    2    0    0  0.19869907314E+03 -0.63353315472E+02  0.18885059937E+03  0.29624904782E+03  0.92757669247E+02 0.  0.
        -24    2    1    2    0    0  0.19684793281E+03  0.17341444970E+03  0.85842646086E+03  0.90117140109E+03  0.79951394173E+02 0.  0.
         11    1    4    4    0    0  0.20139576848E+03  0.17719985820E+03  0.83647087780E+03  0.87843245313E+03  0.00000000000E+00 0. -1.
        -12    1    4    4    0    0 -0.45478356726E+01 -0.37854085066E+01  0.21955583065E+02  0.22738947966E+02  0.00000000000E+00 0.  1.
        -13    1    3    3    0    0  0.14149746907E+03 -0.85381787994E+02  0.12108380654E+03  0.20487281831E+03  0.00000000000E+00 0.  1.
         13    1    3    3    0    0  0.57201604070E+02  0.22028472523E+02  0.67766792829E+02  0.91376229514E+02  0.00000000000E+00 0. -1.
          2    1    1    2  501    0 -0.39554700595E+03 -0.11006113423E+03 -0.76295636662E+03  0.86641404914E+03  0.00000000000E+00 0. -1.
<scales pt_clust_5="13000.00000" pt_clust_6="13000.00000" pt_clust_7="13000.00000" pt_clust_8="13000.00000" pt_clust_9="400.93702"></scales>
<clustering>
<clus scale="   79.951">  5  6 -1 -1</clus>
<clus scale="   92.758">  7  8 -1 -1</clus>
<clus scale="  228.252">  1  7  2 -1</clus>
<clus scale="  400.937">  2  9  1 -1</clus>
<clus scale="  400.937">  2  5  1 -1</clus>
</clustering>
</event>
<event>
 9    1  0.9171696E-005  0.1071819E+03  0.7546771E-02  0.1270172E+00
         21   -1    0    0  501  502  0.00000000000E+00  0.00000000000E+00  0.93385672276E+03  0.93385672276E+03  0.00000000000E+00 0.  1.
          3   -1    0    0  502    0 -0.00000000000E+00 -0.00000000000E+00 -0.71992300879E+02  0.71992300879E+02  0.00000000000E+00 0. -1.
        -24    2    1    2    0    0  0.22592824720E+02  0.47668956986E+02 -0.20307044454E+02  0.98834160086E+02  0.81074348326E+02 0.  0.
         23    2    1    2    0    0 -0.64353993103E+02 -0.95014800163E+02  0.65649896276E+03  0.67267813378E+03  0.91300245789E+02 0.  0.
         13    1    3    3    0    0  0.43579127004E+02  0.31382311117E+01 -0.23297486981E+02  0.49515267388E+02  0.00000000000E+00 0. -1.
        -14    1    3    3    0    0 -0.20986302283E+02  0.44530725875E+02  0.29904425270E+01  0.49318892698E+02  0.00000000000E+00 0.  1.
        -13    1    4    4    0    0 -0.78540894121E+02 -0.40507965250E+02  0.45239428532E+03  0.46094485211E+03  0.00000000000E+00 0.  1.
         13    1    4    4    0    0  0.14186901018E+02 -0.54506834914E+02  0.20410467744E+03  0.21173328167E+03  0.00000000000E+00 0. -1.
          4    1    1    2  501    0  0.41761168383E+02  0.47345843177E+02  0.22567250357E+03  0.23433672977E+03  0.00000000000E+00 0. -1.
<scales pt_clust_5="13000.00000" pt_clust_6="13000.00000" pt_clust_7="13000.00000" pt_clust_8="13000.00000" pt_clust_9="63.13180"></scales>
<clustering>
<clus scale="   63.132">  1  9  2 -1</clus>
<clus scale="   81.074">  5  6 -1 -1</clus>
<clus scale="   91.300">  7  8 -1 -1</clus>
<clus scale="   98.617">  2  5  1 -1</clus>
<clus scale="   63.132">  1  5  2 -1</clus>
</clustering>
</event>
<event>
 9    1  0.9171696E-005  0.2422112E+03  0.7546771E-02  0.1140756E+00
         21   -1    0    0  501  502  0.00000000000E+00  0.00000000000E+00  0.13053669914E+03  0.13053669914E+03  0.00000000000E+00 0. -1.
          1   -1    0    0  502    0 -0.00000000000E+00 -0.00000000000E+00 -0.96325462177E+03  0.96325462177E+03  0.00000000000E+00 0. -1.
        -24    2    1    2    0    0  0.62782054777E+02 -0.96925340973E+02 -0.46812715244E+03  0.48848761635E+03  0.78364611638E+02 0.  0.
         23    2    1    2    0    0 -0.24990192682E+03 -0.12772347458E+02 -0.21065042858E+03  0.33932427277E+03  0.90295366100E+02 0.  0.
         13    1    3    3    0    0  0.30064255270E+02 -0.97429462448E+02 -0.40170001913E+03  0.41443849359E+03  0.00000000000E+00 0. -1.
        -14    1    3    3    0    0  0.32717799507E+02  0.50412147455E+00 -0.66427133303E+02  0.74049122763E+02  0.00000000000E+00 0.  1.
        -13    1    4    4    0    0 -0.96439003227E+02 -0.43865695816E+02 -0.58635843507E+02  0.12109022569E+03  0.00000000000E+00 0.  1.
         13    1    4    4    0    0 -0.15346292359E+03  0.31093348358E+02 -0.15201458508E+03  0.21823404708E+03  0.00000000000E+00 0. -1.
          2    1    1    2  501    0  0.18711987204E+03  0.10969768843E+03 -0.15394034161E+03  0.26597943179E+03  0.00000000000E+00 0. -1.
<scales pt_clust_5="13000.00000" pt_clust_6="13000.00000" pt_clust_7="13000.00000" pt_clust_8="13000.00000" pt_clust_9="224.75099"></scales>
<clustering>
<clus scale="   78.365">  5  6 -1 -1</clus>
<clus scale="   90.295">  7  8 -1 -1</clus>
<clus scale="  139.560">  2  5  1 -1</clus>
<clus scale="  224.751">  1  9  2 -1</clus>
<clus scale="  224.751">  1  5  2 -1</clus>
</clustering>
</event>
<event>
 9    1  0.9171696E-005  0.1461806E+03  0.7546771E-02  0.1222924E+00
          1   -1    0    0  502    0 -0.00000000000E+00  0.00000000000E+00  0.76493016439E+03  0.76493016439E+03  0.00000000000E+00 0. -1.
         21   -1    0    0  501  502  0.00000000000E+00 -0.00000000000E+00 -0.48924053633E+02  0.48924053633E+02  0.00000000000E+00 0. -1.
         23    2    1    2    0    0  0.67278172446E+01 -0.36892118802E+02  0.18187862335E+03  0.20778775883E+03  0.93218169549E+02 0.  0.
        -24    2    1    2    0    0 -0.89861587533E+02  0.11836840344E+03  0.36458269952E+03  0.40040887042E+03  0.72941996616E+02 0.  0.
         13    1    4    4    0    0 -0.65845178547E+02  0.10299786739E+03  0.34446139473E+03  0.36551032910E+03  0.00000000000E+00 0. -1.
        -14    1    4    4    0    0 -0.24016408986E+02  0.15370536054E+02  0.20121304797E+02  0.34898541314E+02  0.00000000000E+00 0.  1.
        -11    1    3    3    0    0  0.27906469017E+02  0.18114523554E+02  0.10951027970E+03  0.11445264670E+03  0.00000000000E+00 0. -1.
         11    1    3    3    0    0 -0.21178651772E+02 -0.55006642356E+02  0.72368343652E+02  0.93335112134E+02  0.00000000000E+00 0.  1.
          2    1    1    2  501    0  0.83133770288E+02 -0.81476284642E+02  0.16954478788E+03  0.20565758877E+03  0.00000000000E+00 0. -1.
<scales pt_clust_5="13000.00000" pt_clust_6="13000.00000" pt_clust_7="13000.00000" pt_clust_8="13000.00000" pt_clust_9="126.68167"></scales>
<clustering>
<clus scale="   72.942">  5  6 -1 -1</clus>
<clus scale="   93.218">  7  8 -1 -1</clus>
<clus scale="  100.479">  1  7  2 -1</clus>
<clus scale="  126.682">  2  9  1 -1</clus>
<clus scale="  126.682">  2  5  1 -1</clus>
</clustering>
</event>
<event>
 9    1  0.9171696E-005  0.1073682E+03  0.7546771E-02  0.1271473E+00
         21   -1    0    0  501  502  0.00000000000E+00  0.00000000000E+00  0.20628135525E+03  0.20628135525E+03  0.00000000000E+00 0. -1.
          1   -1    0    0  502    0 -0.00000000000E+00 -0.00000000000E+00 -0.17540118594E+03  0.17540118594E+03  0.00000000000E+00 0. -1.
        -24    2    1    2    0    0 -0.40259386564E+02  0.28726938294E+02 -0.11418382226E+03  0.14850998296E+03  0.81063028457E+02 0.  0.
         23    2    1    2    0    0  0.12507225075E+02 -0.79046958209E+02  0.86383656036E+02  0.15104053858E+03  0.94584649829E+02 0.  0.
         13    1    3    3    0    0 -0.52310511228E+02  0.19326732339E+02 -0.11986649309E+03  0.13220396489E+03  0.00000000000E+00 0. -1.
        -14    1    3    3    0    0  0.12051124664E+02  0.94002059549E+01  0.56826708245E+01  0.16306018072E+02  0.00000000000E+00 0.  1.
        -11    1    4    4    0    0 -0.12140991728E+02  0.16319847638E+02  0.48491349036E+00  0.20346406271E+02  0.00000000000E+00 0.  1.
         11    1    4    4    0    0  0.24648216803E+02 -0.95366805847E+02  0.85898742546E+02  0.13069413231E+03  0.00000000000E+00 0. -1.
          2    1    1    2  501    0  0.27752161489E+02  0.50320019916E+02  0.58680335544E+02  0.82132019646E+02  0.00000000000E+00 0. -1.
<scales pt_clust_5="13000.00000" pt_clust_6="13000.00000" pt_clust_7="13000.00000" pt_clust_8="13000.00000" pt_clust_9="57.46553"></scales>
<clustering>
<clus scale="   57.466">  1  9  2 -1</clus>
<clus scale="   81.063">  5  6 -1 -1</clus>
<clus scale="   94.585">  7  8 -1 -1</clus>
<clus scale="   95.671">  2  5  1 -1</clus>
<clus scale="   57.466">  1  5  2 -1</clus>
</clustering>
</event>
<event>
 9    1  0.9171696E-005  0.9555464E+02  0.7546771E-02  0.1294533E+00
         21   -1    0    0  501  502  0.00000000000E+00  0.00000000000E+00  0.12343636819E+03  0.12343636819E+03  0.00000000000E+00 0. -1.
          1   -1    0    0  502    0 -0.00000000000E+00 -0.00000000000E+00 -0.40664149345E+03  0.40664149345E+03  0.00000000000E+00 0. -1.
         23    2    1    2    0    0 -0.24096869481E+02 -0.33256611538E+01 -0.29886877973E+03  0.31348873166E+03  0.91438056838E+02 0.  0.
        -24    2    1    2    0    0  0.26333559122E+02  0.46021087253E+02 -0.69924166503E+02  0.12091689112E+03  0.83187190648E+02 0.  0.
         13    1    4    4    0    0  0.18412404326E+02  0.70512107088E+02 -0.50313350816E+02  0.88557366432E+02  0.00000000000E+00 0. -1.
        -14    1    4    4    0    0  0.79211547962E+01 -0.24491019835E+02 -0.19610815687E+02  0.32359524684E+02  0.00000000000E+00 0.  1.
        -13    1    3    3    0    0 -0.40323561766E+02 -0.33666098471E+02 -0.23645173452E+03  0.24221647049E+03  0.00000000000E+00 0.  1.
         13    1    3    3    0    0  0.16226692284E+02  0.30340437317E+02 -0.62417045211E+02  0.71272261168E+02  0.00000000000E+00 0. -1.
          2    1    1    2  501    0 -0.22366896413E+01 -0.42695426099E+02  0.85587820972E+02  0.95672238863E+02  0.00000000000E+00 0. -1.
<scales pt_clust_5="13000.00000" pt_clust_6="13000.00000" pt_clust_7="13000.00000" pt_clust_8="13000.00000" pt_clust_9="42.75397"></scales>
<clustering>
<clus scale="   42.754">  1  9  2 -1</clus>
<clus scale="   83.187">  5  6 -1 -1</clus>
<clus scale="   87.692">  1  5  2 -1</clus>
<clus scale="   91.438">  7  8 -1 -1</clus>
<clus scale="   42.754">  1  5  2 -1</clus>
</clustering>
</event>
<event>
 9    1  0.9171696E-005  0.1841114E+03  0.7546771E-02  0.1181046E+00
          1   -1    0    0  502    0 -0.00000000000E+00  0.00000000000E+00  0.85041277111E+03  0.85041277111E+03  0.00000000000E+00 0. -1.
         21   -1    0    0  501  502  0.00000000000E+00 -0.00000000000E+00 -0.97506649230E+02  0.97506649230E+02  0.00000000000E+00 0.  1.
        -24    2    1    2    0    0 -0.64254004179E+02 -0.67989884446E+02  0.36473485148E+03  0.38541088847E+03  0.82212162287E+02 0.  0.
         23    2    1    2    0    0  0.68904904137E+02 -0.12572514445E+03  0.69038519331E+02  0.18915500490E+03  0.10226730156E+03 0.  0.
         13    1    3    3    0    0 -0.15799631211E+02 -0.66217331275E+02  0.27622735359E+03  0.28449237982E+03  0.00000000000E+00 0. -1.
        -14    1    3    3    0    0 -0.48454372968E+02 -0.17725531709E+01  0.88507497889E+02  0.10091850864E+03  0.00000000000E+00 0.  1.
        -11    1    4    4    0    0  0.24241490780E+00 -0.89334961244E+02  0.67996894162E+01  0.89593693090E+02  0.00000000000E+00 0. -1.
         11    1    4    4    0    0  0.68662489229E+02 -0.36390183208E+02  0.62238829915E+02  0.99561311815E+02  0.00000000000E+00 0.  1.
          2    1    1    2  501    0 -0.46508999586E+01  0.19371502890E+03  0.31913275107E+03  0.37335352696E+03  0.00000000000E+00 0. -1.
<scales pt_clust_5="13000.00000" pt_clust_6="13000.00000" pt_clust_7="13000.00000" pt_clust_8="13000.00000" pt_clust_9="153.09617"></scales>
<clustering>
<clus scale="   82.212">  5  6 -1 -1</clus>
<clus scale="  102.267">  7  8 -1 -1</clus>
<clus scale="  124.539">  1  5  2 -1</clus>
<clus scale="  153.096">  2  9  1 -1</clus>
<clus scale="  153.096">  2  5  1 -1</clus>
</clustering>
</event>
<event>
 9    1  0.9171696E-005  0.2493780E+03  0.7546771E-02  0.1155026E+00
         -4   -1    0    0    0  501 -0.00000000000E+00  0.00000000000E+00  0.34492511431E+03  0.34492511431E+03  0.00000000000E+00 0.  1.
         21   -1    0    0  501  502  0.00000000000E+00 -0.00000000000E+00 -0.77527849569E+03  0.77527849569E+03  0.00000000000E+00 0.  1.
        -24    2    1    2    0    0  0.33638472111E+02 -0.22481347077E+02  0.45272197591E+02  0.10170198342E+03  0.81588993033E+02 0.  0.
         23    2    1    2    0    0 -0.39885247439E+02  0.25137933742E+03  0.17880505437E+03  0.32516709979E+03  0.94762814809E+02 0.  0.
         13    1    3    3    0    0  0.23590207631E+02  0.17237208306E+02 -0.11747133285E+02  0.31489909284E+02  0.00000000000E+00 0. -1.
        -14    1    3    3    0    0  0.10048264480E+02 -0.39718555382E+02  0.57019330876E+02  0.70212074134E+02  0.00000000000E+00 0.  1.
        -13    1    4    4    0    0 -0.17057287475E+02  0.24775606961E+03  0.16638162444E+03  0.29892618827E+03  0.00000000000E+00 0.  1.
         13    1    4    4    0    0 -0.22827959963E+02  0.36232678068E+01  0.12423429935E+02  0.26240911513E+02  0.00000000000E+00 0. -1.
         -3    1    1    2    0  502  0.62467753275E+01 -0.22889799034E+03 -0.65443063335E+03  0.69333452680E+03  0.00000000000E+00 0.  1.
<scales pt_clust_5="13000.00000" pt_clust_6="13000.00000" pt_clust_7="13000.00000" pt_clust_8="13000.00000" pt_clust_9="230.67158"></scales>
<clustering>
<clus scale="   81.589">  5  6 -1 -1</clus>
<clus scale="   91.070">  1  5  2 -1</clus>
<clus scale="   94.763">  7  8 -1 -1</clus>
<clus scale="  230.672">  2  9  1 -1</clus>
<clus scale="  230.672">  2  5  1 -1</clus>
</clustering>
</event>
<event>
 9    1  0.9171696E-005  0.9465670E+02  0.7546771E-02  0.1297426E+00
          1   -1    0    0  502    0 -0.00000000000E+00  0.00000000000E+00  0.20545808514E+03  0.20545808514E+03  0.00000000000E+00 0. -1.
         21   -1    0    0  501  502  0.00000000000E+00 -0.00000000000E+00 -0.24694262675E+03  0.24694262675E+03  0.00000000000E+00 0.  1.
         23    2    1    2    0    0  0.13923535400E+02  0.24213474511E+02  0.17641652390E+03  0.20030850678E+03  0.90667253167E+02 0.  0.
        -24    2    1    2    0    0 -0.30709477923E+02  0.18168364313E+01 -0.19551705368E+03  0.21387716958E+03  0.81056476981E+02 0.  0.
         11    1    4    4    0    0 -0.49807591136E+02 -0.82142829562E+01 -0.68777345399E+02  0.85314675287E+02  0.00000000000E+00 0. -1.
        -12    1    4    4    0    0  0.19098113213E+02  0.10031119388E+02 -0.12673970828E+03  0.12856249430E+03  0.00000000000E+00 0.  1.
        -11    1    3    3    0    0 -0.32132342973E+02 -0.79775094553E+01  0.10081342752E+03  0.10611067473E+03  0.00000000000E+00 0. -1.
         11    1    3    3    0    0  0.46055878373E+02  0.32190983967E+02  0.75603096380E+02  0.94197832054E+02  0.00000000000E+00 0.  1.
          2    1    1    2  501    0  0.16785942522E+02 -0.26030310943E+02 -0.22384011833E+02  0.38215035521E+02  0.00000000000E+00 0. -1.
<scales pt_clust_5="13000.00000" pt_clust_6="13000.00000" pt_clust_7="13000.00000" pt_clust_8="13000.00000" pt_clust_9="30.97329"></scales>
<clustering>
<clus scale="   30.973">  2  9  1 -1</clus>
<clus scale="   81.056">  5  6 -1 -1</clus>
<clus scale="   85.496">  2  5  1 -1</clus>
<clus scale="   90.667">  7  8 -1 -1</clus>
<clus scale="   30.973">  2  5  1 -1</clus>
</clustering>
</event>
<event>
 9    1  0.9171696E-005  0.2269894E+03  0.7546771E-02  0.1168833E+00
         21   -1    0    0  501  502  0.00000000000E+00  0.00000000000E+00  0.31406789034E+03  0.31406789034E+03  0.00000000000E+00 0. -1.
          1   -1    0    0  502    0 -0.00000000000E+00 -0.00000000000E+00 -0.21917361576E+03  0.21917361576E+03  0.00000000000E+00 0. -1.
        -24    2    1    2    0    0 -0.15081818221E+02  0.30915664481E+02  0.21699885453E+02  0.90307041286E+02  0.80630249448E+02 0.  0.
         23    2    1    2    0    0 -0.47553123749E+02  0.18272367261E+03  0.48111468990E+01  0.21003712665E+03  0.91886926869E+02 0.  0.
         13    1    3    3    0    0  0.27216411589E+02  0.99419792008E+01  0.30732420933E+02  0.42238107280E+02  0.00000000000E+00 0. -1.
        -14    1    3    3    0    0 -0.42298229810E+02  0.20973685280E+02 -0.90325354798E+01  0.48068934006E+02  0.00000000000E+00 0.  1.
        -11    1    4    4    0    0  0.26350352544E+02  0.48512889794E+02 -0.10015115519E+02  0.56108324643E+02  0.00000000000E+00 0.  1.
         11    1    4    4    0    0 -0.73903476292E+02  0.13421078281E+03  0.14826262418E+02  0.15392880201E+03  0.00000000000E+00 0. -1.
          2    1    1    2  501    0  0.62634941969E+02 -0.21363933709E+03  0.68383242219E+02  0.23289733816E+03  0.00000000000E+00 0. -1.
<scales pt_clust_5="13000.00000" pt_clust_6="13000.00000" pt_clust_7="13000.00000" pt_clust_8="13000.00000" pt_clust_9="207.55956"></scales>
<clustering>
<clus scale="   80.630">  5  6 -1 -1</clus>
<clus scale="   87.661">  2  5  1 -1</clus>
<clus scale="   91.887">  7  8 -1 -1</clus>
<clus scale="  207.560">  1  9  2 -1</clus>
<clus scale="  207.560">  1  5  2 -1</clus>
</clustering>
</event>
<event>
 9    1  0.9171696E-005  0.2036675E+03  0.7546771E-02  0.1147190E+00
          3   -1    0    0  502    0 -0.00000000000E+00  0.00000000000E+00  0.47154442067E+03  0.47154442067E+03  0.00000000000E+00 0. -1.
         21   -1    0    0  501  502  0.00000000000E+00 -0.00000000000E+00 -0.11569612760E+03  0.11569612760E+03  0.00000000000E+00 0. -1.
        -24    2    1    2    0    0  0.19178000357E+03 -0.41980687282E+02  0.27148591630E+03  0.34499807077E+03  0.82323254357E+02 0.  0.
         23    2    1    2    0    0 -0.15174391842E+03  0.55321140816E+02  0.60123773193E+02  0.19357661967E+03  0.88149839382E+02 0.  0.
         11    1    3    3    0    0  0.19873245165E+03 -0.45483426230E+02  0.25285494759E+03  0.32480602507E+03  0.00000000000E+00 0. -1.
        -12    1    3    3    0    0 -0.69524480756E+01  0.35027389482E+01  0.18630968712E+02  0.20192045699E+02  0.00000000000E+00 0.  1.
        -13    1    4    4    0    0 -0.12258829760E+03  0.12704720824E+02  0.13456277083E+02  0.12397730451E+03  0.00000000000E+00 0. -1.
         13    1    4    4    0    0 -0.29155620814E+02  0.42616419992E+02  0.46667496110E+02  0.69599315163E+02  0.00000000000E+00 0.  1.
          4    1    1    2  501    0 -0.40036085155E+02 -0.13340453534E+02  0.24238603579E+02  0.48665857832E+02  0.00000000000E+00 0. -1.
<scales pt_clust_5="13000.00000" pt_clust_6="13000.00000" pt_clust_7="13000.00000" pt_clust_8="13000.00000" pt_clust_9="42.20019"></scales>
<clustering>
<clus scale="   42.200">  2  9  1 -1</clus>
<clus scale="   82.323">  5  6 -1 -1</clus>
<clus scale="   88.150">  7  8 -1 -1</clus>
<clus scale="  201.214">  1  5  2 -1</clus>
<clus scale="   42.200">  2  5  1 -1</clus>
</clustering>
</event>
<event>
 9    1  0.9171696E-005  0.1053683E+03  0.7546771E-02  0.1271112E+00
          1   -1    0    0  502    0 -0.00000000000E+00  0.00000000000E+00  0.46638943764E+03  0.46638943764E+03  0.00000000000E+00 0. -1.
         21   -1    0    0  501  502  0.00000000000E+00 -0.00000000000E+00 -0.45002595697E+02  0.45002595697E+02  0.00000000000E+00 0.  1.
         23    2    1    2    0    0  0.45431122714E+02  0.14571694488E+02  0.21209011993E+03  0.23552805651E+03  0.90636224772E+02 0.  0.
        -24    2    1    2    0    0 -0.63314206904E+02  0.24530739454E+02  0.20497054697E+03  0.23264915494E+03  0.86615577089E+02 0.  0.
         13    1    4    4    0    0 -0.70786944573E+02  0.21829349297E+02  0.21037741251E+03  0.22303804095E+03  0.00000000000E+00 0. -1.
        -14    1    4    4    0    0  0.74727376693E+01  0.27013901569E+01 -0.54068655484E+01  0.96111139892E+01  0.00000000000E+00 0.  1.
        -11    1    3    3    0    0  0.63678799457E+02  0.36865750756E+02  0.14954805521E+03  0.16666941500E+03  0.00000000000E+00 0. -1.
         11    1    3    3    0    0 -0.18247676743E+02 -0.22294056269E+02  0.62542064720E+02  0.68858641512E+02  0.00000000000E+00 0.  1.
          2    1    1    2  501    0  0.17883084190E+02 -0.39102433941E+02  0.43261750432E+01  0.43214821887E+02  0.00000000000E+00 0. -1.
<scales pt_clust_5="13000.00000" pt_clust_6="13000.00000" pt_clust_7="13000.00000" pt_clust_8="13000.00000" pt_clust_9="42.99773"></scales>
<clustering>
<clus scale="   42.998">  2  9  1 -1</clus>
<clus scale="   86.616">  5  6 -1 -1</clus>
<clus scale="   90.636">  7  8 -1 -1</clus>
<clus scale="  101.930">  2  5  1 -1</clus>
<clus scale="   42.998">  2  5  1 -1</clus>
</clustering>
</event>
<event>
 9    1  0.9171696E-005  0.1112836E+03  0.7546771E-02  0.1264088E+00
         -2   -1    0    0    0  501 -0.00000000000E+00  0.00000000000E+00  0.36569076864E+03  0.36569076864E+03  0.00000000000E+00 0.  1.
         21   -1    0    0  501  502  0.00000000000E+00 -0.00000000000E+00 -0.94481135992E+02  0.94481135992E+02  0.00000000000E+00 0.  1.
         23    2    1    2    0    0  0.31041746061E+02 -0.78232404972E+01  0.26593427201E+03  0.28348616357E+03  0.92836279649E+02 0.  0.
        -24    2    1    2    0    0 -0.40787629876E+02  0.28757473075E+02  0.49399285379E+02  0.12688468606E+03  0.10568259626E+03 0.  0.
         13    1    4    4    0    0  0.79683455826E+01 -0.34971307822E+02  0.86762653615E+01  0.36902093202E+02  0.00000000000E+00 0. -1.
        -14    1    4    4    0    0 -0.48755975459E+02  0.63728780897E+02  0.40723020017E+02  0.89982592855E+02  0.00000000000E+00 0.  1.
        -11    1    3    3    0    0 -0.24785050005E+02  0.18701757317E+02  0.13738421443E+03  0.14084912781E+03  0.00000000000E+00 0. -1.
         11    1    3    3    0    0  0.55826796066E+02 -0.26524997814E+02  0.12855005758E+03  0.14263703576E+03  0.00000000000E+00 0.  1.
         -1    1    1    2    0  502  0.97458838153E+01 -0.20934232578E+02 -0.44123924738E+02  0.49801055001E+02  0.00000000000E+00 0.  1.
<scales pt_clust_5="13000.00000" pt_clust_6="13000.00000" pt_clust_7="13000.00000" pt_clust_8="13000.00000" pt_clust_9="23.09165"></scales>
<clustering>
<clus scale="   23.092">  2  9  1 -1</clus>
<clus scale="   92.836">  7  8 -1 -1</clus>
<clus scale="   99.165">  1  7  2 -1</clus>
<clus scale="  105.683">  5  6 -1 -1</clus>
<clus scale="   23.092">  2  5  1 -1</clus>
</clustering>
</event>
<event>
 9    1  0.9171696E-005  0.9339460E+02  0.7546771E-02  0.1300340E+00
         21   -1    0    0  501  502  0.00000000000E+00  0.00000000000E+00  0.18836592191E+03  0.18836592191E+03  0.00000000000E+00 0. -1.
          1   -1    0    0  502    0 -0.00000000000E+00 -0.00000000000E+00 -0.12738518402E+03  0.12738518402E+03  0.00000000000E+00 0. -1.
         23    2    1    2    0    0  0.51346409421E+00  0.13812884134E+02 -0.81432823123E+02  0.12336517955E+03  0.91632982221E+02 0.  0.
        -24    2    1    2    0    0  0.16245237664E+02 -0.35879854787E+02  0.70654118136E+02  0.11546243894E+03  0.82391132227E+02 0.  0.
         11    1    4    4    0    0  0.43544158294E+02 -0.39137650355E+02  0.64840018860E+02  0.87361761902E+02  0.00000000000E+00 0. -1.
        -12    1    4    4    0    0 -0.27298920629E+02  0.32577955674E+01  0.58140992757E+01  0.28100677036E+02  0.00000000000E+00 0.  1.
        -13    1    3    3    0    0 -0.38520667235E+02  0.27230538810E+02 -0.24824557346E+02  0.53306685279E+02  0.00000000000E+00 0.  1.
         13    1    3    3    0    0  0.39034131329E+02 -0.13417654675E+02 -0.56608265777E+02  0.70058494273E+02  0.00000000000E+00 0. -1.
          2    1    1    2  501    0 -0.16758701758E+02  0.22066970653E+02  0.71759442877E+02  0.76923487444E+02  0.00000000000E+00 0. -1.
<scales pt_clust_5="13000.00000" pt_clust_6="13000.00000" pt_clust_7="13000.00000" pt_clust_8="13000.00000" pt_clust_9="27.70930"></scales>
<clustering>
<clus scale="   27.709">  1  9  2 -1</clus>
<clus scale="   82.391">  5  6 -1 -1</clus>
<clus scale="   84.346">  1  5  2 -1</clus>
<clus scale="   91.633">  7  8 -1 -1</clus>
<clus scale="   27.709">  1  5  2 -1</clus>
</clustering>
</event>
<event>
 9    1  0.9171696E-005  0.9571389E+02  0.7546771E-02  0.1297153E+00
         21   -1    0    0  501  502  0.00000000000E+00  0.00000000000E+00  0.15839732993E+03  0.15839732993E+03  0.00000000000E+00 0. -1.
         -4   -1    0    0    0  501 -0.00000000000E+00 -0.00000000000E+00 -0.11937928309E+03  0.11937928309E+03  0.00000000000E+00 0.  1.
         23    2    1    2    0    0  0.59494677308E+01 -0.10902993242E+02  0.34485657751E+02  0.98668437091E+02  0.91607469452E+02 0.  0.
        -24    2    1    2    0    0  0.30659403044E+01 -0.63313022859E+02  0.20045576034E+02  0.10275404312E+03  0.78349405910E+02 0.  0.
         11    1    4    4    0    0 -0.63191061892E+01 -0.49528671681E+02  0.48605836083E+02  0.69681760331E+02  0.00000000000E+00 0. -1.
        -12    1    4    4    0    0  0.93850464937E+01 -0.13784351178E+02 -0.28560260049E+02  0.33072282794E+02  0.00000000000E+00 0.  1.
        -11    1    3    3    0    0  0.34432325648E+02  0.68252785654E-01 -0.17317374645E+02  0.38541940436E+02  0.00000000000E+00 0.  1.
         11    1    3    3    0    0 -0.28482857917E+02 -0.10971246028E+02  0.51803032396E+02  0.60126496655E+02  0.00000000000E+00 0. -1.
         -3    1    1    2    0  502 -0.90154080352E+01  0.74216016102E+02 -0.15513186947E+02  0.76354132811E+02  0.00000000000E+00 0.  1.
<scales pt_clust_5="13000.00000" pt_clust_6="13000.00000" pt_clust_7="13000.00000" pt_clust_8="13000.00000" pt_clust_9="74.76162"></scales>
<clustering>
<clus scale="   74.762">  1  9  2 -1</clus>
<clus scale="   78.349">  5  6 -1 -1</clus>
<clus scale="   83.113">  1  5  2 -1</clus>
<clus scale="   91.607">  7  8 -1 -1</clus>
<clus scale="   74.762">  1  5  2 -1</clus>
</clustering>
</event>
<event>
 9    1  0.9171696E-005  0.1447087E+03  0.7546771E-02  0.1209215E+00
         21   -1    0    0  501  502  0.00000000000E+00  0.00000000000E+00  0.14680965810E+03  0.14680965810E+03  0.00000000000E+00 0.  1.
          1   -1    0    0  502    0 -0.00000000000E+00 -0.00000000000E+00 -0.49029097680E+03  0.49029097680E+03  0.00000000000E+00 0. -1.
         23    2    1    2    0    0  0.30034499213E+02  0.10626260846E+03 -0.28127832294E+03  0.31558861485E+03  0.91021237979E+02 0.  0.
        -24    2    1    2    0    0 -0.73002973079E+01 -0.11706378590E+03 -0.16371767478E+03  0.21692359130E+03  0.80592450730E+02 0.  0.
         13    1    4    4    0    0 -0.31972780163E+02 -0.67085991332E+02 -0.13528806876E+03  0.15435559741E+03  0.00000000000E+00 0. -1.
        -14    1    4    4    0    0  0.24672482855E+02 -0.49977794567E+02 -0.28429606028E+02  0.62567993886E+02  0.00000000000E+00 0.  1.
        -13    1    3    3    0    0 -0.49591242267E+01  0.89994290345E+02 -0.12188295010E+03  0.15158831991E+03  0.00000000000E+00 0.  1.
         13    1    3    3    0    0  0.34993623439E+02  0.16268318116E+02 -0.15939537284E+03  0.16400029494E+03  0.00000000000E+00 0. -1.
          2    1    1    2  501    0 -0.22734201905E+02  0.10801177438E+02  0.10151467903E+03  0.10458842876E+03  0.00000000000E+00 0. -1.
<scales pt_clust_5="13000.00000" pt_clust_6="13000.00000" pt_clust_7="13000.00000" pt_clust_8="13000.00000" pt_clust_9="25.16961"></scales>
<clustering>
<clus scale="   25.170">  1  9  2 -1</clus>
<clus scale="   80.592">  5  6 -1 -1</clus>
<clus scale="   91.021">  7  8 -1 -1</clus>
<clus scale="  138.387">  1  5  2 -1</clus>
<clus scale="   25.170">  1  5  2 -1</clus>
</clustering>
</event>
<event>
 9    1  0.9171696E-005  0.1334837E+03  0.7546771E-02  0.1238498E+00
          1   -1    0    0  502    0 -0.00000000000E+00  0.00000000000E+00  0.41510502575E+03  0.41510502575E+03  0.00000000000E+00 0. -1.
         21   -1    0    0  501  502  0.00000000000E+00 -0.00000000000E+00 -0.93873098599E+02  0.93873098599E+02  0.00000000000E+00 0. -1.
        -24    2    1    2    0    0 -0.12298574523E+02  0.51349133748E+02  0.21020886899E+03  0.23097145127E+03  0.79825147834E+02 0.  0.
         23    2    1    2    0    0 -0.74647317074E+02  0.10445100571E+02  0.12286981681E+03  0.17068257909E+03  0.91401470724E+02 0.  0.
         11    1    3    3    0    0 -0.36722499271E+02  0.35740817030E+02  0.18683759349E+03  0.19373753972E+03  0.00000000000E+00 0. -1.
        -12    1    3    3    0    0  0.24423924748E+02  0.15608316717E+02  0.23371275501E+02  0.37233911551E+02  0.00000000000E+00 0.  1.
        -11    1    4    4    0    0 -0.95367498503E+02  0.57077889041E+01  0.11056167531E+03  0.14612126016E+03  0.00000000000E+00 0. -1.
         11    1    4    4    0    0  0.20720181430E+02  0.47373116666E+01  0.12308141504E+02  0.24561318930E+02  0.00000000000E+00 0.  1.
          2    1    1    2  501    0  0.86945891597E+02 -0.61794234319E+02 -0.11846758647E+02  0.10732409399E+03  0.00000000000E+00 0. -1.
<scales pt_clust_5="13000.00000" pt_clust_6="13000.00000" pt_clust_7="13000.00000" pt_clust_8="13000.00000" pt_clust_9="97.28141"></scales>
<clustering>
<clus scale="   79.825">  5  6 -1 -1</clus>
<clus scale="   91.401">  7  8 -1 -1</clus>
<clus scale="   95.708">  1  5  2 -1</clus>
<clus scale="   97.281">  2  9  1 -1</clus>
<clus scale="   97.281">  2  5  1 -1</clus>
</clustering>
</event>
<event>
 9    1  0.9171696E-005  0.1239769E+03  0.7546771E-02  0.1255365E+00
         -2   -1    0    0    0  501 -0.00000000000E+00  0.00000000000E+00  0.24038695659E+02  0.24038695659E+02  0.00000000000E+00 0.  1.
         21   -1    0    0  501  502  0.00000000000E+00 -0.00000000000E+00 -0.11677556731E+04  0.11677556731E+04  0.00000000000E+00 0.  1.
        -24    2    1    2    0    0  0.26685392161E+02  0.85549245419E+01 -0.17695271129E+03  0.19636910733E+03  0.80394448758E+02 0.  0.
         23    2    1    2    0    0  0.75759128221E+02 -0.31992856604E+02 -0.29374340921E+03  0.31424885969E+03  0.75525935794E+02 0.  0.
         13    1    3    3    0    0 -0.37232433019E+01 -0.29424774680E+02 -0.10786966609E+03  0.11187289559E+03  0.00000000000E+00 0. -1.
        -14    1    3    3    0    0  0.30408635463E+02  0.37979699221E+02 -0.69083045199E+02  0.84496211736E+02  0.00000000000E+00 0.  1.
        -11    1    4    4    0    0  0.38882643145E+01  0.21635139259E+02 -0.58331653185E+02  0.62336021797E+02  0.00000000000E+00 0. -1.
         11    1    4    4    0    0  0.71870863907E+02 -0.53627995863E+02 -0.23541175603E+03  0.25191283789E+03  0.00000000000E+00 0.  1.
         -1    1    1    2    0  502 -0.10244452038E+03  0.23437932062E+02 -0.67302085690E+03  0.68117640170E+03  0.00000000000E+00 0.  1.
<scales pt_clust_5="13000.00000" pt_clust_6="13000.00000" pt_clust_7="13000.00000" pt_clust_8="13000.00000" pt_clust_9="98.31639"></scales>
<clustering>
<clus scale="   75.526">  7  8 -1 -1</clus>
<clus scale="   80.394">  5  6 -1 -1</clus>
<clus scale="   85.139">  1  5  2 -1</clus>
<clus scale="   98.316">  2  9  1 -1</clus>
<clus scale="   98.316">  2  5  1 -1</clus>
</clustering>
</event>
<event>
 9    1  0.9171696E-005  0.1449157E+03  0.7546771E-02  0.1210196E+00
          1   -1    0    0  502    0 -0.00000000000E+00  0.00000000000E+00  0.15862594439E+03  0.15862594439E+03  0.00000000000E+00 0. -1.
         21   -1    0    0  501  502  0.00000000000E+00 -0.00000000000E+00 -0.27520393738E+03  0.27520393738E+03  0.00000000000E+00 0.  1.
         23    2    1    2    0    0 -0.90463414939E+02 -0.16497426062E+02  0.30845160958E+02  0.13521953750E+03  0.94218389176E+02 0.  0.
        -24    2    1    2    0    0  0.14068122436E+03  0.23711102415E+02 -0.22969255405E+02  0.16421302893E+03  0.78005826135E+02 0.  0.
         11    1    4    4    0    0  0.49371098122E+02 -0.12234767765E+02  0.23030912377E+02  0.55835631966E+02  0.00000000000E+00 0. -1.
        -12    1    4    4    0    0  0.91310126237E+02  0.35945870180E+02 -0.46000167782E+02  0.10837739696E+03  0.00000000000E+00 0.  1.
        -11    1    3    3    0    0 -0.42384040092E+02  0.75886043801E+00 -0.32808123786E+02  0.53603691198E+02  0.00000000000E+00 0.  1.
         11    1    3    3    0    0 -0.48079374847E+02 -0.17256286500E+02  0.63653284744E+02  0.81615846305E+02  0.00000000000E+00 0. -1.
          2    1    1    2  501    0 -0.50217809421E+02 -0.72136763528E+01 -0.12445389854E+03  0.13439731534E+03  0.00000000000E+00 0. -1.
<scales pt_clust_5="13000.00000" pt_clust_6="13000.00000" pt_clust_7="13000.00000" pt_clust_8="13000.00000" pt_clust_9="50.73328"></scales>
<clustering>
<clus scale="   50.733">  2  9  1 -1</clus>
<clus scale="   78.006">  5  6 -1 -1</clus>
<clus scale="   94.218">  7  8 -1 -1</clus>
<clus scale="  134.938">  2  5  1 -1</clus>
<clus scale="   50.733">  2  5  1 -1</clus>
</clustering>
</event>
<event>
 9    1  0.9171696E-005  0.9711448E+02  0.7546771E-02  0.1292437E+00
         -2   -1    0    0    0  501 -0.00000000000E+00  0.00000000000E+00  0.26527302588E+03  0.26527302588E+03  0.00000000000E+00 0.  1.
         21   -1    0    0  501  502  0.00000000000E+00 -0.00000000000E+00 -0.10991636943E+03  0.10991636943E+03  0.00000000000E+00 0.  1.
         23    2    1    2    0    0 -0.11326197992E+02 -0.45343531705E+02  0.14096248607E+03  0.17344715398E+03  0.89605658946E+02 0.  0.
        -24    2    1    2    0    0 -0.48434209531E+02  0.31737245912E+00 -0.48388779920E+02  0.10406747401E+03  0.78374688170E+02 0.  0.
         11    1    4    4    0    0 -0.20548771294E+02 -0.36188894801E+02 -0.69330678343E+01  0.42189519293E+02  0.00000000000E+00 0. -1.
        -12    1    4    4    0    0 -0.27885438236E+02  0.36506267260E+02 -0.41455712085E+02  0.61877954712E+02  0.00000000000E+00 0.  1.
        -13    1    3    3    0    0 -0.48754385189E+02 -0.40358865956E+02  0.87017029666E+02  0.10760014679E+03  0.00000000000E+00 0.  1.
         13    1    3    3    0    0  0.37428187196E+02 -0.49846657491E+01  0.53945456407E+02  0.65847007194E+02  0.00000000000E+00 0. -1.
         -1    1    1    2    0  502  0.59760407523E+02  0.45026159246E+02  0.62782950297E+02  0.97674767324E+02  0.00000000000E+00 0.  1.
<scales pt_clust_5="13000.00000" pt_clust_6="13000.00000" pt_clust_7="13000.00000" pt_clust_8="13000.00000" pt_clust_9="74.82424"></scales>
<clustering>
<clus scale="   74.824">  2  9  1 -1</clus>
<clus scale="   78.375">  5  6 -1 -1</clus>
<clus scale="   86.860">  2  5  1 -1</clus>
<clus scale="   89.606">  7  8 -1 -1</clus>
<clus scale="   74.824">  2  5  1 -1</clus>
</clustering>
</event>
<event>
 9    1  0.9171696E-005  0.1973088E+03  0.7546771E-02  0.1183690E+00
         21   -1    0    0  501  502  0.00000000000E+00  0.00000000000E+00  0.29956637736E+03  0.29956637736E+03  0.00000000000E+00 0. -1.
         -4   -1    0    0    0  501 -0.00000000000E+00 -0.00000000000E+00 -0.28513472522E+03  0.28513472522E+03  0.00000000000E+00 0.  1.
        -24    2    1    2    0    0 -0.42868702211E+02 -0.11848914451E+02  0.15515864811E+03  0.18212397870E+03  0.84361218173E+02 0.  0.
         23    2    1    2    0    0  0.12927106671E+02  0.18185939782E+03 -0.91242932849E+02  0.22299779293E+03  0.90348172044E+02 0.  0.
         11    1    3    3    0    0 -0.24697379803E+02 -0.47924567587E+02  0.10185594113E+03  0.11524477208E+03  0.00000000000E+00 0. -1.
        -12    1    3    3    0    0 -0.18171322409E+02  0.36075653136E+02  0.53302706979E+02  0.66879206623E+02  0.00000000000E+00 0.  1.
        -11    1    4    4    0    0  0.49345616663E+02  0.71365931471E+02 -0.45666173721E+02  0.98048383367E+02  0.00000000000E+00 0.  1.
         11    1    4    4    0    0 -0.36418509992E+02  0.11049346635E+03 -0.45576759128E+02  0.12494940956E+03  0.00000000000E+00 0. -1.
         -3    1    1    2    0  502  0.29941595540E+02 -0.17001048337E+03 -0.49484063129E+02  0.17957933095E+03  0.00000000000E+00 0.  1.
<scales pt_clust_5="13000.00000" pt_clust_6="13000.00000" pt_clust_7="13000.00000" pt_clust_8="13000.00000" pt_clust_9="175.40805"></scales>
<clustering>
<clus scale="   84.361">  5  6 -1 -1</clus>
<clus scale="   90.348">  7  8 -1 -1</clus>
<clus scale="   95.367">  2  5  1 -1</clus>
<clus scale="  175.408">  1  9  2 -1</clus>
<clus scale="  175.408">  1  5  2 -1</clus>
</clustering>
</event>
<event>
 9    1  0.9267317E-005  0.9534432E+02  0.7546771E-02  0.1296999E+00
          1   -1    0    0  502    0 -0.00000000000E+00  0.00000000000E+00  0.22034364167E+03  0.22034364167E+03  0.00000000000E+00 0. -1.
         21   -1    0    0  501  502  0.00000000000E+00 -0.00000000000E+00 -0.34131084992E+03  0.34131084992E+03  0.00000000000E+00 0. -1.
        -24    2    1    2    0    0 -0.20317034587E+02 -0.14757099639E+02  0.19948677642E+03  0.21661231611E+03  0.80593843674E+02 0.  0.
         23    2    1    2    0    0  0.25484781208E+02 -0.55367058274E+01 -0.18806017422E+03  0.21100238589E+03  0.92061113086E+02 0.  0.
         13    1    3    3    0    0 -0.39063186309E+02 -0.35588121730E+02  0.98142942442E+02  0.11146516982E+03  0.00000000000E+00 0. -1.
        -14    1    3    3    0    0  0.18746151722E+02  0.20831022091E+02  0.10134383398E+03  0.10514714628E+03  0.00000000000E+00 0.  1.
        -11    1    4    4    0    0  0.22636816675E+01 -0.30316690709E+02 -0.13664195946E+02  0.33330710180E+02  0.00000000000E+00 0. -1.
         11    1    4    4    0    0  0.23221099541E+02  0.24779984882E+02 -0.17439597827E+03  0.17767167571E+03  0.00000000000E+00 0.  1.
          2    1    1    2  501    0 -0.51677466212E+01  0.20293805467E+02 -0.13239381046E+03  0.13403978959E+03  0.00000000000E+00 0. -1.
<scales pt_clust_5="13000.00000" pt_clust_6="13000.00000" pt_clust_7="13000.00000" pt_clust_8="13000.00000" pt_clust_9="20.94145"></scales>
<clustering>
<clus scale="   20.941">  2  9  1 -1</clus>
<clus scale="   80.594">  5  6 -1 -1</clus>
<clus scale="   84.325">  1  5  2 -1</clus>
<clus scale="   92.061">  7  8 -1 -1</clus>
<clus scale="   20.941">  2  5  1 -1</clus>
</clustering>
</event>
<event>
 9    1  0.9171696E-005  0.8899265E+02  0.7546771E-02  0.1306244E+00
         21   -1    0    0  501  502  0.00000000000E+00  0.00000000000E+00  0.53106583040E+02  0.53106583040E+02  0.00000000000E+00 0.  1.
          1   -1    0    0  502    0 -0.00000000000E+00 -0.00000000000E+00 -0.37915633346E+03  0.37915633346E+03  0.00000000000E+00 0. -1.
        -24    2    1    2    0    0 -0.22616915901E+02 -0.23789254949E+02 -0.28697224878E+03  0.30060674258E+03  0.83269974057E+02 0.  0.
         23    2    1    2    0    0 -0.14070988470E+02  0.11841494851E+02 -0.31334470779E+02  0.92302574019E+02  0.84851060068E+02 0.  0.
         11    1    3    3    0    0  0.51470214078E+01 -0.45208235623E+02 -0.22357534640E+03  0.22815830451E+03  0.00000000000E+00 0. -1.
        -12    1    3    3    0    0 -0.27763937309E+02  0.21418980674E+02 -0.63396902379E+02  0.72448438073E+02  0.00000000000E+00 0.  1.
        -11    1    4    4    0    0 -0.49035718876E+02 -0.23333178773E+01 -0.17961465299E+02  0.52273897250E+02  0.00000000000E+00 0. -1.
         11    1    4    4    0    0  0.34964730407E+02  0.14174812728E+02 -0.13373005480E+02  0.40028676769E+02  0.00000000000E+00 0.  1.
          2    1    1    2  501    0  0.36687904370E+02  0.11947760098E+02 -0.77430308656E+01  0.39353599904E+02  0.00000000000E+00 0. -1.
<scales pt_clust_5="13000.00000" pt_clust_6="13000.00000" pt_clust_7="13000.00000" pt_clust_8="13000.00000" pt_clust_9="38.58434"></scales>
<clustering>
<clus scale="   38.584">  1  9  2 -1</clus>
<clus scale="   83.270">  5  6 -1 -1</clus>
<clus scale="   84.851">  7  8 -1 -1</clus>
<clus scale="   87.486">  2  5  1 -1</clus>
<clus scale="   38.584">  1  5  2 -1</clus>
</clustering>
</event>
<event>
 9    1  0.9171696E-005  0.1906397E+03  0.7546771E-02  0.1159028E+00
         -4   -1    0    0    0  501 -0.00000000000E+00  0.00000000000E+00  0.51584215430E+03  0.51584215430E+03  0.00000000000E+00 0.  1.
         21   -1    0    0  501  502  0.00000000000E+00 -0.00000000000E+00 -0.16433818996E+03  0.16433818996E+03  0.00000000000E+00 0.  1.
        -24    2    1    2    0    0  0.11393621753E+03 -0.11916453945E+03  0.36343070008E+03  0.40701590402E+03  0.79990144630E+02 0.  0.
         23    2    1    2    0    0 -0.16799141731E+03  0.87183806523E+02 -0.11918598548E+02  0.21035733898E+03  0.91027603838E+02 0.  0.
         11    1    3    3    0    0  0.54568646515E+02 -0.99055766184E+02  0.28498095247E+03  0.30660059567E+03  0.00000000000E+00 0. -1.
        -12    1    3    3    0    0  0.59367571015E+02 -0.20108773266E+02  0.78449747614E+02  0.10041530835E+03  0.00000000000E+00 0.  1.
        -13    1    4    4    0    0 -0.12656544936E+03  0.10461245720E+03 -0.14408223111E+01  0.16420918105E+03  0.00000000000E+00 0.  1.
         13    1    4    4    0    0 -0.41425967950E+02 -0.17428650676E+02 -0.10477776237E+02  0.46148157925E+02  0.00000000000E+00 0. -1.
         -3    1    1    2    0  502  0.54055199782E+02  0.31980732926E+02 -0.81371948374E-02  0.62807101256E+02  0.00000000000E+00 0.  1.
<scales pt_clust_5="13000.00000" pt_clust_6="13000.00000" pt_clust_7="13000.00000" pt_clust_8="13000.00000" pt_clust_9="62.80710"></scales>
<clustering>
<clus scale="   62.807">  2  9  1 -1</clus>
<clus scale="   79.990">  5  6 -1 -1</clus>
<clus scale="   91.028">  7  8 -1 -1</clus>
<clus scale="  185.623">  1  5  2 -1</clus>
<clus scale="   62.807">  2  5  1 -1</clus>
</clustering>
</event>
<event>
 9    1  0.9171696E-005  0.1150378E+03  0.7546771E-02  0.1255225E+00
         -2   -1    0    0    0  501 -0.00000000000E+00  0.00000000000E+00  0.48073919916E+03  0.48073919916E+03  0.00000000000E+00 0.  1.
         21   -1    0    0  501  502  0.00000000000E+00 -0.00000000000E+00 -0.15011804493E+03  0.15011804493E+03  0.00000000000E+00 0. -1.
         23    2    1    2    0    0 -0.40025679469E+02  0.64180932703E+02  0.38554054459E+03  0.40304589085E+03  0.89906793227E+02 0.  0.
        -24    2    1    2    0    0 -0.58453043464E+02 -0.71316630999E+02 -0.40004400293E+02  0.12795428544E+03  0.79177818695E+02 0.  0.
         11    1    4    4    0    0 -0.48415372852E+02 -0.88503003377E+02 -0.38561387542E+02  0.10799912289E+03  0.00000000000E+00 0. -1.
        -12    1    4    4    0    0 -0.10037670612E+02  0.17186372379E+02 -0.14430127517E+01  0.19955162556E+02  0.00000000000E+00 0.  1.
        -13    1    3    3    0    0 -0.40473314601E+02 -0.96522288967E+01  0.17685887120E+03  0.18168741024E+03  0.00000000000E+00 0. -1.
         13    1    3    3    0    0  0.44763513274E+00  0.73833161600E+02  0.20868167340E+03  0.22135848062E+03  0.00000000000E+00 0.  1.
         -1    1    1    2    0  502  0.98478722933E+02  0.71356982957E+01 -0.14914990074E+02  0.99857067799E+02  0.00000000000E+00 0.  1.
<scales pt_clust_5="13000.00000" pt_clust_6="13000.00000" pt_clust_7="13000.00000" pt_clust_8="13000.00000" pt_clust_9="98.73691"></scales>
<clustering>
<clus scale="   79.178">  5  6 -1 -1</clus>
<clus scale="   89.907">  7  8 -1 -1</clus>
<clus scale="   98.737">  2  9  1 -1</clus>
<clus scale="  106.863">  2  5  1 -1</clus>
<clus scale="   98.737">  2  5  1 -1</clus>
</clustering>
</event>
<event>
 9    1  0.9171696E-005  0.1090212E+03  0.7546771E-02  0.1266684E+00
         21   -1    0    0  501  502  0.00000000000E+00  0.00000000000E+00  0.10095510705E+03  0.10095510705E+03  0.00000000000E+00 0.  1.
          1   -1    0    0  502    0 -0.00000000000E+00 -0.00000000000E+00 -0.19949427297E+03  0.19949427297E+03  0.00000000000E+00 0. -1.
         23    2    1    2    0    0 -0.67990176656E+01  0.68419567840E+02 -0.82911036841E+02  0.14105299370E+03  0.91072735205E+02 0.  0.
        -24    2    1    2    0    0  0.50048658712E+02 -0.35349805920E+02 -0.25071212275E+02  0.10413960009E+03  0.80386650661E+02 0.  0.
         13    1    4    4    0    0  0.46452185819E+02 -0.77753259429E+01 -0.48626211245E+02  0.67696157061E+02  0.00000000000E+00 0. -1.
        -14    1    4    4    0    0  0.35964728931E+01 -0.27574479977E+02  0.23554998970E+02  0.36443443029E+02  0.00000000000E+00 0.  1.
        -13    1    3    3    0    0  0.30146766960E+02  0.57013175616E+02 -0.20569185961E+02  0.67693582880E+02  0.00000000000E+00 0.  1.
         13    1    3    3    0    0 -0.36945784625E+02  0.11406392224E+02 -0.62341850880E+02  0.73359410823E+02  0.00000000000E+00 0. -1.
          2    1    1    2  501    0 -0.43249641046E+02 -0.33069761920E+02  0.94430832002E+01  0.55256786229E+02  0.00000000000E+00 0. -1.
<scales pt_clust_5="13000.00000" pt_clust_6="13000.00000" pt_clust_7="13000.00000" pt_clust_8="13000.00000" pt_clust_9="54.44392"></scales>
<clustering>
<clus scale="   54.444">  1  9  2 -1</clus>
<clus scale="   80.387">  5  6 -1 -1</clus>
<clus scale="   91.073">  7  8 -1 -1</clus>
<clus scale="  100.267">  1  5  2 -1</clus>
<clus scale="   54.444">  1  5  2 -1</clus>
</clustering>
</event>
<event>
 9    1  0.9171696E-005  0.1208285E+03  0.7546771E-02  0.1245964E+00
          1   -1    0    0  502    0 -0.00000000000E+00  0.00000000000E+00  0.71591572703E+03  0.71591572703E+03  0.00000000000E+00 0. -1.
         21   -1    0    0  501  502  0.00000000000E+00 -0.00000000000E+00 -0.56640584074E+02  0.56640584074E+02  0.00000000000E+00 0.  1.
         23    2    1    2    0    0 -0.73658054429E+02 -0.17470420650E+02  0.26263027366E+03  0.28708479034E+03  0.87819653974E+02 0.  0.
        -24    2    1    2    0    0  0.91492056645E+02  0.69724275502E+02  0.68654018408E+02  0.15286587552E+03  0.73636476222E+02 0.  0.
         13    1    4    4    0    0  0.18107599275E+02  0.57590673511E+02  0.18446181787E+02  0.63125529300E+02  0.00000000000E+00 0. -1.
        -14    1    4    4    0    0  0.73384457370E+02  0.12133601991E+02  0.50207836622E+02  0.89740346216E+02  0.00000000000E+00 0.  1.
        -11    1    3    3    0    0 -0.93753029555E+02 -0.91670869398E+01  0.21291424931E+03  0.23282212866E+03  0.00000000000E+00 0.  1.
         11    1    3    3    0    0  0.20094975127E+02 -0.83033337100E+01  0.49716024348E+02  0.54262661684E+02  0.00000000000E+00 0. -1.
          2    1    1    2  501    0 -0.17834002216E+02 -0.52253854852E+02  0.32799085089E+03  0.33260564525E+03  0.00000000000E+00 0. -1.
<scales pt_clust_5="13000.00000" pt_clust_6="13000.00000" pt_clust_7="13000.00000" pt_clust_8="13000.00000" pt_clust_9="55.21340"></scales>
<clustering>
<clus scale="   55.213">  2  9  1 -1</clus>
<clus scale="   73.636">  5  6 -1 -1</clus>
<clus scale="   87.820">  7  8 -1 -1</clus>
<clus scale="  110.948">  2  5  1 -1</clus>
<clus scale="   55.213">  2  5  1 -1</clus>
</clustering>
</event>
<event>
 9    1  0.9171696E-005  0.1219910E+03  0.7546771E-02  0.1243169E+00
         21   -1    0    0  501  502  0.00000000000E+00  0.00000000000E+00  0.45498387581E+02  0.45498387581E+02  0.00000000000E+00 0.  1.
          1   -1    0    0  502    0 -0.00000000000E+00 -0.00000000000E+00 -0.56497206834E+03  0.56497206834E+03  0.00000000000E+00 0. -1.
        -24    2    1    2    0    0 -0.24577849641E+02 -0.74176853363E+02 -0.21539016938E+03  0.24267829579E+03  0.79959701838E+02 0.  0.
         23    2    1    2    0    0 -0.40803516231E+02  0.93519665785E+02 -0.17755448288E+03  0.22406163988E+03  0.90923975113E+02 0.  0.
         13    1    3    3    0    0  0.25617368886E+02 -0.48718786718E+02 -0.95308598981E+02  0.11006134111E+03  0.00000000000E+00 0. -1.
        -14    1    3    3    0    0 -0.50195218528E+02 -0.25458066645E+02 -0.12008157039E+03  0.13261695468E+03  0.00000000000E+00 0.  1.
        -11    1    4    4    0    0 -0.35791012683E+02 -0.24745324004E+01 -0.24925229587E+02  0.43685088640E+02  0.00000000000E+00 0.  1.
         11    1    4    4    0    0 -0.50125035478E+01  0.95994198186E+02 -0.15262925330E+03  0.18037655124E+03  0.00000000000E+00 0. -1.
          2    1    1    2  501    0  0.65381365873E+02 -0.19342812423E+02 -0.12652902850E+03  0.14373052024E+03  0.00000000000E+00 0. -1.
<scales pt_clust_5="13000.00000" pt_clust_6="13000.00000" pt_clust_7="13000.00000" pt_clust_8="13000.00000" pt_clust_9="68.18264"></scales>
<clustering>
<clus scale="   68.183">  1  9  2 -1</clus>
<clus scale="   79.960">  5  6 -1 -1</clus>
<clus scale="   90.924">  7  8 -1 -1</clus>
<clus scale="  114.053">  2  5  1 -1</clus>
<clus scale="   68.183">  1  5  2 -1</clus>
</clustering>
</event>
<event>
 9    1  0.9171696E-005  0.1580253E+03  0.7546771E-02  0.1193204E+00
          1   -1    0    0  502    0 -0.00000000000E+00  0.00000000000E+00  0.57848369661E+03  0.57848369661E+03  0.00000000000E+00 0. -1.
         21   -1    0    0  501  502  0.00000000000E+00 -0.00000000000E+00 -0.62628411932E+02  0.62628411932E+02  0.00000000000E+00 0.  1.
         23    2    1    2    0    0 -0.53365719326E+02 -0.13059779851E+03  0.37803687034E+03  0.41382049814E+03  0.91825074842E+02 0.  0.
        -24    2    1    2    0    0  0.36460180032E+02  0.10369017454E+03  0.14141521892E+03  0.19531107741E+03  0.77891949486E+02 0.  0.
         13    1    4    4    0    0  0.14982133333E+02  0.10565364566E+03  0.13637451760E+03  0.17316225400E+03  0.00000000000E+00 0. -1.
        -14    1    4    4    0    0  0.21478046699E+02 -0.19634711172E+01  0.50407013187E+01  0.22148823414E+02  0.00000000000E+00 0.  1.
        -11    1    3    3    0    0  0.24277023056E+02 -0.19759428727E+02  0.96465143220E+02  0.10141662945E+03  0.00000000000E+00 0.  1.
         11    1    3    3    0    0 -0.77642742381E+02 -0.11083836978E+03  0.28157172712E+03  0.31240386869E+03  0.00000000000E+00 0. -1.
          2    1    1    2  501    0  0.16905539294E+02  0.26907623971E+02 -0.35968045876E+01  0.31980532982E+02  0.00000000000E+00 0. -1.
<scales pt_clust_5="13000.00000" pt_clust_6="13000.00000" pt_clust_7="13000.00000" pt_clust_8="13000.00000" pt_clust_9="31.77763"></scales>
<clustering>
<clus scale="   31.778">  2  9  1 -1</clus>
<clus scale="   77.892">  5  6 -1 -1</clus>
<clus scale="   91.825">  7  8 -1 -1</clus>
<clus scale="  150.357">  2  5  1 -1</clus>
<clus scale="   31.778">  2  5  1 -1</clus>
</clustering>
</event>
<event>
 9    1  0.9171696E-005  0.1426448E+03  0.7546771E-02  0.1234798E+00
         21   -1    0    0  501  502  0.00000000000E+00  0.00000000000E+00  0.56776885384E+02  0.56776885384E+02  0.00000000000E+00 0.  1.
          1   -1    0    0  502    0 -0.00000000000E+00 -0.00000000000E+00 -0.59817314286E+03  0.59817314286E+03  0.00000000000E+00 0. -1.
        -24    2    1    2    0    0  0.22226785043E+02  0.15835332731E+02 -0.53255704132E+02  0.99952836521E+02  0.80060051024E+02 0.  0.
         23    2    1    2    0    0 -0.10482532059E+03 -0.74424525531E+02 -0.34800002213E+03  0.38209669989E+03  0.91468654895E+02 0.  0.
         11    1    3    3    0    0 -0.30117589094E+02  0.33487094182E+01 -0.24307483392E+02  0.38847609662E+02  0.00000000000E+00 0. -1.
        -12    1    3    3    0    0  0.52344374137E+02  0.12486623312E+02 -0.28948220740E+02  0.61105226859E+02  0.00000000000E+00 0.  1.
        -11    1    4    4    0    0 -0.11591800977E+03 -0.45448310962E+02 -0.24977677777E+03  0.27908954239E+03  0.00000000000E+00 0. -1.
         11    1    4    4    0    0  0.11092689181E+02 -0.28976214570E+02 -0.98223244356E+02  0.10300715750E+03  0.00000000000E+00 0.  1.
          2    1    1    2  501    0  0.82598535543E+02  0.58589192801E+02 -0.14014053122E+03  0.17290049184E+03  0.00000000000E+00 0. -1.
<scales pt_clust_5="13000.00000" pt_clust_6="13000.00000" pt_clust_7="13000.00000" pt_clust_8="13000.00000" pt_clust_9="109.45785"></scales>
<clustering>
<clus scale="   80.060">  5  6 -1 -1</clus>
<clus scale="   84.584">  2  5  1 -1</clus>
<clus scale="   91.469">  7  8 -1 -1</clus>
<clus scale="  109.458">  1  9  2 -1</clus>
<clus scale="  109.458">  1  5  2 -1</clus>
</clustering>
</event>
<event>
 9    1  0.9171696E-005  0.1075845E+03  0.7546771E-02  0.1270182E+00
         21   -1    0    0  501  502  0.00000000000E+00  0.00000000000E+00  0.28746274791E+03  0.28746274791E+03  0.00000000000E+00 0.  1.
         -4   -1    0    0    0  501 -0.00000000000E+00 -0.00000000000E+00 -0.21521916780E+03  0.21521916780E+03  0.00000000000E+00 0.  1.
         23    2    1    2    0    0  0.48713286151E+02 -0.32380793975E+02 -0.18200522321E+03  0.21208552174E+03  0.91830644075E+02 0.  0.
        -24    2    1    2    0    0 -0.98645750719E+01  0.17927607666E+02  0.22572563741E+03  0.24028051237E+03  0.79774383632E+02 0.  0.
         13    1    4    4    0    0  0.40145657865E+01 -0.28508308102E+02  0.47147199461E+02  0.55242183034E+02  0.00000000000E+00 0. -1.
        -14    1    4    4    0    0 -0.13879140858E+02  0.46435915768E+02  0.17857843795E+03  0.18503832934E+03  0.00000000000E+00 0.  1.
        -13    1    3    3    0    0  0.51108550935E+02  0.20610210353E+02 -0.10492926096E+03  0.11852010190E+03  0.00000000000E+00 0.  1.
         13    1    3    3    0    0 -0.23952647835E+01 -0.52991004328E+02 -0.77075962250E+02  0.93565419840E+02  0.00000000000E+00 0. -1.
         -3    1    1    2    0  502 -0.38848711079E+02  0.14453186309E+02  0.28523165914E+02  0.50315881596E+02  0.00000000000E+00 0.  1.
<scales pt_clust_5="13000.00000" pt_clust_6="13000.00000" pt_clust_7="13000.00000" pt_clust_8="13000.00000" pt_clust_9="41.45017"></scales>
<clustering>
<clus scale="   41.450">  1  9  2 -1</clus>
<clus scale="   79.774">  5  6 -1 -1</clus>
<clus scale="   91.831">  7  8 -1 -1</clus>
<clus scale="   97.496">  1  5  2 -1</clus>
<clus scale="   41.450">  1  5  2 -1</clus>
</clustering>
</event>
<event>
 9    1  0.9171696E-005  0.1026632E+03  0.7546771E-02  0.1283279E+00
          3   -1    0    0  502    0 -0.00000000000E+00  0.00000000000E+00  0.75302080025E+02  0.75302080025E+02  0.00000000000E+00 0. -1.
         21   -1    0    0  501  502  0.00000000000E+00 -0.00000000000E+00 -0.57721724359E+03  0.57721724359E+03  0.00000000000E+00 0. -1.
         23    2    1    2    0    0 -0.37477402940E+02 -0.24172839520E+01  0.12323257775E+02  0.10317802669E+03  0.95307101077E+02 0.  0.
        -24    2    1    2    0    0  0.31548228514E+02  0.74461569241E+02 -0.38604930749E+03  0.40217478219E+03  0.78553622423E+02 0.  0.
         13    1    4    4    0    0  0.54978180167E+02  0.68868043036E+02 -0.28609797284E+03  0.29936175058E+03  0.00000000000E+00 0. -1.
        -14    1    4    4    0    0 -0.23429951653E+02  0.55935262052E+01 -0.99951334650E+02  0.10281303161E+03  0.00000000000E+00 0.  1.
        -13    1    3    3    0    0 -0.24413892604E+02  0.15232710271E+02  0.51082861940E+02  0.58630473291E+02  0.00000000000E+00 0.  1.
         13    1    3    3    0    0 -0.13063510336E+02 -0.17649994223E+02 -0.38759604166E+02  0.44547553395E+02  0.00000000000E+00 0. -1.
          4    1    1    2  501    0  0.59291744253E+01 -0.72044285289E+02 -0.12818911384E+03  0.14716651474E+03  0.00000000000E+00 0. -1.
<scales pt_clust_5="13000.00000" pt_clust_6="13000.00000" pt_clust_7="13000.00000" pt_clust_8="13000.00000" pt_clust_9="72.28786"></scales>
<clustering>
<clus scale="   72.288">  2  9  1 -1</clus>
<clus scale="   78.554">  5  6 -1 -1</clus>
<clus scale="   87.332">  2  5  1 -1</clus>
<clus scale="   95.307">  7  8 -1 -1</clus>
<clus scale="   72.288">  2  5  1 -1</clus>
</clustering>
</event>
<event>
 9    1  0.9171696E-005  0.9704186E+02  0.7546771E-02  0.1300545E+00
          1   -1    0    0  502    0 -0.00000000000E+00  0.00000000000E+00  0.56865356058E+02  0.56865356058E+02  0.00000000000E+00 0. -1.
         21   -1    0    0  501  502  0.00000000000E+00 -0.00000000000E+00 -0.41574955096E+03  0.41574955096E+03  0.00000000000E+00 0.  1.
        -24    2    1    2    0    0  0.13434956726E+02  0.26784072769E+02 -0.46666344487E+02  0.87086878725E+02  0.67145306030E+02 0.  0.
         23    2    1    2    0    0  0.31249712869E+02 -0.60968475420E+02 -0.30876973681E+03  0.32916152610E+03  0.91185856082E+02 0.  0.
         11    1    3    3    0    0 -0.24911721992E+02 -0.27808792861E+01 -0.17305081135E+02  0.30459694932E+02  0.00000000000E+00 0. -1.
        -12    1    3    3    0    0  0.38346678718E+02  0.29564952055E+02 -0.29361263352E+02  0.56627183793E+02  0.00000000000E+00 0.  1.
        -11    1    4    4    0    0 -0.97644142830E+01 -0.63260449218E+02 -0.12032302590E+03  0.13628961363E+03  0.00000000000E+00 0.  1.
         11    1    4    4    0    0  0.41014127152E+02  0.22919737973E+01 -0.18844671090E+03  0.19287191247E+03  0.00000000000E+00 0. -1.
          2    1    1    2  501    0 -0.44684669596E+02  0.34184402652E+02 -0.34481136073E+01  0.56366502189E+02  0.00000000000E+00 0. -1.
<scales pt_clust_5="13000.00000" pt_clust_6="13000.00000" pt_clust_7="13000.00000" pt_clust_8="13000.00000" pt_clust_9="56.26097"></scales>
<clustering>
<clus scale="   56.261">  2  9  1 -1</clus>
<clus scale="   67.145">  5  6 -1 -1</clus>
<clus scale="   74.905">  1  5  2 -1</clus>
<clus scale="   91.186">  7  8 -1 -1</clus>
<clus scale="   56.261">  2  5  1 -1</clus>
</clustering>
</event>
<event>
 9    1  0.9171696E-005  0.3109911E+03  0.7546771E-02  0.1079875E+00
         21   -1    0    0  501  502  0.00000000000E+00  0.00000000000E+00  0.28498360672E+03  0.28498360672E+03  0.00000000000E+00 0. -1.
          1   -1    0    0  502    0 -0.00000000000E+00 -0.00000000000E+00 -0.61691472460E+03  0.61691472460E+03  0.00000000000E+00 0. -1.
        -24    2    1    2    0    0 -0.18744982662E+03 -0.24298483216E+03 -0.23182094679E+03  0.39445863779E+03  0.87621911590E+02 0.  0.
         23    2    1    2    0    0  0.62299544451E+02  0.29417831734E+03  0.36408063988E+02  0.31529236838E+03  0.87530650660E+02 0.  0.
         13    1    3    3    0    0 -0.17446613519E+03 -0.24643697795E+03 -0.20652741268E+03  0.36581851869E+03  0.00000000000E+00 0. -1.
        -14    1    3    3    0    0 -0.12983691438E+02  0.34521457912E+01 -0.25293534112E+02  0.28640119095E+02  0.00000000000E+00 0.  1.
        -13    1    4    4    0    0 -0.18012617043E+02  0.98467611786E+02 -0.28025815407E+01  0.10014079791E+03  0.00000000000E+00 0. -1.
         13    1    4    4    0    0  0.80312161494E+02  0.19571070556E+03  0.39210645528E+02  0.21515157047E+03  0.00000000000E+00 0.  1.
          2    1    1    2  501    0  0.12515028217E+03 -0.51193485186E+02 -0.13651823507E+03  0.19214732514E+03  0.00000000000E+00 0. -1.
<scales pt_clust_5="13000.00000" pt_clust_6="13000.00000" pt_clust_7="13000.00000" pt_clust_8="13000.00000" pt_clust_9="135.21607"></scales>
<clustering>
<clus scale="   87.531">  7  8 -1 -1</clus>
<clus scale="   87.622">  5  6 -1 -1</clus>
<clus scale="  135.216">  1  9  2 -1</clus>
<clus scale="  310.965">  1  7  2 -1</clus>
<clus scale="  135.216">  1  5  2 -1</clus>
</clustering>
</event>
<event>
 9    1  0.9171696E-005  0.1253457E+03  0.7546771E-02  0.1241515E+00
         -2   -1    0    0    0  501 -0.00000000000E+00  0.00000000000E+00  0.43207369340E+03  0.43207369340E+03  0.00000000000E+00 0.  1.
         21   -1    0    0  501  502  0.00000000000E+00 -0.00000000000E+00 -0.11949401187E+03  0.11949401187E+03  0.00000000000E+00 0. -1.
        -24    2    1    2    0    0 -0.73490375748E+02 -0.85046404574E+01 -0.41462567885E+02  0.11635511758E+03  0.79663069324E+02 0.  0.
         23    2    1    2    0    0 -0.53194445775E+02 -0.30639307995E+02  0.10492558869E+03  0.15300627423E+03  0.92914608853E+02 0.  0.
         11    1    3    3    0    0 -0.16766880764E+02  0.28767903625E+02 -0.34786571629E+02  0.48154191253E+02  0.00000000000E+00 0. -1.
        -12    1    3    3    0    0 -0.56723494984E+02 -0.37272544083E+02 -0.66759962556E+01  0.68200926325E+02  0.00000000000E+00 0.  1.
        -13    1    4    4    0    0 -0.69619445537E+02 -0.14620161194E+02  0.10854509731E+03  0.12977925281E+03  0.00000000000E+00 0. -1.
         13    1    4    4    0    0  0.16424999762E+02 -0.16019146801E+02 -0.36195086266E+01  0.23227021421E+02  0.00000000000E+00 0.  1.
         -1    1    1    2    0  502  0.12668482152E+03  0.39143948452E+02  0.24911666073E+03  0.28220631346E+03  0.00000000000E+00 0.  1.
<scales pt_clust_5="13000.00000" pt_clust_6="13000.00000" pt_clust_7="13000.00000" pt_clust_8="13000.00000" pt_clust_9="84.13333"></scales>
<clustering>
<clus scale="   79.663">  5  6 -1 -1</clus>
<clus scale="   92.915">  7  8 -1 -1</clus>
<clus scale="  108.717">  1  5  2 -1</clus>
<clus scale="   84.133">  2  9  1 -1</clus>
<clus scale="   84.133">  2  5  1 -1</clus>
</clustering>
</event>
<event>
 9    1  0.9171696E-005  0.1715076E+03  0.7546771E-02  0.1205002E+00
         -2   -1    0    0    0  501 -0.00000000000E+00  0.00000000000E+00  0.24898607271E+03  0.24898607271E+03  0.00000000000E+00 0.  1.
         21   -1    0    0  501  502  0.00000000000E+00 -0.00000000000E+00 -0.17771306051E+03  0.17771306051E+03  0.00000000000E+00 0.  1.
         23    2    1    2    0    0  0.12826479520E+02  0.61548972052E+01 -0.69093810365E+01  0.91252184097E+02  0.89871131181E+02 0.  0.
        -24    2    1    2    0    0 -0.54117837677E+02 -0.14783032700E+03  0.20376470088E+02  0.17695900505E+03  0.78209609379E+02 0.  0.
         13    1    4    4    0    0  0.12032551353E+02 -0.25593508658E+02 -0.17046176359E+02  0.33020934359E+02  0.00000000000E+00 0. -1.
        -14    1    4    4    0    0 -0.66150389030E+02 -0.12223681834E+03  0.37422646447E+02  0.14393807069E+03  0.00000000000E+00 0.  1.
        -13    1    3    3    0    0  0.38146034620E+02 -0.21515759058E+02 -0.24105699785E+02  0.49991325320E+02  0.00000000000E+00 0.  1.
         13    1    3    3    0    0 -0.25319555100E+02  0.27670656263E+02  0.17196318749E+02  0.41260858777E+02  0.00000000000E+00 0. -1.
         -1    1    1    2    0  502  0.41291358157E+02  0.14167542979E+03  0.57805923151E+02  0.15848794407E+03  0.00000000000E+00 0.  1.
<scales pt_clust_5="13000.00000" pt_clust_6="13000.00000" pt_clust_7="13000.00000" pt_clust_8="13000.00000" pt_clust_9="152.63727"></scales>
<clustering>
<clus scale="   78.210">  5  6 -1 -1</clus>
<clus scale="   89.871">  7  8 -1 -1</clus>
<clus scale="   90.990">  1  7  2 -1</clus>
<clus scale="  152.637">  2  9  1 -1</clus>
<clus scale="  152.637">  2  5  1 -1</clus>
</clustering>
</event>
<event>
 9    1  0.9171696E-005  0.1326227E+03  0.7546771E-02  0.1226126E+00
         21   -1    0    0  501  502  0.00000000000E+00  0.00000000000E+00  0.22805202384E+02  0.22805202384E+02  0.00000000000E+00 0. -1.
          1   -1    0    0  502    0 -0.00000000000E+00 -0.00000000000E+00 -0.14174963588E+04  0.14174963588E+04  0.00000000000E+00 0. -1.
         23    2    1    2    0    0 -0.12815589957E+03  0.46568231192E+02 -0.75475779174E+03  0.77229285911E+03  0.90467680904E+02 0.  0.
        -24    2    1    2    0    0  0.43754546033E+02 -0.35738165914E+02 -0.24319087436E+03  0.26224339748E+03  0.80237904680E+02 0.  0.
         11    1    4    4    0    0  0.57838182930E+02 -0.13354328781E+02 -0.97320005797E+02  0.11399463597E+03  0.00000000000E+00 0. -1.
        -12    1    4    4    0    0 -0.14083636897E+02 -0.22383837133E+02 -0.14587086857E+03  0.14824876151E+03  0.00000000000E+00 0.  1.
        -11    1    3    3    0    0 -0.12758471751E+03  0.12747761170E+02 -0.63683708370E+03  0.64961668446E+03  0.00000000000E+00 0. -1.
         11    1    3    3    0    0 -0.57118206342E+00  0.33820470022E+02 -0.11792070805E+03  0.12267617465E+03  0.00000000000E+00 0.  1.
          2    1    1    2  501    0  0.84401353538E+02 -0.10830065278E+02 -0.39674249034E+03  0.40576530462E+03  0.00000000000E+00 0. -1.
<scales pt_clust_5="13000.00000" pt_clust_6="13000.00000" pt_clust_7="13000.00000" pt_clust_8="13000.00000" pt_clust_9="85.09340"></scales>
<clustering>
<clus scale="   80.238">  5  6 -1 -1</clus>
<clus scale="   85.093">  1  9  2 -1</clus>
<clus scale="   90.468">  7  8 -1 -1</clus>
<clus scale="  125.867">  1  5  2 -1</clus>
<clus scale="   85.093">  1  5  2 -1</clus>
</clustering>
</event>
<event>
 9    1  0.9171696E-005  0.1023687E+03  0.7546771E-02  0.1282936E+00
         -2   -1    0    0    0  501 -0.00000000000E+00  0.00000000000E+00  0.39971889406E+03  0.39971889406E+03  0.00000000000E+00 0.  1.
         21   -1    0    0  501  502  0.00000000000E+00 -0.00000000000E+00 -0.94503407461E+02  0.94503407461E+02  0.00000000000E+00 0. -1.
         23    2    1    2    0    0  0.81828117342E+01 -0.40097868751E+02  0.35554093551E+03  0.37026715061E+03  0.94940025890E+02 0.  0.
        -24    2    1    2    0    0  0.77139661405E+00  0.20663597302E+02 -0.16967044755E+02  0.84323700248E+02  0.79968909643E+02 0.  0.
         11    1    4    4    0    0 -0.34676725199E+02  0.29641001200E+02 -0.13594818192E+02  0.47601295196E+02  0.00000000000E+00 0. -1.
        -12    1    4    4    0    0  0.35448121813E+02 -0.89774038978E+01 -0.33722265630E+01  0.36722405052E+02  0.00000000000E+00 0.  1.
        -11    1    3    3    0    0 -0.23427773821E+02 -0.60753778409E+02  0.24227317699E+03  0.25087083223E+03  0.00000000000E+00 0.  1.
         11    1    3    3    0    0  0.31610585555E+02  0.20655909659E+02  0.11326775852E+03  0.11939631838E+03  0.00000000000E+00 0. -1.
         -1    1    1    2    0  502 -0.89542083482E+01  0.19434271448E+02 -0.33358404153E+02  0.39631450661E+02  0.00000000000E+00 0.  1.
<scales pt_clust_5="13000.00000" pt_clust_6="13000.00000" pt_clust_7="13000.00000" pt_clust_8="13000.00000" pt_clust_9="21.39787"></scales>
<clustering>
<clus scale="   21.398">  2  9  1 -1</clus>
<clus scale="   79.969">  5  6 -1 -1</clus>
<clus scale="   88.661">  2  5  1 -1</clus>
<clus scale="   94.940">  7  8 -1 -1</clus>
<clus scale="   21.398">  2  5  1 -1</clus>
</clustering>
</event>
<event>
 9    1  0.9171696E-005  0.1462493E+03  0.7546771E-02  0.1218661E+00
          1   -1    0    0  502    0 -0.00000000000E+00  0.00000000000E+00  0.95873385525E+03  0.95873385525E+03  0.00000000000E+00 0. -1.
         21   -1    0    0  501  502  0.00000000000E+00 -0.00000000000E+00 -0.43363145631E+02  0.43363145631E+02  0.00000000000E+00 0. -1.
         23    2    1    2    0    0 -0.30136300055E+02 -0.49427426501E+02  0.35515679965E+03  0.37171816781E+03  0.93202880177E+02 0.  0.
        -24    2    1    2    0    0 -0.11414499488E+03 -0.13536473603E+01  0.33271930558E+03  0.35624455109E+03  0.56366050582E+02 0.  0.
         13    1    4    4    0    0 -0.89224779985E+02 -0.14738303961E+01  0.17367211976E+03  0.19525685320E+03  0.00000000000E+00 0. -1.
        -14    1    4    4    0    0 -0.24920214891E+02  0.12018303581E+00  0.15904718583E+03  0.16098769790E+03  0.00000000000E+00 0.  1.
        -13    1    3    3    0    0 -0.44130676940E+00  0.25976721701E+02  0.12607917574E+03  0.12872817631E+03  0.00000000000E+00 0.  1.
         13    1    3    3    0    0 -0.29694993286E+02 -0.75404148202E+02  0.22907762391E+03  0.24298999150E+03  0.00000000000E+00 0. -1.
          2    1    1    2  501    0  0.14428129493E+03  0.50781073861E+02  0.22749460439E+03  0.27413428198E+03  0.00000000000E+00 0. -1.
<scales pt_clust_5="13000.00000" pt_clust_6="13000.00000" pt_clust_7="13000.00000" pt_clust_8="13000.00000" pt_clust_9="134.95082"></scales>
<clustering>
<clus scale="   56.366">  5  6 -1 -1</clus>
<clus scale="   93.203">  7  8 -1 -1</clus>
<clus scale="  109.718">  1  7  2 -1</clus>
<clus scale="  134.951">  2  9  1 -1</clus>
<clus scale="  134.951">  2  5  1 -1</clus>
</clustering>
</event>
<event>
 9    1  0.9171696E-005  0.9188855E+02  0.7546771E-02  0.1304928E+00
         21   -1    0    0  501  502  0.00000000000E+00  0.00000000000E+00  0.24053032187E+03  0.24053032187E+03  0.00000000000E+00 0.  1.
          1   -1    0    0  502    0 -0.00000000000E+00 -0.00000000000E+00 -0.56914369039E+02  0.56914369039E+02  0.00000000000E+00 0. -1.
         23    2    1    2    0    0 -0.50784042575E+01 -0.14253168745E+02  0.21810451723E+02  0.95302679119E+02  0.91531206885E+02 0.  0.
        -24    2    1    2    0    0 -0.20920629223E+02 -0.83857191939E+01  0.13234165948E+03  0.15679240372E+03  0.81003395088E+02 0.  0.
         13    1    4    4    0    0 -0.94349362208E+01  0.32719701422E+02  0.28093078858E+02  0.44145418362E+02  0.00000000000E+00 0. -1.
        -14    1    4    4    0    0 -0.11485693002E+02 -0.41105420616E+02  0.10424858062E+03  0.11264698536E+03  0.00000000000E+00 0.  1.
        -11    1    3    3    0    0  0.26088643402E+02  0.28566174548E+02  0.16560462965E+02  0.42081974484E+02  0.00000000000E+00 0.  1.
         11    1    3    3    0    0 -0.31167047659E+02 -0.42819343294E+02  0.52499887578E+01  0.53220704635E+02  0.00000000000E+00 0. -1.
          2    1    1    2  501    0  0.25999033480E+02  0.22638887939E+02  0.29463841628E+02  0.45349608074E+02  0.00000000000E+00 0. -1.
<scales pt_clust_5="13000.00000" pt_clust_6="13000.00000" pt_clust_7="13000.00000" pt_clust_8="13000.00000" pt_clust_9="34.47418"></scales>
<clustering>
<clus scale="   34.474">  1  9  2 -1</clus>
<clus scale="   81.003">  5  6 -1 -1</clus>
<clus scale="   81.407">  1  5  2 -1</clus>
<clus scale="   91.531">  7  8 -1 -1</clus>
<clus scale="   34.474">  1  5  2 -1</clus>
</clustering>
</event>
<event>
 9    1  0.9171696E-005  0.1254679E+03  0.7546771E-02  0.1251864E+00
         -4   -1    0    0    0  501 -0.00000000000E+00  0.00000000000E+00  0.33963561379E+03  0.33963561379E+03  0.00000000000E+00 0.  1.
         21   -1    0    0  501  502  0.00000000000E+00 -0.00000000000E+00 -0.82679122034E+02  0.82679122034E+02  0.00000000000E+00 0.  1.
        -24    2    1    2    0    0 -0.22470530388E+02 -0.26263762513E+02  0.27238124211E+01  0.88094679205E+02  0.80984834339E+02 0.  0.
         23    2    1    2    0    0 -0.58790907591E+02 -0.36406232466E+02  0.15456440412E+03  0.19116512082E+03  0.88725215236E+02 0.  0.
         13    1    3    3    0    0 -0.30071370658E+02 -0.37768761518E+02 -0.27009339968E+02  0.55319717329E+02  0.00000000000E+00 0. -1.
        -14    1    3    3    0    0  0.76008402703E+01  0.11504999005E+02  0.29733152390E+02  0.32774961875E+02  0.00000000000E+00 0.  1.
        -11    1    4    4    0    0 -0.51669661197E+02 -0.63740547380E+02  0.13001232146E+03  0.15373943866E+03  0.00000000000E+00 0.  1.
         11    1    4    4    0    0 -0.71212463947E+01  0.27334314914E+02  0.24552082668E+02  0.37425682163E+02  0.00000000000E+00 0. -1.
         -3    1    1    2    0  502  0.81261437979E+02  0.62669994979E+02  0.99668275216E+02  0.14305493580E+03  0.00000000000E+00 0.  1.
<scales pt_clust_5="13000.00000" pt_clust_6="13000.00000" pt_clust_7="13000.00000" pt_clust_8="13000.00000" pt_clust_9="88.71316"></scales>
<clustering>
<clus scale="   80.985">  5  6 -1 -1</clus>
<clus scale="   88.053">  1  5  2 -1</clus>
<clus scale="   88.713">  2  9  1 -1</clus>
<clus scale="   88.725">  7  8 -1 -1</clus>
<clus scale="   88.713">  2  5  1 -1</clus>
</clustering>
</event>
<event>
 9    1  0.9171696E-005  0.1072279E+03  0.7546771E-02  0.1271422E+00
          1   -1    0    0  502    0 -0.00000000000E+00  0.00000000000E+00  0.73990491027E+03  0.73990491027E+03  0.00000000000E+00 0. -1.
         21   -1    0    0  501  502  0.00000000000E+00 -0.00000000000E+00 -0.37781112655E+02  0.37781112655E+02  0.00000000000E+00 0. -1.
        -24    2    1    2    0    0 -0.71891518933E+02 -0.42416071362E+00  0.20014065762E+03  0.22856003974E+03  0.83754632887E+02 0.  0.
         23    2    1    2    0    0  0.92152631080E+01  0.18289060566E+02  0.94458472828E+02  0.13642291554E+03  0.96277712809E+02 0.  0.
         11    1    3    3    0    0 -0.27826162278E+02 -0.25302635174E+02  0.15886970122E+03  0.16326083615E+03  0.00000000000E+00 0. -1.
        -12    1    3    3    0    0 -0.44065356655E+02  0.24878474461E+02  0.41270956399E+02  0.65299203599E+02  0.00000000000E+00 0.  1.
        -11    1    4    4    0    0 -0.86030456964E+01 -0.35805615211E+02  0.58314584369E+02  0.68968436447E+02  0.00000000000E+00 0.  1.
         11    1    4    4    0    0  0.17818308804E+02  0.54094675777E+02  0.36143888460E+02  0.67454479088E+02  0.00000000000E+00 0. -1.
          2    1    1    2  501    0  0.62676255825E+02 -0.17864899852E+02  0.40752466717E+03  0.41270306765E+03  0.00000000000E+00 0. -1.
<scales pt_clust_5="13000.00000" pt_clust_6="13000.00000" pt_clust_7="13000.00000" pt_clust_8="13000.00000" pt_clust_9="65.17263"></scales>
<clustering>
<clus scale="   65.173">  2  9  1 -1</clus>
<clus scale="   83.755">  5  6 -1 -1</clus>
<clus scale="   96.142">  1  5  2 -1</clus>
<clus scale="   96.278">  7  8 -1 -1</clus>
<clus scale="   65.173">  2  5  1 -1</clus>
</clustering>
</event>
<event>
 9    1  0.9171696E-005  0.2262246E+03  0.7546771E-02  0.1167451E+00
          1   -1    0    0  502    0 -0.00000000000E+00  0.00000000000E+00  0.78825487506E+03  0.78825487506E+03  0.00000000000E+00 0. -1.
         21   -1    0    0  501  502  0.00000000000E+00 -0.00000000000E+00 -0.14939211376E+03  0.14939211376E+03  0.00000000000E+00 0. -1.
        -24    2    1    2    0    0 -0.27411453093E+02 -0.32714465849E+02  0.25407058015E+03  0.27001358491E+03  0.80832247927E+02 0.  0.
         23    2    1    2    0    0 -0.60588563418E+02 -0.18915946121E+03  0.44580742747E+01  0.21860548131E+03  0.91193235771E+02 0.  0.
         11    1    3    3    0    0 -0.22871555950E+02  0.13015330855E+01  0.12656024383E+02  0.26172065511E+02  0.00000000000E+00 0. -1.
        -12    1    3    3    0    0 -0.45398971437E+01 -0.34015998934E+02  0.24141455577E+03  0.24384151940E+03  0.00000000000E+00 0.  1.
        -11    1    4    4    0    0 -0.55558310924E+02 -0.15923439841E+03 -0.31488846555E+02  0.17156301176E+03  0.00000000000E+00 0. -1.
         11    1    4    4    0    0 -0.50302524949E+01 -0.29925062808E+02  0.35946920829E+02  0.47042469550E+02  0.00000000000E+00 0.  1.
          2    1    1    2  501    0  0.88000016512E+02  0.22187392706E+03  0.38033410688E+03  0.44902792260E+03  0.00000000000E+00 0. -1.
<scales pt_clust_5="13000.00000" pt_clust_6="13000.00000" pt_clust_7="13000.00000" pt_clust_8="13000.00000" pt_clust_9="207.02996"></scales>
<clustering>
<clus scale="   80.832">  5  6 -1 -1</clus>
<clus scale="   91.193">  7  8 -1 -1</clus>
<clus scale="   91.408">  1  5  2 -1</clus>
<clus scale="  207.030">  2  9  1 -1</clus>
<clus scale="  207.030">  2  5  1 -1</clus>
</clustering>
</event>
<event>
 9    1  0.9171696E-005  0.1102259E+03  0.7546771E-02  0.1264081E+00
         -2   -1    0    0    0  501 -0.00000000000E+00  0.00000000000E+00  0.70449357027E+03  0.70449357027E+03  0.00000000000E+00 0.  1.
         21   -1    0    0  501  502  0.00000000000E+00 -0.00000000000E+00 -0.27619625247E+02  0.27619625247E+02  0.00000000000E+00 0. -1.
         23    2    1    2    0    0 -0.65422242179E+02 -0.55710282326E+01  0.49723992818E+03  0.50966091917E+03  0.90529554448E+02 0.  0.
        -24    2    1    2    0    0  0.53176862460E+02  0.27614190269E+02  0.16561826928E+03  0.19360281367E+03  0.80388532363E+02 0.  0.
         13    1    4    4    0    0  0.44100399065E+02 -0.18179939787E+02  0.50945318761E+02  0.69790980163E+02  0.00000000000E+00 0. -1.
        -14    1    4    4    0    0  0.90764633949E+01  0.45794130056E+02  0.11467295052E+03  0.12381183350E+03  0.00000000000E+00 0.  1.
        -11    1    3    3    0    0 -0.33383142101E+02  0.39570187104E+02  0.16787152236E+03  0.17567322478E+03  0.00000000000E+00 0. -1.
         11    1    3    3    0    0 -0.32039100078E+02 -0.45141215337E+02  0.32936840581E+03  0.33398769439E+03  0.00000000000E+00 0.  1.
         -1    1    1    2    0  502  0.12245379719E+02 -0.22043162036E+02  0.14015747566E+02  0.28849462679E+02  0.00000000000E+00 0.  1.
<scales pt_clust_5="13000.00000" pt_clust_6="13000.00000" pt_clust_7="13000.00000" pt_clust_8="13000.00000" pt_clust_9="25.21607"></scales>
<clustering>
<clus scale="   25.216">  2  9  1 -1</clus>
<clus scale="   80.389">  5  6 -1 -1</clus>
<clus scale="   90.530">  7  8 -1 -1</clus>
<clus scale="  102.061">  2  5  1 -1</clus>
<clus scale="   25.216">  2  5  1 -1</clus>
</clustering>
</event>
<event>
 9    1  0.9171696E-005  0.2751179E+03  0.7546771E-02  0.1098921E+00
         21   -1    0    0  501  502  0.00000000000E+00  0.00000000000E+00  0.94292839401E+02  0.94292839401E+02  0.00000000000E+00 0. -1.
          1   -1    0    0  502    0 -0.00000000000E+00 -0.00000000000E+00 -0.10538636235E+04  0.10538636235E+04  0.00000000000E+00 0. -1.
        -24    2    1    2    0    0  0.80815179073E+02  0.26257495372E+03 -0.64988210725E+03  0.70997709694E+03  0.79019145593E+02 0.  0.
         23    2    1    2    0    0 -0.85578131737E+02 -0.21381935797E+03 -0.20116338734E+03  0.31910992278E+03  0.91225544326E+02 0.  0.
         11    1    3    3    0    0  0.82601480197E+02  0.13490933963E+03 -0.36093196324E+03  0.39407539448E+03  0.00000000000E+00 0. -1.
        -12    1    3    3    0    0 -0.17863011249E+01  0.12766561408E+03 -0.28895014401E+03  0.31590170246E+03  0.00000000000E+00 0.  1.
        -13    1    4    4    0    0 -0.86921230012E+02 -0.17324121311E+03 -0.19997517925E+03  0.27849217307E+03  0.00000000000E+00 0.  1.
         13    1    4    4    0    0  0.13430982756E+01 -0.40578144853E+02 -0.11882080910E+01  0.40617749705E+02  0.00000000000E+00 0. -1.
          2    1    1    2  501    0  0.47629526640E+01 -0.48755595749E+02 -0.10852528947E+03  0.11906944314E+03  0.00000000000E+00 0. -1.
<scales pt_clust_5="13000.00000" pt_clust_6="13000.00000" pt_clust_7="13000.00000" pt_clust_8="13000.00000" pt_clust_9="48.98772"></scales>
<clustering>
<clus scale="   48.988">  1  9  2 -1</clus>
<clus scale="   79.019">  5  6 -1 -1</clus>
<clus scale="   91.226">  7  8 -1 -1</clus>
<clus scale="  271.315">  2  5  1 -1</clus>
<clus scale="   48.988">  1  5  2 -1</clus>
</clustering>
</event>
<event>
 9    1  0.9171696E-005  0.9995162E+02  0.7546771E-02  0.1281405E+00
         21   -1    0    0  501  502  0.00000000000E+00  0.00000000000E+00  0.14398126880E+03  0.14398126880E+03  0.00000000000E+00 0. -1.
          1   -1    0    0  502    0 -0.00000000000E+00 -0.00000000000E+00 -0.70730579914E+03  0.70730579914E+03  0.00000000000E+00 0. -1.
         23    2    1    2    0    0  0.32639140136E+02  0.80329590027E+01  0.18573869107E+02  0.92603496233E+02  0.84264921539E+02 0.  0.
        -24    2    1    2    0    0 -0.76235560783E+02  0.63704344114E+02  0.37068671089E+02  0.13404998074E+03  0.82007358045E+02 0.  0.
         13    1    4    4    0    0 -0.53974297233E+02  0.71545915272E+02 -0.56987564009E+00  0.89623476345E+02  0.00000000000E+00 0. -1.
        -14    1    4    4    0    0 -0.22261263551E+02 -0.78415711576E+01  0.37638546729E+02  0.44426504397E+02  0.00000000000E+00 0.  1.
        -11    1    3    3    0    0  0.57653696453E+02  0.21031962322E+02  0.57675285318E+01  0.61640542983E+02  0.00000000000E+00 0.  1.
         11    1    3    3    0    0 -0.25014556318E+02 -0.12999003319E+02  0.12806340575E+02  0.30962953251E+02  0.00000000000E+00 0. -1.
          2    1    1    2  501    0  0.43596420648E+02 -0.71737303117E+02 -0.61896707054E+03  0.62463359096E+03  0.00000000000E+00 0. -1.
<scales pt_clust_5="13000.00000" pt_clust_6="13000.00000" pt_clust_7="13000.00000" pt_clust_8="13000.00000" pt_clust_9="83.94579"></scales>
<clustering>
<clus scale="   82.007">  5  6 -1 -1</clus>
<clus scale="   83.946">  1  9  2 -1</clus>
<clus scale="   84.265">  7  8 -1 -1</clus>
<clus scale="   98.056">  1  5  2 -1</clus>
<clus scale="   83.946">  1  5  2 -1</clus>
</clustering>
</event>
<event>
 9    1  0.9171696E-005  0.1010491E+03  0.7546771E-02  0.1283822E+00
         21   -1    0    0  501  502  0.00000000000E+00  0.00000000000E+00  0.15395899108E+03  0.15395899108E+03  0.00000000000E+00 0.  1.
         -2   -1    0    0    0  501 -0.00000000000E+00 -0.00000000000E+00 -0.96635507707E+02  0.96635507707E+02  0.00000000000E+00 0.  1.
         23    2    1    2    0    0  0.38297994328E+02 -0.15265659125E+02  0.16059702931E+01  0.10029879412E+03  0.91419320948E+02 0.  0.
        -24    2    1    2    0    0 -0.26309173273E+02  0.46259913473E+02  0.64931749576E+02  0.11580979759E+03  0.79772331810E+02 0.  0.
         11    1    4    4    0    0 -0.27457383521E+02  0.58061591840E+02  0.17007257415E+02  0.66440222468E+02  0.00000000000E+00 0. -1.
        -12    1    4    4    0    0  0.11482102478E+01 -0.11801678367E+02  0.47924492161E+02  0.49369575124E+02  0.00000000000E+00 0.  1.
        -11    1    3    3    0    0  0.58697175167E+02  0.17430543262E+02 -0.39723212534E+01  0.61359282486E+02  0.00000000000E+00 0.  1.
         11    1    3    3    0    0 -0.20399180840E+02 -0.32696202387E+02  0.55782915465E+01  0.38939511631E+02  0.00000000000E+00 0. -1.
         -1    1    1    2    0  502 -0.11988821055E+02 -0.30994254348E+02 -0.92142364960E+01  0.34485907079E+02  0.00000000000E+00 0.  1.
<scales pt_clust_5="13000.00000" pt_clust_6="13000.00000" pt_clust_7="13000.00000" pt_clust_8="13000.00000" pt_clust_9="33.23216"></scales>
<clustering>
<clus scale="   33.232">  1  9  2 -1</clus>
<clus scale="   79.772">  5  6 -1 -1</clus>
<clus scale="   90.648">  1  5  2 -1</clus>
<clus scale="   91.419">  7  8 -1 -1</clus>
<clus scale="   33.232">  1  5  2 -1</clus>
</clustering>
</event>
<event>
 9    1  0.9171696E-005  0.2439679E+03  0.7546771E-02  0.1155420E+00
         -2   -1    0    0    0  501 -0.00000000000E+00  0.00000000000E+00  0.11112472352E+04  0.11112472352E+04  0.00000000000E+00 0.  1.
         21   -1    0    0  501  502  0.00000000000E+00 -0.00000000000E+00 -0.26345530790E+03  0.26345530790E+03  0.00000000000E+00 0.  1.
        -24    2    1    2    0    0 -0.19895561895E+02 -0.48463210193E+02  0.59130466397E+03  0.59910578354E+03  0.80882743010E+02 0.  0.
         23    2    1    2    0    0  0.20113373668E+03 -0.90131369831E+02  0.42826295386E+03  0.49000505536E+03  0.90096352708E+02 0.  0.
         13    1    3    3    0    0 -0.29253756785E+02  0.14519916079E+02  0.19309628404E+03  0.19583867126E+03  0.00000000000E+00 0. -1.
        -14    1    3    3    0    0  0.93581948899E+01 -0.62983126272E+02  0.39820837993E+03  0.40326711229E+03  0.00000000000E+00 0.  1.
        -11    1    4    4    0    0  0.17374695924E+03 -0.10560899056E+03  0.39477412011E+03  0.44405840904E+03  0.00000000000E+00 0.  1.
         11    1    4    4    0    0  0.27386777440E+02  0.15477620728E+02  0.33488833748E+02  0.45946646317E+02  0.00000000000E+00 0. -1.
         -1    1    1    2    0  502 -0.18123817478E+03  0.13859458002E+03 -0.17177569057E+03  0.28559170416E+03  0.00000000000E+00 0.  1.
<scales pt_clust_5="13000.00000" pt_clust_6="13000.00000" pt_clust_7="13000.00000" pt_clust_8="13000.00000" pt_clust_9="226.72226"></scales>
<clustering>
<clus scale="   80.883">  5  6 -1 -1</clus>
<clus scale="   90.096">  7  8 -1 -1</clus>
<clus scale="   96.367">  1  5  2 -1</clus>
<clus scale="  226.722">  2  9  1 -1</clus>
<clus scale="  226.722">  2  5  1 -1</clus>
</clustering>
</event>
<event>
 9    1  0.9171696E-005  0.1452584E+03  0.7546771E-02  0.1208726E+00
         -4   -1    0    0    0  501 -0.00000000000E+00  0.00000000000E+00  0.14574525529E+03  0.14574525529E+03  0.00000000000E+00 0.  1.
         21   -1    0    0  501  502  0.00000000000E+00 -0.00000000000E+00 -0.32532088876E+03  0.32532088876E+03  0.00000000000E+00 0.  1.
         23    2    1    2    0    0  0.73126557796E+02  0.58827766171E+02  0.12004826754E+02  0.13220810917E+03  0.92339962842E+02 0.  0.
        -24    2    1    2    0    0 -0.88463239828E+02 -0.11444897615E+03 -0.31502584811E+02  0.16869969976E+03  0.80887965160E+02 0.  0.
         13    1    4    4    0    0 -0.92538696787E+02 -0.59650895799E+02 -0.13749135035E+02  0.11095349696E+03  0.00000000000E+00 0. -1.
        -14    1    4    4    0    0  0.40754569597E+01 -0.54798080350E+02 -0.17753449776E+02  0.57746202805E+02  0.00000000000E+00 0.  1.
        -11    1    3    3    0    0  0.39426732458E+02 -0.14057224630E+02  0.27963068170E+02  0.50338911174E+02  0.00000000000E+00 0.  1.
         11    1    3    3    0    0  0.33699825337E+02  0.72884990801E+02 -0.15958241417E+02  0.81869197998E+02  0.00000000000E+00 0. -1.
         -3    1    1    2    0  502  0.15336682032E+02  0.55621209979E+02 -0.16007787541E+03  0.17015833512E+03  0.00000000000E+00 0.  1.
<scales pt_clust_5="13000.00000" pt_clust_6="13000.00000" pt_clust_7="13000.00000" pt_clust_8="13000.00000" pt_clust_9="57.69690"></scales>
<clustering>
<clus scale="   57.697">  2  9  1 -1</clus>
<clus scale="   80.888">  5  6 -1 -1</clus>
<clus scale="   92.340">  7  8 -1 -1</clus>
<clus scale="  138.261">  2  5  1 -1</clus>
<clus scale="   57.697">  2  5  1 -1</clus>
</clustering>
</event>
<event>
 9    1  0.9171696E-005  0.2184626E+03  0.7546771E-02  0.1165445E+00
          1   -1    0    0  502    0 -0.00000000000E+00  0.00000000000E+00  0.28735645055E+03  0.28735645055E+03  0.00000000000E+00 0. -1.
         21   -1    0    0  501  502  0.00000000000E+00 -0.00000000000E+00 -0.25461721262E+03  0.25461721262E+03  0.00000000000E+00 0.  1.
        -24    2    1    2    0    0  0.47306762505E+02 -0.44156759204E+02 -0.16145603556E+02  0.10751580418E+03  0.84328040842E+02 0.  0.
         23    2    1    2    0    0  0.36810355441E+00 -0.17905095899E+03 -0.51495414499E-01  0.20102833348E+03  0.91394785368E+02 0.  0.
         11    1    3    3    0    0  0.32661578364E+02 -0.71038412187E+01  0.31139768513E+02  0.45682911951E+02  0.00000000000E+00 0. -1.
        -12    1    3    3    0    0  0.14645184141E+02 -0.37052917985E+02 -0.47285372069E+02  0.61832892229E+02  0.00000000000E+00 0.  1.
        -13    1    4    4    0    0 -0.26048013186E+02 -0.16716521956E+03  0.12102795295E+02  0.16961482033E+03  0.00000000000E+00 0.  1.
         13    1    4    4    0    0  0.26416116740E+02 -0.11885739429E+02 -0.12154290710E+02  0.31413513144E+02  0.00000000000E+00 0. -1.
          2    1    1    2  501    0 -0.47674866059E+02  0.22320771819E+03  0.48936336901E+02  0.23342952552E+03  0.00000000000E+00 0. -1.
<scales pt_clust_5="13000.00000" pt_clust_6="13000.00000" pt_clust_7="13000.00000" pt_clust_8="13000.00000" pt_clust_9="198.42612"></scales>
<clustering>
<clus scale="   84.328">  5  6 -1 -1</clus>
<clus scale="   91.395">  7  8 -1 -1</clus>
<clus scale="  106.297">  1  5  2 -1</clus>
<clus scale="  198.426">  2  9  1 -1</clus>
<clus scale="  198.426">  2  5  1 -1</clus>
</clustering>
</event>
<event>
 9    1  0.9171696E-005  0.1843399E+03  0.7546771E-02  0.1165053E+00
         21   -1    0    0  501  502  0.00000000000E+00  0.00000000000E+00  0.11478751555E+03  0.11478751555E+03  0.00000000000E+00 0. -1.
          3   -1    0    0  502    0 -0.00000000000E+00 -0.00000000000E+00 -0.69062787673E+03  0.69062787673E+03  0.00000000000E+00 0. -1.
         23    2    1    2    0    0 -0.13693556945E+03  0.37754325830E+02 -0.23401723666E+03  0.28889626473E+03  0.92305175474E+02 0.  0.
        -24    2    1    2    0    0  0.11611645292E+03 -0.18167345872E+03 -0.26887655199E+03  0.35383122121E+03  0.80085308614E+02 0.  0.
         11    1    4    4    0    0  0.80845800368E+02 -0.15331468214E+03 -0.25131081995E+03  0.30528439761E+03  0.00000000000E+00 0. -1.
        -12    1    4    4    0    0  0.35270652552E+02 -0.28358776579E+02 -0.17565732034E+02  0.48546823608E+02  0.00000000000E+00 0.  1.
        -11    1    3    3    0    0 -0.11446865123E+03  0.45859548834E+02 -0.11880071981E+03  0.17123019991E+03  0.00000000000E+00 0.  1.
         11    1    3    3    0    0 -0.22466918218E+02 -0.81052230038E+01 -0.11521651685E+03  0.11766606482E+03  0.00000000000E+00 0. -1.
          4    1    1    2  501    0  0.20819116526E+02  0.14391913289E+03 -0.72946572537E+02  0.16268790634E+03  0.00000000000E+00 0. -1.
<scales pt_clust_5="13000.00000" pt_clust_6="13000.00000" pt_clust_7="13000.00000" pt_clust_8="13000.00000" pt_clust_9="145.41717"></scales>
<clustering>
<clus scale="   80.085">  5  6 -1 -1</clus>
<clus scale="   92.305">  7  8 -1 -1</clus>
<clus scale="  145.417">  1  9  2 -1</clus>
<clus scale="  178.535">  1  5  2 -1</clus>
<clus scale="  145.417">  1  5  2 -1</clus>
</clustering>
</event>
<event>
 9    1  0.9171696E-005  0.1329636E+03  0.7546771E-02  0.1239068E+00
          1   -1    0    0  502    0 -0.00000000000E+00  0.00000000000E+00  0.51162721627E+03  0.51162721627E+03  0.00000000000E+00 0. -1.
         21   -1    0    0  501  502  0.00000000000E+00 -0.00000000000E+00 -0.59883131473E+02  0.59883131473E+02  0.00000000000E+00 0. -1.
        -24    2    1    2    0    0  0.46998931982E+01  0.51758891433E+02  0.22787693034E+03  0.24716412452E+03  0.80381199479E+02 0.  0.
         23    2    1    2    0    0 -0.20789498924E+02  0.65003852051E+02  0.13168265794E+03  0.17471201899E+03  0.92337766546E+02 0.  0.
         11    1    3    3    0    0  0.26699042706E+01  0.52938147812E+02  0.23435461550E+03  0.24027413862E+03  0.00000000000E+00 0. -1.
        -12    1    3    3    0    0  0.20299889276E+01 -0.11792563793E+01 -0.64776851611E+01  0.68899858999E+01  0.00000000000E+00 0.  1.
        -11    1    4    4    0    0 -0.95647383253E+01 -0.23433523808E+02  0.35131011306E+02  0.43298986278E+02  0.00000000000E+00 0.  1.
         11    1    4    4    0    0 -0.11224760598E+02  0.88437375858E+02  0.96551646638E+02  0.13141303272E+03  0.00000000000E+00 0. -1.
          2    1    1    2  501    0  0.16089605725E+02 -0.11676274348E+03  0.92184496511E+02  0.14963420423E+03  0.00000000000E+00 0. -1.
<scales pt_clust_5="13000.00000" pt_clust_6="13000.00000" pt_clust_7="13000.00000" pt_clust_8="13000.00000" pt_clust_9="95.67165"></scales>
<clustering>
<clus scale="   80.381">  5  6 -1 -1</clus>
<clus scale="   92.338">  7  8 -1 -1</clus>
<clus scale="   95.719">  1  5  2 -1</clus>
<clus scale="   95.672">  2  9  1 -1</clus>
<clus scale="   95.672">  2  5  1 -1</clus>
</clustering>
</event>
<event>
 9    1  0.9171696E-005  0.2788685E+03  0.7546771E-02  0.1133174E+00
          1   -1    0    0  502    0 -0.00000000000E+00  0.00000000000E+00  0.22098445080E+04  0.22098445080E+04  0.00000000000E+00 0. -1.
         21   -1    0    0  501  502  0.00000000000E+00 -0.00000000000E+00 -0.56523000067E+02  0.56523000067E+02  0.00000000000E+00 0. -1.
         23    2    1    2    0    0 -0.49739886665E+02  0.35392235029E+02  0.13320831915E+03  0.17269341163E+03  0.91388683682E+02 0.  0.
        -24    2    1    2    0    0  0.26012672297E+03  0.11091235026E+03  0.10808496562E+04  0.11200809390E+04  0.79861562407E+02 0.  0.
         13    1    4    4    0    0  0.26167064254E+03  0.10816350902E+03  0.10804120498E+04  0.11168979663E+04  0.00000000000E+00 0. -1.
        -14    1    4    4    0    0 -0.15439195681E+01  0.27488412434E+01  0.43760644073E+00  0.31829727004E+01  0.00000000000E+00 0.  1.
        -11    1    3    3    0    0 -0.13858495979E+02  0.37714633780E+02  0.61534522953E+01  0.40648696007E+02  0.00000000000E+00 0.  1.
         11    1    3    3    0    0 -0.35881390686E+02 -0.23223987508E+01  0.12705486685E+03  0.13204471562E+03  0.00000000000E+00 0. -1.
          2    1    1    2  501    0 -0.21038683631E+03 -0.14630458529E+03  0.93926353256E+03  0.97359315741E+03  0.00000000000E+00 0. -1.
<scales pt_clust_5="13000.00000" pt_clust_6="13000.00000" pt_clust_7="13000.00000" pt_clust_8="13000.00000" pt_clust_9="267.18865"></scales>
<clustering>
<clus scale="   79.862">  5  6 -1 -1</clus>
<clus scale="   91.389">  7  8 -1 -1</clus>
<clus scale="  109.903">  1  7  2 -1</clus>
<clus scale="  267.189">  2  9  1 -1</clus>
<clus scale="  267.189">  2  5  1 -1</clus>
</clustering>
</event>
<event>
 9    1  0.9171696E-005  0.1166411E+03  0.7546771E-02  0.1251786E+00
         -2   -1    0    0    0  501 -0.00000000000E+00  0.00000000000E+00  0.47069991661E+02  0.47069991661E+02  0.00000000000E+00 0.  1.
         21   -1    0    0  501  502  0.00000000000E+00 -0.00000000000E+00 -0.41220900860E+03  0.41220900860E+03  0.00000000000E+00 0. -1.
         23    2    1    2    0    0  0.13826786565E+02  0.65892081659E+02 -0.12445762972E+03  0.16820607890E+03  0.90943042227E+02 0.  0.
        -24    2    1    2    0    0 -0.33178010882E+02 -0.77135398155E+02 -0.24169986416E+03  0.26866936487E+03  0.81937495846E+02 0.  0.
         11    1    4    4    0    0 -0.40301095504E+01 -0.83201056495E+02 -0.14210192971E+03  0.16471677514E+03  0.00000000000E+00 0. -1.
        -12    1    4    4    0    0 -0.29147901332E+02  0.60656583405E+01 -0.99597934458E+02  0.10395258973E+03  0.00000000000E+00 0.  1.
        -11    1    3    3    0    0  0.38529747118E+02  0.13593800949E+02 -0.94750130809E+02  0.10318391408E+03  0.00000000000E+00 0.  1.
         11    1    3    3    0    0 -0.24702960553E+02  0.52298280711E+02 -0.29707498915E+02  0.65022164814E+02  0.00000000000E+00 0. -1.
         -1    1    1    2    0  502  0.19351224318E+02  0.11243316495E+02  0.10184769501E+01  0.22403556497E+02  0.00000000000E+00 0.  1.
<scales pt_clust_5="13000.00000" pt_clust_6="13000.00000" pt_clust_7="13000.00000" pt_clust_8="13000.00000" pt_clust_9="22.38041"></scales>
<clustering>
<clus scale="   22.380">  2  9  1 -1</clus>
<clus scale="   81.937">  5  6 -1 -1</clus>
<clus scale="   90.943">  7  8 -1 -1</clus>
<clus scale="  109.765">  2  5  1 -1</clus>
<clus scale="   22.380">  2  5  1 -1</clus>
</clustering>
</event>
<event>
 9    1  0.9171696E-005  0.3794660E+03  0.7546771E-02  0.1051371E+00
          1   -1    0    0  502    0 -0.00000000000E+00  0.00000000000E+00  0.99645942698E+03  0.99645942698E+03  0.00000000000E+00 0. -1.
         21   -1    0    0  501  502  0.00000000000E+00 -0.00000000000E+00 -0.34834948654E+03  0.34834948654E+03  0.00000000000E+00 0.  1.
        -24    2    1    2    0    0  0.32807858070E+03  0.33833394315E+02  0.20933032165E+03  0.39876363775E+03  0.80081218426E+02 0.  0.
         23    2    1    2    0    0 -0.43844258500E+03 -0.18672229854E+03  0.18720071876E+02  0.48560499362E+03  0.91458469418E+02 0.  0.
         11    1    3    3    0    0  0.13690719853E+03 -0.10840151593E+02  0.12275292415E+03  0.18419926787E+03  0.00000000000E+00 0. -1.
        -12    1    3    3    0    0  0.19117138217E+03  0.44673545908E+02  0.86577397502E+02  0.21456436988E+03  0.00000000000E+00 0.  1.
        -13    1    4    4    0    0 -0.36852124895E+03 -0.18826867714E+03  0.29334571844E+02  0.41486566841E+03  0.00000000000E+00 0.  1.
         13    1    4    4    0    0 -0.69921336050E+02  0.15463786071E+01 -0.10614499968E+02  0.70739325212E+02  0.00000000000E+00 0. -1.
          2    1    1    2  501    0  0.11036400430E+03  0.15288890422E+03  0.42005954691E+03  0.46044028215E+03  0.00000000000E+00 0. -1.
<scales pt_clust_5="13000.00000" pt_clust_6="13000.00000" pt_clust_7="13000.00000" pt_clust_8="13000.00000" pt_clust_9="188.56104"></scales>
<clustering>
<clus scale="   80.081">  5  6 -1 -1</clus>
<clus scale="   91.458">  7  8 -1 -1</clus>
<clus scale="  188.561">  2  9  1 -1</clus>
<clus scale="  376.886">  1  5  2 -1</clus>
<clus scale="  188.561">  2  5  1 -1</clus>
</clustering>
</event>
<event>
 9    1  0.9171696E-005  0.1157923E+03  0.7546771E-02  0.1253806E+00
         21   -1    0    0  501  502  0.00000000000E+00  0.00000000000E+00  0.77176083118E+02  0.77176083118E+02  0.00000000000E+00 0. -1.
          1   -1    0    0  502    0 -0.00000000000E+00 -0.00000000000E+00 -0.38415015547E+03  0.38415015547E+03  0.00000000000E+00 0. -1.
         23    2    1    2    0    0 -0.61135873673E+02  0.56494927837E+02 -0.26911610983E+03  0.29635851215E+03  0.92063104619E+02 0.  0.
        -24    2    1    2    0    0  0.14684715949E+02 -0.47857431643E+02 -0.59681364622E+02  0.11292373281E+03  0.81755302594E+02 0.  0.
         13    1    4    4    0    0 -0.10653022467E+02 -0.64174661445E+02 -0.46856869844E+02  0.80171318505E+02  0.00000000000E+00 0. -1.
        -14    1    4    4    0    0  0.25337738416E+02  0.16317229801E+02 -0.12824494779E+02  0.32752414304E+02  0.00000000000E+00 0.  1.
        -13    1    3    3    0    0 -0.51428879785E+02  0.19485473673E+02 -0.24507752420E+03  0.25117246312E+03  0.00000000000E+00 0. -1.
         13    1    3    3    0    0 -0.97069938873E+01  0.37009454165E+02 -0.24038585626E+02  0.45186049028E+02  0.00000000000E+00 0.  1.
          2    1    1    2  501    0  0.46451157724E+02 -0.86374961939E+01  0.21823402095E+02  0.52043993634E+02  0.00000000000E+00 0. -1.
<scales pt_clust_5="13000.00000" pt_clust_6="13000.00000" pt_clust_7="13000.00000" pt_clust_8="13000.00000" pt_clust_9="47.24740"></scales>
<clustering>
<clus scale="   47.247">  1  9  2 -1</clus>
<clus scale="   81.755">  5  6 -1 -1</clus>
<clus scale="   92.063">  7  8 -1 -1</clus>
<clus scale="  107.778">  1  5  2 -1</clus>
<clus scale="   47.247">  1  5  2 -1</clus>
</clustering>
</event>
<event>
 9    1  0.9171696E-005  0.1766362E+03  0.7546771E-02  0.1193772E+00
         21   -1    0    0  501  502  0.00000000000E+00  0.00000000000E+00  0.22954560172E+03  0.22954560172E+03  0.00000000000E+00 0. -1.
          1   -1    0    0  502    0 -0.00000000000E+00 -0.00000000000E+00 -0.28762401355E+03  0.28762401355E+03  0.00000000000E+00 0. -1.
         23    2    1    2    0    0  0.48882014784E+02 -0.20257491391E+02 -0.49658681256E+02  0.11735254982E+03  0.92226997122E+02 0.  0.
        -24    2    1    2    0    0  0.14377166353E+03 -0.13974108643E+01  0.83082065052E+02  0.18544133651E+03  0.82544628910E+02 0.  0.
         11    1    4    4    0    0  0.15108705254E+03 -0.11145574264E+02  0.68022926225E+02  0.16606817806E+03  0.00000000000E+00 0. -1.
        -12    1    4    4    0    0 -0.73153890142E+01  0.97481633997E+01  0.15059138827E+02  0.19373158449E+02  0.00000000000E+00 0.  1.
        -13    1    3    3    0    0 -0.17450759056E+02 -0.26740146218E+02  0.34708460818E+01  0.32118704581E+02  0.00000000000E+00 0. -1.
         13    1    3    3    0    0  0.66332773840E+02  0.64826548277E+01 -0.53129527338E+02  0.85233845238E+02  0.00000000000E+00 0.  1.
          2    1    1    2  501    0 -0.19265367831E+03  0.21654902255E+02 -0.91501795621E+02  0.21437572894E+03  0.00000000000E+00 0. -1.
<scales pt_clust_5="13000.00000" pt_clust_6="13000.00000" pt_clust_7="13000.00000" pt_clust_8="13000.00000" pt_clust_9="156.16254"></scales>
<clustering>
<clus scale="   82.545">  5  6 -1 -1</clus>
<clus scale="   92.227">  7  8 -1 -1</clus>
<clus scale="  106.328">  2  7  1 -1</clus>
<clus scale="  156.163">  1  9  2 -1</clus>
<clus scale="  156.163">  1  5  2 -1</clus>
</clustering>
</event>
<event>
 9    1  0.9171696E-005  0.1605883E+03  0.7546771E-02  0.1190098E+00
          1   -1    0    0  502    0 -0.00000000000E+00  0.00000000000E+00  0.31668721066E+03  0.31668721066E+03  0.00000000000E+00 0. -1.
         21   -1    0    0  501  502  0.00000000000E+00 -0.00000000000E+00 -0.14284995130E+03  0.14284995130E+03  0.00000000000E+00 0. -1.
        -24    2    1    2    0    0  0.76637761109E+02  0.86511434213E+02  0.21308996239E+02  0.14113128120E+03  0.78143397256E+02 0.  0.
         23    2    1    2    0    0 -0.29116094124E+02 -0.15770848536E+03  0.64304357381E+02  0.19547994180E+03  0.91420150829E+02 0.  0.
         13    1    3    3    0    0 -0.12394310943E+02  0.22855902234E+02 -0.90853548272E+01  0.27541875082E+02  0.00000000000E+00 0. -1.
        -14    1    3    3    0    0  0.89032072052E+02  0.63655531979E+02  0.30394351066E+02  0.11358940612E+03  0.00000000000E+00 0.  1.
        -13    1    4    4    0    0 -0.46719763615E+02 -0.11404926845E+03  0.10060026235E+02  0.12365749502E+03  0.00000000000E+00 0.  1.
         13    1    4    4    0    0  0.17603669490E+02 -0.43659216908E+02  0.54244331146E+02  0.71822446784E+02  0.00000000000E+00 0. -1.
          2    1    1    2  501    0 -0.47521666985E+02  0.71197051145E+02  0.88223905744E+02  0.12292593896E+03  0.00000000000E+00 0. -1.
<scales pt_clust_5="13000.00000" pt_clust_6="13000.00000" pt_clust_7="13000.00000" pt_clust_8="13000.00000" pt_clust_9="85.59986"></scales>
<clustering>
<clus scale="   78.143">  5  6 -1 -1</clus>
<clus scale="   85.600">  2  9  1 -1</clus>
<clus scale="   91.420">  7  8 -1 -1</clus>
<clus scale="  153.419">  1  5  2 -1</clus>
<clus scale="   85.600">  2  5  1 -1</clus>
</clustering>
</event>
<event>
 9    1  0.9171696E-005  0.1164386E+03  0.7546771E-02  0.1252626E+00
         21   -1    0    0  501  502  0.00000000000E+00  0.00000000000E+00  0.20543509290E+03  0.20543509290E+03  0.00000000000E+00 0.  1.
          1   -1    0    0  502    0 -0.00000000000E+00 -0.00000000000E+00 -0.36894477221E+03  0.36894477221E+03  0.00000000000E+00 0. -1.
         23    2    1    2    0    0  0.45372704822E+02 -0.39028624891E+02 -0.11498088734E+03  0.15882780722E+03  0.91781000155E+02 0.  0.
        -24    2    1    2    0    0 -0.14822530098E+03  0.73607552206E+02  0.11663754174E+03  0.21793050911E+03  0.80626168617E+02 0.  0.
         11    1    4    4    0    0 -0.21150274480E+02  0.48046137825E+02  0.19694278305E+02  0.56068084223E+02  0.00000000000E+00 0. -1.
        -12    1    4    4    0    0 -0.12707502650E+03  0.25561414382E+02  0.96943263437E+02  0.16186242489E+03  0.00000000000E+00 0.  1.
        -11    1    3    3    0    0 -0.15142924395E+02 -0.31308108645E+02 -0.80176830276E+01  0.35690181666E+02  0.00000000000E+00 0. -1.
         11    1    3    3    0    0  0.60515629217E+02 -0.77205162453E+01 -0.10696320431E+03  0.12313762555E+03  0.00000000000E+00 0.  1.
          2    1    1    2  501    0  0.10285259616E+03 -0.34578927316E+02 -0.16516633371E+03  0.19762154878E+03  0.00000000000E+00 0. -1.
<scales pt_clust_5="13000.00000" pt_clust_6="13000.00000" pt_clust_7="13000.00000" pt_clust_8="13000.00000" pt_clust_9="108.50977"></scales>
<clustering>
<clus scale="   80.626">  5  6 -1 -1</clus>
<clus scale="   91.781">  7  8 -1 -1</clus>
<clus scale="  108.510">  1  9  2 -1</clus>
<clus scale="  108.510">  1  5  2 -1</clus>
<clus scale="  108.510">  1  5  2 -1</clus>
</clustering>
</event>
<event>
 9    1  0.9171696E-005  0.1348513E+03  0.7546771E-02  0.1223325E+00
         21   -1    0    0  501  502  0.00000000000E+00  0.00000000000E+00  0.20845609244E+03  0.20845609244E+03  0.00000000000E+00 0.  1.
          1   -1    0    0  502    0 -0.00000000000E+00 -0.00000000000E+00 -0.10457837997E+03  0.10457837997E+03  0.00000000000E+00 0. -1.
         23    2    1    2    0    0  0.10182241742E+03 -0.27804514290E+02  0.50985257117E+01  0.13968958931E+03  0.91358035736E+02 0.  0.
        -24    2    1    2    0    0 -0.87956434581E+02  0.12324490925E+02  0.94906658213E+02  0.15220503729E+03  0.79188838504E+02 0.  0.
         11    1    4    4    0    0 -0.88568892698E+02  0.20171174779E+02  0.44433671371E+02  0.10112208561E+03  0.00000000000E+00 0. -1.
        -12    1    4    4    0    0  0.61245811657E+00 -0.78466838538E+01  0.50472986842E+02  0.51082951688E+02  0.00000000000E+00 0.  1.
        -13    1    3    3    0    0  0.93215091245E+01  0.29375345170E+02 -0.84026968123E-01  0.30818963266E+02  0.00000000000E+00 0.  1.
         13    1    3    3    0    0  0.92500908295E+02 -0.57179859460E+02  0.51825526798E+01  0.10887062605E+03  0.00000000000E+00 0. -1.
          2    1    1    2  501    0 -0.13865982838E+02  0.15480023365E+02  0.38725285400E+01  0.21139845807E+02  0.00000000000E+00 0. -1.
<scales pt_clust_5="13000.00000" pt_clust_6="13000.00000" pt_clust_7="13000.00000" pt_clust_8="13000.00000" pt_clust_9="20.78213"></scales>
<clustering>
<clus scale="   20.782">  1  9  2 -1</clus>
<clus scale="   79.189">  5  6 -1 -1</clus>
<clus scale="   91.358">  7  8 -1 -1</clus>
<clus scale="  126.923">  1  5  2 -1</clus>
<clus scale="   20.782">  1  5  2 -1</clus>
</clustering>
</event>
<event>
 9    1  0.9171696E-005  0.1400540E+03  0.7546771E-02  0.1237052E+00
         21   -1    0    0  501  502  0.00000000000E+00  0.00000000000E+00  0.80945168644E+02  0.80945168644E+02  0.00000000000E+00 0. -1.
          1   -1    0    0  502    0 -0.00000000000E+00 -0.00000000000E+00 -0.48665919445E+03  0.48665919445E+03  0.00000000000E+00 0. -1.
        -24    2    1    2    0    0 -0.20479146409E+02 -0.13006400014E+02 -0.47011783841E+02  0.97431925856E+02  0.81818766045E+02 0.  0.
         23    2    1    2    0    0  0.12162758362E+03 -0.10748197396E+02 -0.32847268776E+03  0.36196378141E+03  0.90634869685E+02 0.  0.
         11    1    3    3    0    0 -0.16858418840E+02 -0.39087967276E+02  0.11034031305E+01  0.42582777857E+02  0.00000000000E+00 0. -1.
        -12    1    3    3    0    0 -0.36207275690E+01  0.26081567262E+02 -0.48115186971E+02  0.54849147999E+02  0.00000000000E+00 0.  1.
        -11    1    4    4    0    0  0.42489532566E+02  0.32706220778E+02 -0.69995802756E+02  0.88172953102E+02  0.00000000000E+00 0.  1.
         11    1    4    4    0    0  0.79138051053E+02 -0.43454418174E+02 -0.25847688501E+03  0.27379082831E+03  0.00000000000E+00 0. -1.
          2    1    1    2  501    0 -0.10114843721E+03  0.23754597410E+02 -0.30229554202E+02  0.10820865583E+03  0.00000000000E+00 0. -1.
<scales pt_clust_5="13000.00000" pt_clust_6="13000.00000" pt_clust_7="13000.00000" pt_clust_8="13000.00000" pt_clust_9="106.77284"></scales>
<clustering>
<clus scale="   81.819">  5  6 -1 -1</clus>
<clus scale="   85.340">  2  5  1 -1</clus>
<clus scale="   90.635">  7  8 -1 -1</clus>
<clus scale="  106.773">  1  9  2 -1</clus>
<clus scale="  106.773">  1  5  2 -1</clus>
</clustering>
</event>
<event>
 9    1  0.9171696E-005  0.9536468E+02  0.7546771E-02  0.1295509E+00
         -2   -1    0    0    0  501 -0.00000000000E+00  0.00000000000E+00  0.20000277489E+03  0.20000277489E+03  0.00000000000E+00 0.  1.
         21   -1    0    0  501  502  0.00000000000E+00 -0.00000000000E+00 -0.14135194388E+03  0.14135194388E+03  0.00000000000E+00 0. -1.
        -24    2    1    2    0    0 -0.10152435675E+02  0.51341298257E+02  0.10570297446E+03  0.14301188173E+03  0.80871989270E+02 0.  0.
         23    2    1    2    0    0  0.20597008644E+02  0.37580294652E+02 -0.64644530802E+01  0.10003973739E+03  0.90164541773E+02 0.  0.
         11    1    3    3    0    0 -0.22893336596E+02  0.59258018249E+02  0.11033203572E+03  0.12731369012E+03  0.00000000000E+00 0. -1.
        -12    1    3    3    0    0  0.12740900921E+02 -0.79167199916E+01 -0.46290612515E+01  0.15698191608E+02  0.00000000000E+00 0.  1.
        -11    1    4    4    0    0  0.49233538001E+02 -0.26399940619E+01 -0.10810548584E+02  0.50475526678E+02  0.00000000000E+00 0.  1.
         11    1    4    4    0    0 -0.28636529357E+02  0.40220288714E+02  0.43460955041E+01  0.49564210717E+02  0.00000000000E+00 0. -1.
         -1    1    1    2    0  502 -0.10444572969E+02 -0.88921592909E+02 -0.40587690378E+02  0.98303099647E+02  0.00000000000E+00 0.  1.
<scales pt_clust_5="13000.00000" pt_clust_6="13000.00000" pt_clust_7="13000.00000" pt_clust_8="13000.00000" pt_clust_9="89.53289"></scales>
<clustering>
<clus scale="   80.872">  5  6 -1 -1</clus>
<clus scale="   89.533">  2  9  1 -1</clus>
<clus scale="   86.632">  1  5  2 -1</clus>
<clus scale="   90.165">  7  8 -1 -1</clus>
<clus scale="   89.533">  2  5  1 -1</clus>
</clustering>
</event>
<event>
 9    1  0.9171696E-005  0.1875901E+03  0.7546771E-02  0.1161853E+00
         21   -1    0    0  501  502  0.00000000000E+00  0.00000000000E+00  0.70972484807E+02  0.70972484807E+02  0.00000000000E+00 0. -1.
          1   -1    0    0  502    0 -0.00000000000E+00 -0.00000000000E+00 -0.10764298258E+04  0.10764298258E+04  0.00000000000E+00 0. -1.
        -24    2    1    2    0    0  0.15591816082E+03 -0.58308996422E+02 -0.67295236669E+03  0.69785346551E+03  0.80150855024E+02 0.  0.
         23    2    1    2    0    0 -0.17055843206E+03 -0.22386188152E+02 -0.30719398050E+03  0.36371938186E+03  0.91281580414E+02 0.  0.
         11    1    3    3    0    0  0.79472252436E+02  0.11941746094E+02 -0.26675932296E+03  0.27860183164E+03  0.00000000000E+00 0. -1.
        -12    1    3    3    0    0  0.76445908381E+02 -0.70250742516E+02 -0.40619304372E+03  0.41925163387E+03  0.00000000000E+00 0.  1.
        -13    1    4    4    0    0 -0.57551793178E+02  0.25973660076E+02 -0.15964470199E+03  0.17167781100E+03  0.00000000000E+00 0.  1.
         13    1    4    4    0    0 -0.11300663888E+03 -0.48359848228E+02 -0.14754927850E+03  0.19204157086E+03  0.00000000000E+00 0. -1.
          2    1    1    2  501    0  0.14640271245E+02  0.80695184574E+02 -0.25310993848E+02  0.85829463270E+02  0.00000000000E+00 0. -1.
<scales pt_clust_5="13000.00000" pt_clust_6="13000.00000" pt_clust_7="13000.00000" pt_clust_8="13000.00000" pt_clust_9="82.01250"></scales>
<clustering>
<clus scale="   80.151">  5  6 -1 -1</clus>
<clus scale="   82.013">  1  9  2 -1</clus>
<clus scale="   91.282">  7  8 -1 -1</clus>
<clus scale="  182.433">  2  5  1 -1</clus>
<clus scale="   82.013">  1  5  2 -1</clus>
</clustering>
</event>
<event>
 9    1  0.9171696E-005  0.1276899E+03  0.7546771E-02  0.1234098E+00
         -2   -1    0    0    0  501 -0.00000000000E+00  0.00000000000E+00  0.14621776878E+03  0.14621776878E+03  0.00000000000E+00 0.  1.
         21   -1    0    0  501  502  0.00000000000E+00 -0.00000000000E+00 -0.76077879367E+03  0.76077879367E+03  0.00000000000E+00 0.  1.
         23    2    1    2    0    0 -0.78132143849E+02 -0.12612167367E+02  0.73511633024E+02  0.14164891345E+03  0.91633813757E+02 0.  0.
        -24    2    1    2    0    0  0.14509676092E+03 -0.50880328536E+01 -0.15229016896E+03  0.22510656163E+03  0.80010689396E+02 0.  0.
         13    1    4    4    0    0  0.38671223794E+02  0.26636706834E+02 -0.79473256656E+02  0.92309134024E+02  0.00000000000E+00 0. -1.
        -14    1    4    4    0    0  0.10642553712E+03 -0.31724739688E+02 -0.72816912308E+02  0.13279742760E+03  0.00000000000E+00 0.  1.
        -13    1    3    3    0    0  0.55680627221E+01  0.19694695396E+02 -0.64599246008E+01  0.21461942481E+02  0.00000000000E+00 0. -1.
         13    1    3    3    0    0 -0.83700206571E+02 -0.32306862763E+02  0.79971557625E+02  0.12018697097E+03  0.00000000000E+00 0.  1.
         -1    1    1    2    0  502 -0.66964617067E+02  0.17700200220E+02 -0.53578248894E+03  0.54024108737E+03  0.00000000000E+00 0.  1.
<scales pt_clust_5="13000.00000" pt_clust_6="13000.00000" pt_clust_7="13000.00000" pt_clust_8="13000.00000" pt_clust_9="69.26440"></scales>
<clustering>
<clus scale="   69.264">  2  9  1 -1</clus>
<clus scale="   80.011">  5  6 -1 -1</clus>
<clus scale="   91.634">  7  8 -1 -1</clus>
<clus scale="  119.623">  2  5  1 -1</clus>
<clus scale="   69.264">  2  5  1 -1</clus>
</clustering>
</event>
<event>
 9    1  0.9171696E-005  0.1162314E+03  0.7546771E-02  0.1257087E+00
          1   -1    0    0  502    0 -0.00000000000E+00  0.00000000000E+00  0.25626203492E+03  0.25626203492E+03  0.00000000000E+00 0. -1.
         21   -1    0    0  501  502  0.00000000000E+00 -0.00000000000E+00 -0.35100852102E+03  0.35100852102E+03  0.00000000000E+00 0.  1.
         23    2    1    2    0    0 -0.67740627465E+02 -0.18964582070E+02  0.23206253500E+03  0.25976590238E+03  0.93149642543E+02 0.  0.
        -24    2    1    2    0    0  0.46313303559E+02  0.24686580312E+02 -0.29908191354E+03  0.31199882351E+03  0.71686299462E+02 0.  0.
         13    1    4    4    0    0  0.32320805248E+02  0.40454733606E+02 -0.10815219424E+03  0.11990878634E+03  0.00000000000E+00 0. -1.
        -14    1    4    4    0    0  0.13992498312E+02 -0.15768153294E+02 -0.19092971930E+03  0.19209003717E+03  0.00000000000E+00 0.  1.
        -13    1    3    3    0    0 -0.28979153487E+02 -0.41972699594E+02  0.19454371603E+03  0.20111876166E+03  0.00000000000E+00 0. -1.
         13    1    3    3    0    0 -0.38761473978E+02  0.23008117524E+02  0.37518818976E+02  0.58647140717E+02  0.00000000000E+00 0.  1.
          2    1    1    2  501    0  0.21427323906E+02 -0.57219982425E+01 -0.27727107555E+02  0.35505830043E+02  0.00000000000E+00 0. -1.
<scales pt_clust_5="13000.00000" pt_clust_6="13000.00000" pt_clust_7="13000.00000" pt_clust_8="13000.00000" pt_clust_9="22.17818"></scales>
<clustering>
<clus scale="   22.178">  2  9  1 -1</clus>
<clus scale="   71.686">  5  6 -1 -1</clus>
<clus scale="   93.150">  7  8 -1 -1</clus>
<clus scale="   99.859">  2  5  1 -1</clus>
<clus scale="   22.178">  2  5  1 -1</clus>
</clustering>
</event>
<event>
 9    1  0.9171696E-005  0.1441252E+03  0.7546771E-02  0.1207908E+00
          3   -1    0    0  502    0 -0.00000000000E+00  0.00000000000E+00  0.60150297004E+03  0.60150297004E+03  0.00000000000E+00 0. -1.
         21   -1    0    0  501  502  0.00000000000E+00 -0.00000000000E+00 -0.14013643117E+03  0.14013643117E+03  0.00000000000E+00 0.  1.
        -24    2    1    2    0    0  0.73633158227E+02 -0.97735322806E+02  0.33099811285E+02  0.15562442286E+03  0.90273629415E+02 0.  0.
         23    2    1    2    0    0  0.44106552649E+02  0.12549417164E+03  0.22246670832E+02  0.16235771157E+03  0.90393235600E+02 0.  0.
         11    1    3    3    0    0  0.80771079000E+02 -0.50696264921E+02  0.46640547718E+02  0.10615752056E+03  0.00000000000E+00 0. -1.
        -12    1    3    3    0    0 -0.71379207735E+01 -0.47039057885E+02 -0.13540736434E+02  0.49466902297E+02  0.00000000000E+00 0.  1.
        -11    1    4    4    0    0  0.67638439741E+02  0.61176503117E+02  0.22228990688E+02  0.93870395179E+02  0.00000000000E+00 0.  1.
         11    1    4    4    0    0 -0.23531887091E+02  0.64317668522E+02  0.17680144090E-01  0.68487316394E+02  0.00000000000E+00 0. -1.
          4    1    1    2  501    0 -0.11773971088E+03 -0.27758848833E+02  0.40602005675E+03  0.42365726677E+03  0.00000000000E+00 0. -1.
<scales pt_clust_5="13000.00000" pt_clust_6="13000.00000" pt_clust_7="13000.00000" pt_clust_8="13000.00000" pt_clust_9="120.96780"></scales>
<clustering>
<clus scale="   90.274">  5  6 -1 -1</clus>
<clus scale="   90.393">  7  8 -1 -1</clus>
<clus scale="  120.968">  2  9  1 -1</clus>
<clus scale="  144.050">  1  5  2 -1</clus>
<clus scale="  120.968">  2  5  1 -1</clus>
</clustering>
</event>
<event>
 9    1  0.9171696E-005  0.1092430E+03  0.7546771E-02  0.1268197E+00
         21   -1    0    0  501  502  0.00000000000E+00  0.00000000000E+00  0.13903400735E+03  0.13903400735E+03  0.00000000000E+00 0.  1.
          1   -1    0    0  502    0 -0.00000000000E+00 -0.00000000000E+00 -0.21045417101E+03  0.21045417101E+03  0.00000000000E+00 0. -1.
        -24    2    1    2    0    0 -0.65816928076E+02 -0.18841271278E+02 -0.75481231919E+02  0.12876543583E+03  0.78716323382E+02 0.  0.
         23    2    1    2    0    0  0.15211211066E+02 -0.19114017043E+02  0.77373820849E+02  0.12389143458E+03  0.93625065130E+02 0.  0.
         11    1    3    3    0    0 -0.62245682792E+02  0.28621391226E+01 -0.84502241852E+02  0.10499212230E+03  0.00000000000E+00 0. -1.
        -12    1    3    3    0    0 -0.35712452836E+01 -0.21703410400E+02  0.90210099331E+01  0.23773313528E+02  0.00000000000E+00 0.  1.
        -11    1    4    4    0    0 -0.34309401987E+02 -0.27326474923E+02  0.21723144554E+02  0.48946565822E+02  0.00000000000E+00 0.  1.
         11    1    4    4    0    0  0.49520613053E+02  0.82124578797E+01  0.55650676295E+02  0.74944868762E+02  0.00000000000E+00 0. -1.
          2    1    1    2  501    0  0.50605717010E+02  0.37955288321E+02 -0.73312752596E+02  0.96831307948E+02  0.00000000000E+00 0. -1.
<scales pt_clust_5="13000.00000" pt_clust_6="13000.00000" pt_clust_7="13000.00000" pt_clust_8="13000.00000" pt_clust_9="63.25778"></scales>
<clustering>
<clus scale="   63.258">  1  9  2 -1</clus>
<clus scale="   78.716">  5  6 -1 -1</clus>
<clus scale="   93.625">  7  8 -1 -1</clus>
<clus scale="   96.771">  2  5  1 -1</clus>
<clus scale="   63.258">  1  5  2 -1</clus>
</clustering>
</event>
<event>
 9    1  0.9171696E-005  0.1026285E+03  0.7546771E-02  0.1279952E+00
         21   -1    0    0  501  502  0.00000000000E+00  0.00000000000E+00  0.35639546119E+03  0.35639546119E+03  0.00000000000E+00 0.  1.
         -4   -1    0    0    0  501 -0.00000000000E+00 -0.00000000000E+00 -0.40462612162E+02  0.40462612162E+02  0.00000000000E+00 0.  1.
        -24    2    1    2    0    0 -0.37347120672E+02  0.22777219547E+02  0.84871138907E+02  0.12537975066E+03  0.81261076194E+02 0.  0.
         23    2    1    2    0    0  0.24714989169E+02 -0.45589219433E+02  0.13204315416E+03  0.16908382816E+03  0.92004014951E+02 0.  0.
         11    1    3    3    0    0 -0.33893983233E+02  0.49327801772E+02  0.76897171168E+02  0.97443363349E+02  0.00000000000E+00 0. -1.
        -12    1    3    3    0    0 -0.34531374393E+01 -0.26550582225E+02  0.79739677392E+01  0.27936387314E+02  0.00000000000E+00 0.  1.
        -11    1    4    4    0    0  0.40404121652E+02  0.12997504867E+02  0.36834911035E+02  0.56198210383E+02  0.00000000000E+00 0. -1.
         11    1    4    4    0    0 -0.15689132484E+02 -0.58586724300E+02  0.95208243128E+02  0.11288561778E+03  0.00000000000E+00 0.  1.
         -3    1    1    2    0  502  0.12632131503E+02  0.22811999886E+02  0.99018555961E+02  0.10239449453E+03  0.00000000000E+00 0.  1.
<scales pt_clust_5="13000.00000" pt_clust_6="13000.00000" pt_clust_7="13000.00000" pt_clust_8="13000.00000" pt_clust_9="26.07601"></scales>
<clustering>
<clus scale="   26.076">  1  9  2 -1</clus>
<clus scale="   81.261">  5  6 -1 -1</clus>
<clus scale="   92.004">  7  8 -1 -1</clus>
<clus scale="   93.119">  2  5  1 -1</clus>
<clus scale="   26.076">  1  5  2 -1</clus>
</clustering>
</event>
<event>
 9    1  0.9171696E-005  0.2998476E+03  0.7546771E-02  0.1085797E+00
          1   -1    0    0  502    0 -0.00000000000E+00  0.00000000000E+00  0.34597688906E+03  0.34597688906E+03  0.00000000000E+00 0. -1.
         21   -1    0    0  501  502  0.00000000000E+00 -0.00000000000E+00 -0.52828760754E+03  0.52828760754E+03  0.00000000000E+00 0.  1.
        -24    2    1    2    0    0  0.11895839758E+03 -0.24581604162E+03  0.73793082473E+02  0.29386290392E+03  0.79582413936E+02 0.  0.
         23    2    1    2    0    0 -0.13286463267E+03  0.30216718543E+03 -0.33704993414E+03  0.48079681738E+03  0.92762616021E+02 0.  0.
         13    1    3    3    0    0  0.83382818814E+02 -0.82645567572E+02  0.32955010374E+02  0.12193857889E+03  0.00000000000E+00 0. -1.
        -14    1    3    3    0    0  0.35575578771E+02 -0.16317047405E+03  0.40838072099E+02  0.17192432504E+03  0.00000000000E+00 0.  1.
        -13    1    4    4    0    0 -0.18669046182E+02  0.13455628107E+03 -0.99163104969E+02  0.16818813111E+03  0.00000000000E+00 0.  1.
         13    1    4    4    0    0 -0.11419558649E+03  0.16761090436E+03 -0.23788682918E+03  0.31260868627E+03  0.00000000000E+00 0. -1.
          2    1    1    2  501    0  0.13906235089E+02 -0.56351143804E+02  0.80946133190E+02  0.99604775291E+02  0.00000000000E+00 0. -1.
<scales pt_clust_5="13000.00000" pt_clust_6="13000.00000" pt_clust_7="13000.00000" pt_clust_8="13000.00000" pt_clust_9="58.04169"></scales>
<clustering>
<clus scale="   58.042">  2  9  1 -1</clus>
<clus scale="   79.582">  5  6 -1 -1</clus>
<clus scale="   92.763">  7  8 -1 -1</clus>
<clus scale="  296.036">  1  5  2 -1</clus>
<clus scale="   58.042">  2  5  1 -1</clus>
</clustering>
</event>
<event>
 9    1  0.9171696E-005  0.1227672E+03  0.7546771E-02  0.1244659E+00
         21   -1    0    0  501  502  0.00000000000E+00  0.00000000000E+00  0.89586730041E+02  0.89586730041E+02  0.00000000000E+00 0. -1.
          1   -1    0    0  502    0 -0.00000000000E+00 -0.00000000000E+00 -0.51940188667E+03  0.51940188667E+03  0.00000000000E+00 0. -1.
         23    2    1    2    0    0 -0.42920791062E+02  0.37893799872E+02 -0.43877885575E+01  0.10867743769E+03  0.92268078993E+02 0.  0.
        -24    2    1    2    0    0 -0.65892765302E+02  0.40689061967E+02 -0.10528441733E+03  0.15316975952E+03  0.79866829253E+02 0.  0.
         13    1    4    4    0    0 -0.43578653810E+02  0.49970321313E+02 -0.11010415157E+03  0.12852648082E+03  0.00000000000E+00 0. -1.
        -14    1    4    4    0    0 -0.22314111492E+02 -0.92812593460E+01  0.48197342367E+01  0.24643278695E+02  0.00000000000E+00 0.  1.
        -13    1    3    3    0    0  0.15330252193E+02  0.26266526358E+02 -0.31143073564E+02  0.43529737769E+02  0.00000000000E+00 0.  1.
         13    1    3    3    0    0 -0.58251043255E+02  0.11627273513E+02  0.26755285007E+02  0.65147699924E+02  0.00000000000E+00 0. -1.
          2    1    1    2  501    0  0.10881355636E+03 -0.78582861838E+02 -0.32014295074E+03  0.34714141950E+03  0.00000000000E+00 0. -1.
<scales pt_clust_5="13000.00000" pt_clust_6="13000.00000" pt_clust_7="13000.00000" pt_clust_8="13000.00000" pt_clust_9="93.23676"></scales>
<clustering>
<clus scale="   79.867">  5  6 -1 -1</clus>
<clus scale="   92.268">  7  8 -1 -1</clus>
<clus scale="  108.589">  2  7  1 -1</clus>
<clus scale="   93.237">  1  9  2 -1</clus>
<clus scale="   93.237">  1  5  2 -1</clus>
</clustering>
</event>
<event>
 9    1  0.9171696E-005  0.9740594E+02  0.7546771E-02  0.1295987E+00
          1   -1    0    0  502    0 -0.00000000000E+00  0.00000000000E+00  0.35443429040E+03  0.35443429040E+03  0.00000000000E+00 0. -1.
         21   -1    0    0  501  502  0.00000000000E+00 -0.00000000000E+00 -0.43244548866E+02  0.43244548866E+02  0.00000000000E+00 0.  1.
        -24    2    1    2    0    0 -0.29947573736E+02  0.41427584030E+01  0.23608029959E+03  0.24994444382E+03  0.76317085391E+02 0.  0.
         23    2    1    2    0    0  0.43561995614E+01 -0.68869516408E+01  0.35974773831E+02  0.10089454834E+03  0.93910164277E+02 0.  0.
         11    1    3    3    0    0 -0.26748110194E+01 -0.30757847538E+02  0.50822901940E+02  0.59465680529E+02  0.00000000000E+00 0. -1.
        -12    1    3    3    0    0 -0.27272762716E+02  0.34900605941E+02  0.18525739765E+03  0.19047876329E+03  0.00000000000E+00 0.  1.
        -11    1    4    4    0    0  0.37389716385E+02 -0.15881149068E+01 -0.14670855019E+02  0.40196355398E+02  0.00000000000E+00 0.  1.
         11    1    4    4    0    0 -0.33033516824E+02 -0.52988367341E+01  0.50645628850E+02  0.60698192939E+02  0.00000000000E+00 0. -1.
          2    1    1    2  501    0  0.25591374174E+02  0.27441932379E+01  0.39134668108E+02  0.46839847102E+02  0.00000000000E+00 0. -1.
<scales pt_clust_5="13000.00000" pt_clust_6="13000.00000" pt_clust_7="13000.00000" pt_clust_8="13000.00000" pt_clust_9="25.73810"></scales>
<clustering>
<clus scale="   25.738">  2  9  1 -1</clus>
<clus scale="   76.317">  5  6 -1 -1</clus>
<clus scale="   80.580">  1  5  2 -1</clus>
<clus scale="   93.910">  7  8 -1 -1</clus>
<clus scale="   25.738">  2  5  1 -1</clus>
</clustering>
</event>
<event>
 9    1  0.9171696E-005  0.9448043E+02  0.7546771E-02  0.1299591E+00
         -2   -1    0    0    0  501 -0.00000000000E+00  0.00000000000E+00  0.30017807796E+03  0.30017807796E+03  0.00000000000E+00 0.  1.
         21   -1    0    0  501  502  0.00000000000E+00 -0.00000000000E+00 -0.50400060109E+02  0.50400060109E+02  0.00000000000E+00 0.  1.
        -24    2    1    2    0    0 -0.40780095348E+02  0.12504970259E+02  0.15329904242E+03  0.17604596162E+03  0.75313967757E+02 0.  0.
         23    2    1    2    0    0  0.88808750527E+01  0.50353153100E+01  0.21726502235E+02  0.91386797005E+02  0.88177556246E+02 0.  0.
         13    1    3    3    0    0 -0.20730180499E+02 -0.29628294734E+02  0.42369175002E+02  0.55702093522E+02  0.00000000000E+00 0. -1.
        -14    1    3    3    0    0 -0.20049914850E+02  0.42133264993E+02  0.11092986741E+03  0.12034386810E+03  0.00000000000E+00 0.  1.
        -13    1    4    4    0    0 -0.11043207117E+02 -0.35966485334E+02 -0.58986708528E+01  0.38083261527E+02  0.00000000000E+00 0.  1.
         13    1    4    4    0    0  0.19924082169E+02  0.41001800644E+02  0.27625173088E+02  0.53303535478E+02  0.00000000000E+00 0. -1.
         -1    1    1    2    0  502  0.31899220296E+02 -0.17540285569E+02  0.74752473202E+02  0.83145379446E+02  0.00000000000E+00 0.  1.
<scales pt_clust_5="13000.00000" pt_clust_6="13000.00000" pt_clust_7="13000.00000" pt_clust_8="13000.00000" pt_clust_9="36.40362"></scales>
<clustering>
<clus scale="   36.404">  2  9  1 -1</clus>
<clus scale="   75.314">  5  6 -1 -1</clus>
<clus scale="   82.604">  1  5  2 -1</clus>
<clus scale="   88.178">  7  8 -1 -1</clus>
<clus scale="   36.404">  2  5  1 -1</clus>
</clustering>
</event>
<event>
 9    1  0.9171696E-005  0.2091793E+03  0.7546771E-02  0.1156315E+00
         -2   -1    0    0    0  501 -0.00000000000E+00  0.00000000000E+00  0.76695492846E+03  0.76695492846E+03  0.00000000000E+00 0.  1.
         21   -1    0    0  501  502  0.00000000000E+00 -0.00000000000E+00 -0.10547964951E+03  0.10547964951E+03  0.00000000000E+00 0. -1.
        -24    2    1    2    0    0 -0.11376631394E+03 -0.53403030762E+02  0.12655094611E+03  0.19603377506E+03  0.81359947889E+02 0.  0.
         23    2    1    2    0    0 -0.17254435862E+02  0.19632774679E+03  0.27353579349E+03  0.35095053048E+03  0.97478945452E+02 0.  0.
         13    1    3    3    0    0 -0.57865669859E+01 -0.33565804707E+02  0.90884557381E+01  0.35252625871E+02  0.00000000000E+00 0. -1.
        -14    1    3    3    0    0 -0.10797974695E+03 -0.19837226055E+02  0.11746249038E+03  0.16078114919E+03  0.00000000000E+00 0.  1.
        -13    1    4    4    0    0 -0.33390423746E+02  0.13311832586E+02  0.39364978597E+02  0.53307849560E+02  0.00000000000E+00 0.  1.
         13    1    4    4    0    0  0.16135987884E+02  0.18301591420E+03  0.23417081490E+03  0.29764268092E+03  0.00000000000E+00 0. -1.
         -1    1    1    2    0  502  0.13102074980E+03 -0.14292471603E+03  0.26138853934E+03  0.32545027244E+03  0.00000000000E+00 0.  1.
<scales pt_clust_5="13000.00000" pt_clust_6="13000.00000" pt_clust_7="13000.00000" pt_clust_8="13000.00000" pt_clust_9="185.07806"></scales>
<clustering>
<clus scale="   81.360">  5  6 -1 -1</clus>
<clus scale="   97.479">  7  8 -1 -1</clus>
<clus scale="  149.713">  1  5  2 -1</clus>
<clus scale="  185.078">  2  9  1 -1</clus>
<clus scale="  185.078">  2  5  1 -1</clus>
</clustering>
</event>
<event>
 9    1  0.9171696E-005  0.1566382E+03  0.7546771E-02  0.1204090E+00
          1   -1    0    0  502    0 -0.00000000000E+00  0.00000000000E+00  0.13612372929E+04  0.13612372929E+04  0.00000000000E+00 0. -1.
         21   -1    0    0  501  502  0.00000000000E+00 -0.00000000000E+00 -0.49554689972E+02  0.49554689972E+02  0.00000000000E+00 0. -1.
        -24    2    1    2    0    0 -0.90419217838E+02 -0.11203915199E+02  0.38810232860E+03  0.40676907549E+03  0.80848627911E+02 0.  0.
         23    2    1    2    0    0  0.12705932300E+03  0.12776403778E+03  0.81821731976E+03  0.84268440709E+03  0.90386429768E+02 0.  0.
         13    1    3    3    0    0 -0.99432122714E+02  0.82698117486E+01  0.33335912772E+03  0.34797046548E+03  0.00000000000E+00 0. -1.
        -14    1    3    3    0    0  0.90129048762E+01 -0.19473726948E+02  0.54743200886E+02  0.58798610007E+02  0.00000000000E+00 0.  1.
        -13    1    4    4    0    0  0.14006711165E+03  0.10610165074E+03  0.69185132226E+03  0.71381692903E+03  0.00000000000E+00 0. -1.
         13    1    4    4    0    0 -0.13007788646E+02  0.21662387036E+02  0.12636599750E+03  0.12886747807E+03  0.00000000000E+00 0.  1.
          2    1    1    2  501    0 -0.36640105165E+02 -0.11656012258E+03  0.10536295456E+03  0.16133850029E+03  0.00000000000E+00 0. -1.
<scales pt_clust_5="13000.00000" pt_clust_6="13000.00000" pt_clust_7="13000.00000" pt_clust_8="13000.00000" pt_clust_9="127.92890"></scales>
<clustering>
<clus scale="   80.849">  5  6 -1 -1</clus>
<clus scale="   90.386">  7  8 -1 -1</clus>
<clus scale="  121.810">  1  5  2 -1</clus>
<clus scale="  127.929">  2  9  1 -1</clus>
<clus scale="  127.929">  2  5  1 -1</clus>
</clustering>
</event>
<event>
 9    1  0.9171696E-005  0.1391593E+03  0.7546771E-02  0.1215492E+00
         21   -1    0    0  501  502  0.00000000000E+00  0.00000000000E+00  0.46827856851E+02  0.46827856851E+02  0.00000000000E+00 0.  1.
         -4   -1    0    0    0  501 -0.00000000000E+00 -0.00000000000E+00 -0.55839718720E+03  0.55839718720E+03  0.00000000000E+00 0.  1.
         23    2    1    2    0    0  0.12160263562E+03 -0.19814108091E+02 -0.33683263572E+03  0.36858056351E+03  0.84944731703E+02 0.  0.
        -24    2    1    2    0    0 -0.88875095031E+02  0.50925621058E+01 -0.10951093420E+03  0.16219842186E+03  0.79943521562E+02 0.  0.
         13    1    4    4    0    0 -0.29590637527E+02  0.28059098451E+02 -0.84598973215E+02  0.93914349831E+02  0.00000000000E+00 0. -1.
        -14    1    4    4    0    0 -0.59284457504E+02 -0.22966536345E+02 -0.24911960989E+02  0.68284072034E+02  0.00000000000E+00 0.  1.
        -11    1    3    3    0    0  0.93138947733E+02  0.21915121758E+02 -0.25561688371E+03  0.27293795519E+03  0.00000000000E+00 0.  1.
         11    1    3    3    0    0  0.28463687885E+02 -0.41729229849E+02 -0.81215752010E+02  0.95642608321E+02  0.00000000000E+00 0. -1.
         -3    1    1    2    0  502 -0.32727540588E+02  0.14721545986E+02 -0.65225760424E+02  0.74446058673E+02  0.00000000000E+00 0.  1.
<scales pt_clust_5="13000.00000" pt_clust_6="13000.00000" pt_clust_7="13000.00000" pt_clust_8="13000.00000" pt_clust_9="35.88617"></scales>
<clustering>
<clus scale="   35.886">  1  9  2 -1</clus>
<clus scale="   79.944">  5  6 -1 -1</clus>
<clus scale="   84.945">  7  8 -1 -1</clus>
<clus scale="  136.164">  1  5  2 -1</clus>
<clus scale="   35.886">  1  5  2 -1</clus>
</clustering>
</event>
<event>
 9    1  0.9171696E-005  0.1186971E+03  0.7546771E-02  0.1248832E+00
          3   -1    0    0  502    0 -0.00000000000E+00  0.00000000000E+00  0.31884865334E+03  0.31884865334E+03  0.00000000000E+00 0. -1.
         21   -1    0    0  501  502  0.00000000000E+00 -0.00000000000E+00 -0.74299925611E+02  0.74299925611E+02  0.00000000000E+00 0. -1.
        -24    2    1    2    0    0  0.60068893335E+02  0.60465902945E+02  0.17687829749E+03  0.21213208987E+03  0.80309987335E+02 0.  0.
         23    2    1    2    0    0 -0.41515658048E+02 -0.26900404761E+02  0.67442017480E+00  0.10381978855E+03  0.91273829832E+02 0.  0.
         13    1    3    3    0    0  0.40344037936E+02 -0.39643510839E+00  0.11973402375E+03  0.12634886229E+03  0.00000000000E+00 0. -1.
        -14    1    3    3    0    0  0.19724855399E+02  0.60862338053E+02  0.57144273737E+02  0.85783227584E+02  0.00000000000E+00 0.  1.
        -13    1    4    4    0    0 -0.44520698918E+02 -0.57677783865E+02 -0.70955432562E+00  0.72865100364E+02  0.00000000000E+00 0.  1.
         13    1    4    4    0    0  0.30050408695E+01  0.30777379105E+02  0.13839745004E+01  0.30954688184E+02  0.00000000000E+00 0. -1.
          4    1    1    2  501    0 -0.18553235287E+02 -0.33565498184E+02  0.66996010060E+02  0.77196700525E+02  0.00000000000E+00 0. -1.
<scales pt_clust_5="13000.00000" pt_clust_6="13000.00000" pt_clust_7="13000.00000" pt_clust_8="13000.00000" pt_clust_9="38.35188"></scales>
<clustering>
<clus scale="   38.352">  2  9  1 -1</clus>
<clus scale="   80.310">  5  6 -1 -1</clus>
<clus scale="   91.274">  7  8 -1 -1</clus>
<clus scale="  110.489">  1  5  2 -1</clus>
<clus scale="   38.352">  2  5  1 -1</clus>
</clustering>
</event>
<event>
 9    1  0.9171696E-005  0.1096753E+03  0.7546771E-02  0.1264687E+00
         21   -1    0    0  501  502  0.00000000000E+00  0.00000000000E+00  0.76588387099E+02  0.76588387099E+02  0.00000000000E+00 0. -1.
          1   -1    0    0  502    0 -0.00000000000E+00 -0.00000000000E+00 -0.41259678033E+03  0.41259678033E+03  0.00000000000E+00 0. -1.
        -24    2    1    2    0    0 -0.21250871762E+02  0.61085874900E+02 -0.18808357866E+03  0.21472879395E+03  0.80931691739E+02 0.  0.
         23    2    1    2    0    0 -0.58114118335E+02 -0.68076755542E+02 -0.27173183023E+02  0.12978906346E+03  0.89972905498E+02 0.  0.
         11    1    3    3    0    0 -0.41282255636E+02  0.70242819618E+02 -0.15180900741E+03  0.17229118686E+03  0.00000000000E+00 0. -1.
        -12    1    3    3    0    0  0.20031383874E+02 -0.91569447185E+01 -0.36274571248E+02  0.42437607092E+02  0.00000000000E+00 0.  1.
        -13    1    4    4    0    0 -0.36175181932E+01  0.21277161947E+02  0.29020015913E+00  0.21584445199E+02  0.00000000000E+00 0.  1.
         13    1    4    4    0    0 -0.54496600142E+02 -0.89353917489E+02 -0.27463383182E+02  0.10820461826E+03  0.00000000000E+00 0. -1.
          2    1    1    2  501    0  0.79364990097E+02  0.69908806421E+01 -0.12075163155E+03  0.14466731001E+03  0.00000000000E+00 0. -1.
<scales pt_clust_5="13000.00000" pt_clust_6="13000.00000" pt_clust_7="13000.00000" pt_clust_8="13000.00000" pt_clust_9="79.67233"></scales>
<clustering>
<clus scale="   79.672">  1  9  2 -1</clus>
<clus scale="   80.932">  5  6 -1 -1</clus>
<clus scale="   89.973">  7  8 -1 -1</clus>
<clus scale="  102.389">  2  5  1 -1</clus>
<clus scale="   79.672">  1  5  2 -1</clus>
</clustering>
</event>
<event>
 9    1  0.9171696E-005  0.1411612E+03  0.7546771E-02  0.1214031E+00
          1   -1    0    0  502    0 -0.00000000000E+00  0.00000000000E+00  0.54690042090E+03  0.54690042090E+03  0.00000000000E+00 0. -1.
         21   -1    0    0  501  502  0.00000000000E+00 -0.00000000000E+00 -0.15133098050E+03  0.15133098050E+03  0.00000000000E+00 0. -1.
        -24    2    1    2    0    0 -0.77896990692E+02  0.10281436558E+03  0.27503585642E+03  0.31417344487E+03  0.80134238725E+02 0.  0.
         23    2    1    2    0    0  0.10380068609E+03 -0.13014540638E+02  0.21202974682E+03  0.25326591622E+03  0.90791244523E+02 0.  0.
         11    1    3    3    0    0 -0.58110043905E+02  0.57544925025E+02  0.85543426589E+02  0.11834641284E+03  0.00000000000E+00 0. -1.
        -12    1    3    3    0    0 -0.19786946786E+02  0.45269440554E+02  0.18949242983E+03  0.19582703203E+03  0.00000000000E+00 0.  1.
        -11    1    4    4    0    0  0.26239021306E+02  0.19482624258E+00  0.15214151867E+03  0.15438771292E+03  0.00000000000E+00 0.  1.
         11    1    4    4    0    0  0.77561664785E+02 -0.13209366881E+02  0.59888228147E+02  0.98878203302E+02  0.00000000000E+00 0. -1.
          2    1    1    2  501    0 -0.25903695400E+02 -0.89799824941E+02 -0.91496162840E+02  0.13079204031E+03  0.00000000000E+00 0. -1.
<scales pt_clust_5="13000.00000" pt_clust_6="13000.00000" pt_clust_7="13000.00000" pt_clust_8="13000.00000" pt_clust_9="93.46128"></scales>
<clustering>
<clus scale="   80.134">  5  6 -1 -1</clus>
<clus scale="   90.791">  7  8 -1 -1</clus>
<clus scale="   93.461">  2  9  1 -1</clus>
<clus scale="  134.555">  1  5  2 -1</clus>
<clus scale="   93.461">  2  5  1 -1</clus>
</clustering>
</event>
<event>
 9    1  0.9171696E-005  0.1321732E+03  0.7546771E-02  0.1228265E+00
          1   -1    0    0  502    0 -0.00000000000E+00  0.00000000000E+00  0.46518653819E+03  0.46518653819E+03  0.00000000000E+00 0. -1.
         21   -1    0    0  501  502  0.00000000000E+00 -0.00000000000E+00 -0.72579169522E+02  0.72579169522E+02  0.00000000000E+00 0. -1.
         23    2    1    2    0    0  0.77491477186E+02 -0.94403560930E+02  0.25986475127E+03  0.30334590843E+03  0.97837057659E+02 0.  0.
        -24    2    1    2    0    0 -0.70925056108E+01  0.64041005780E+02  0.11485179617E+03  0.15569253947E+03  0.83052258884E+02 0.  0.
         11    1    4    4    0    0  0.36387430964E+02  0.14859017082E+02  0.47280249937E+02  0.61483799125E+02  0.00000000000E+00 0. -1.
        -12    1    4    4    0    0 -0.43479936575E+02  0.49181988698E+02  0.67571546235E+02  0.94208740345E+02  0.00000000000E+00 0.  1.
        -13    1    3    3    0    0  0.33162073919E+02 -0.32497078105E+02  0.20318995956E+03  0.20842730843E+03  0.00000000000E+00 0. -1.
         13    1    3    3    0    0  0.44329403266E+02 -0.61906482825E+02  0.56674791710E+02  0.94918599995E+02  0.00000000000E+00 0.  1.
          2    1    1    2  501    0 -0.70398971575E+02  0.30362555150E+02  0.17890821221E+02  0.78727259815E+02  0.00000000000E+00 0. -1.
<scales pt_clust_5="13000.00000" pt_clust_6="13000.00000" pt_clust_7="13000.00000" pt_clust_8="13000.00000" pt_clust_9="76.66746"></scales>
<clustering>
<clus scale="   76.667">  2  9  1 -1</clus>
<clus scale="   83.052">  5  6 -1 -1</clus>
<clus scale="   97.837">  7  8 -1 -1</clus>
<clus scale="  121.636">  2  5  1 -1</clus>
<clus scale="   76.667">  2  5  1 -1</clus>
</clustering>
</event>
<event>
 9    1  0.9171696E-005  0.1549805E+03  0.7546771E-02  0.1196410E+00
         21   -1    0    0  501  502  0.00000000000E+00  0.00000000000E+00  0.54612996607E+03  0.54612996607E+03  0.00000000000E+00 0.  1.
          1   -1    0    0  502    0 -0.00000000000E+00 -0.00000000000E+00 -0.13835340092E+03  0.13835340092E+03  0.00000000000E+00 0. -1.
         23    2    1    2    0    0  0.37551811011E+02  0.12103101421E+03 -0.68693164644E+02  0.17065809499E+03  0.91360766230E+02 0.  0.
        -24    2    1    2    0    0 -0.63277424809E+02 -0.10148015510E+03  0.28098334055E+03  0.31568650328E+03  0.80025472899E+02 0.  0.
         13    1    4    4    0    0 -0.29956337609E+02 -0.11101558087E+01  0.26149906099E+02  0.39779796352E+02  0.00000000000E+00 0. -1.
        -14    1    4    4    0    0 -0.33321087200E+02 -0.10036999929E+03  0.25483343445E+03  0.27590670692E+03  0.00000000000E+00 0.  1.
        -11    1    3    3    0    0  0.66152288826E+01  0.31537215685E+02  0.22416257569E+02  0.39253609130E+02  0.00000000000E+00 0.  1.
         11    1    3    3    0    0  0.30936582129E+02  0.89493798523E+02 -0.91109422213E+02  0.13140448586E+03  0.00000000000E+00 0. -1.
          2    1    1    2  501    0  0.25725613798E+02 -0.19550859112E+02  0.19548638924E+03  0.19813876873E+03  0.00000000000E+00 0. -1.
<scales pt_clust_5="13000.00000" pt_clust_6="13000.00000" pt_clust_7="13000.00000" pt_clust_8="13000.00000" pt_clust_9="32.31166"></scales>
<clustering>
<clus scale="   32.312">  1  9  2 -1</clus>
<clus scale="   80.025">  5  6 -1 -1</clus>
<clus scale="   91.361">  7  8 -1 -1</clus>
<clus scale="  148.581">  1  5  2 -1</clus>
<clus scale="   32.312">  1  5  2 -1</clus>
</clustering>
</event>
<event>
 9    1  0.9171696E-005  0.1131415E+03  0.7546771E-02  0.1258627E+00
          1   -1    0    0  502    0 -0.00000000000E+00  0.00000000000E+00  0.19474579766E+03  0.19474579766E+03  0.00000000000E+00 0. -1.
         21   -1    0    0  501  502  0.00000000000E+00 -0.00000000000E+00 -0.40896499764E+03  0.40896499764E+03  0.00000000000E+00 0.  1.
        -24    2    1    2    0    0  0.65981049362E+02  0.10027950931E+02  0.16315200657E+03  0.19415215608E+03  0.81378275910E+02 0.  0.
         23    2    1    2    0    0 -0.63887463408E+02  0.30000797949E+02 -0.31350869256E+03  0.33415900704E+03  0.91612694652E+02 0.  0.
         13    1    3    3    0    0  0.51691636982E+02  0.42881591062E+02  0.12442683492E+03  0.14139622850E+03  0.00000000000E+00 0. -1.
        -14    1    3    3    0    0  0.14289412380E+02 -0.32853640131E+02  0.38725171647E+02  0.52755927583E+02  0.00000000000E+00 0.  1.
        -13    1    4    4    0    0  0.21066544641E+02 -0.76255695717E+01 -0.51449847399E+02  0.56116266909E+02  0.00000000000E+00 0. -1.
         13    1    4    4    0    0 -0.84954008049E+02  0.37626367520E+02 -0.26205884516E+03  0.27804274013E+03  0.00000000000E+00 0.  1.
          2    1    1    2  501    0 -0.20935859539E+01 -0.40028748880E+02 -0.63862513986E+02  0.75399632172E+02  0.00000000000E+00 0. -1.
<scales pt_clust_5="13000.00000" pt_clust_6="13000.00000" pt_clust_7="13000.00000" pt_clust_8="13000.00000" pt_clust_9="40.08346"></scales>
<clustering>
<clus scale="   40.083">  2  9  1 -1</clus>
<clus scale="   81.378">  5  6 -1 -1</clus>
<clus scale="   91.613">  7  8 -1 -1</clus>
<clus scale="  105.026">  1  5  2 -1</clus>
<clus scale="   40.083">  2  5  1 -1</clus>
</clustering>
</event>
<event>
 9    1  0.9171696E-005  0.1066221E+03  0.7546771E-02  0.1270107E+00
         21   -1    0    0  501  502  0.00000000000E+00  0.00000000000E+00  0.37978774653E+02  0.37978774653E+02  0.00000000000E+00 0. -1.
         -2   -1    0    0    0  501 -0.00000000000E+00 -0.00000000000E+00 -0.65804668162E+03  0.65804668162E+03  0.00000000000E+00 0.  1.
         23    2    1    2    0    0 -0.14595595012E+02 -0.61389086789E+02 -0.51862243921E+03  0.52984667635E+03  0.88241796269E+02 0.  0.
        -24    2    1    2    0    0 -0.15997629451E+02  0.48333959481E+02 -0.58190672925E+02  0.11161359865E+03  0.80494379933E+02 0.  0.
         11    1    4    4    0    0 -0.18122049993E+02 -0.93569694247E+01  0.96259871061E+01  0.22552631787E+02  0.00000000000E+00 0. -1.
        -12    1    4    4    0    0  0.21244205418E+01  0.57690928906E+02 -0.67816660031E+02  0.89060966862E+02  0.00000000000E+00 0.  1.
        -11    1    3    3    0    0  0.31657481376E+02 -0.24666109978E+00 -0.16483452688E+03  0.16784718711E+03  0.00000000000E+00 0. -1.
         11    1    3    3    0    0 -0.46253076388E+02 -0.61142425689E+02 -0.35378791234E+03  0.36199948924E+03  0.00000000000E+00 0.  1.
         -1    1    1    2    0  502  0.30593224463E+02  0.13055127308E+02 -0.43254794825E+02  0.54565181274E+02  0.00000000000E+00 0.  1.
<scales pt_clust_5="13000.00000" pt_clust_6="13000.00000" pt_clust_7="13000.00000" pt_clust_8="13000.00000" pt_clust_9="33.26232"></scales>
<clustering>
<clus scale="   33.262">  1  9  2 -1</clus>
<clus scale="   80.494">  5  6 -1 -1</clus>
<clus scale="   88.242">  7  8 -1 -1</clus>
<clus scale="  100.305">  1  5  2 -1</clus>
<clus scale="   33.262">  1  5  2 -1</clus>
</clustering>
</event>
<event>
 9    1  0.9171696E-005  0.1016781E+03  0.7546771E-02  0.1282546E+00
         21   -1    0    0  501  502  0.00000000000E+00  0.00000000000E+00  0.31434959452E+02  0.31434959452E+02  0.00000000000E+00 0.  1.
         -2   -1    0    0    0  501 -0.00000000000E+00 -0.00000000000E+00 -0.49781027642E+03  0.49781027642E+03  0.00000000000E+00 0.  1.
        -24    2    1    2    0    0  0.10141436478E+02  0.27248652415E+02 -0.22032517025E+03  0.23772034073E+03  0.84394561208E+02 0.  0.
         23    2    1    2    0    0 -0.51643018012E+02 -0.14931134927E+02 -0.20126165640E+03  0.22923435515E+03  0.95667105871E+02 0.  0.
         13    1    3    3    0    0  0.26389158803E+02  0.51449490990E+02 -0.16997895580E+03  0.17954465528E+03  0.00000000000E+00 0. -1.
        -14    1    3    3    0    0 -0.16247722325E+02 -0.24200838575E+02 -0.50346214446E+02  0.58175685450E+02  0.00000000000E+00 0.  1.
        -13    1    4    4    0    0 -0.55376052861E+02  0.30014182390E+02 -0.97252762163E+02  0.11586827919E+03  0.00000000000E+00 0.  1.
         13    1    4    4    0    0  0.37330348491E+01 -0.44945317317E+02 -0.10400889423E+03  0.11336607596E+03  0.00000000000E+00 0. -1.
         -1    1    1    2    0  502  0.41501581534E+02 -0.12317517488E+02 -0.44788490329E+02  0.62290539995E+02  0.00000000000E+00 0.  1.
<scales pt_clust_5="13000.00000" pt_clust_6="13000.00000" pt_clust_7="13000.00000" pt_clust_8="13000.00000" pt_clust_9="43.29091"></scales>
<clustering>
<clus scale="   43.291">  1  9  2 -1</clus>
<clus scale="   84.395">  5  6 -1 -1</clus>
<clus scale="   91.152">  2  5  1 -1</clus>
<clus scale="   95.667">  7  8 -1 -1</clus>
<clus scale="   43.291">  1  5  2 -1</clus>
</clustering>
</event>
<event>
 9    1  0.9171696E-005  0.1051937E+03  0.7546771E-02  0.1274833E+00
         -4   -1    0    0    0  501 -0.00000000000E+00  0.00000000000E+00  0.90412424588E+02  0.90412424588E+02  0.00000000000E+00 0.  1.
         21   -1    0    0  501  502  0.00000000000E+00 -0.00000000000E+00 -0.21000774568E+03  0.21000774568E+03  0.00000000000E+00 0. -1.
         23    2    1    2    0    0 -0.21680858055E+02 -0.53040496567E+02 -0.62631831045E+01  0.10851744101E+03  0.91942665067E+02 0.  0.
        -24    2    1    2    0    0  0.26152740287E+02  0.26947221315E+02 -0.13228551697E+03  0.15934374710E+03  0.80503746355E+02 0.  0.
         11    1    4    4    0    0  0.36745127051E+02  0.42692436933E+02 -0.12806242197E+03  0.13990293941E+03  0.00000000000E+00 0. -1.
        -12    1    4    4    0    0 -0.10592386764E+02 -0.15745215618E+02 -0.42230949986E+01  0.19440807689E+02  0.00000000000E+00 0.  1.
        -13    1    3    3    0    0 -0.23244596223E+02  0.46949652848E+01 -0.36344451885E+02  0.43396694983E+02  0.00000000000E+00 0. -1.
         13    1    3    3    0    0  0.15637381678E+01 -0.57735461852E+02  0.30081268780E+02  0.65120746032E+02  0.00000000000E+00 0.  1.
         -3    1    1    2    0  502 -0.44718822312E+01  0.26093275252E+02  0.18953378985E+02  0.32558982156E+02  0.00000000000E+00 0.  1.
<scales pt_clust_5="13000.00000" pt_clust_6="13000.00000" pt_clust_7="13000.00000" pt_clust_8="13000.00000" pt_clust_9="26.47371"></scales>
<clustering>
<clus scale="   26.474">  2  9  1 -1</clus>
<clus scale="   80.504">  5  6 -1 -1</clus>
<clus scale="   91.943">  7  8 -1 -1</clus>
<clus scale="   95.358">  2  5  1 -1</clus>
<clus scale="   26.474">  2  5  1 -1</clus>
</clustering>
</event>
<event>
 9    1  0.9171696E-005  0.1277766E+03  0.7546771E-02  0.1234184E+00
          1   -1    0    0  502    0 -0.00000000000E+00  0.00000000000E+00  0.25868082174E+03  0.25868082174E+03  0.00000000000E+00 0. -1.
         21   -1    0    0  501  502  0.00000000000E+00 -0.00000000000E+00 -0.95390148021E+02  0.95390148021E+02  0.00000000000E+00 0. -1.
         23    2    1    2    0    0  0.44663268963E+02 -0.64146478788E+02  0.70270337102E+02  0.13931350504E+03  0.91437159155E+02 0.  0.
        -24    2    1    2    0    0 -0.83943610488E+02  0.69778526496E+02  0.26509420807E+02  0.13730833875E+03  0.78963649848E+02 0.  0.
         13    1    4    4    0    0 -0.48650698544E+02  0.68509377958E+02  0.47202268292E+02  0.96376757929E+02  0.00000000000E+00 0. -1.
        -14    1    4    4    0    0 -0.35292911944E+02  0.12691485375E+01 -0.20692847485E+02  0.40931580822E+02  0.00000000000E+00 0.  1.
        -11    1    3    3    0    0  0.26182866219E+02  0.19228865203E+02  0.75342313769E+01  0.33347509395E+02  0.00000000000E+00 0.  1.
         11    1    3    3    0    0  0.18480402745E+02 -0.83375343991E+02  0.62736105725E+02  0.10596599564E+03  0.00000000000E+00 0. -1.
          2    1    1    2  501    0  0.39280341525E+02 -0.56320477076E+01  0.66510915816E+02  0.77449125976E+02  0.00000000000E+00 0. -1.
<scales pt_clust_5="13000.00000" pt_clust_6="13000.00000" pt_clust_7="13000.00000" pt_clust_8="13000.00000" pt_clust_9="39.68207"></scales>
<clustering>
<clus scale="   39.682">  2  9  1 -1</clus>
<clus scale="   78.964">  5  6 -1 -1</clus>
<clus scale="   91.437">  7  8 -1 -1</clus>
<clus scale="  119.170">  2  5  1 -1</clus>
<clus scale="   39.682">  2  5  1 -1</clus>
</clustering>
</event>
<event>
 9    1  0.9171696E-005  0.1047576E+03  0.7546771E-02  0.1284091E+00
         21   -1    0    0  501  502  0.00000000000E+00  0.00000000000E+00  0.16310229606E+03  0.16310229606E+03  0.00000000000E+00 0. -1.
         -4   -1    0    0    0  501 -0.00000000000E+00 -0.00000000000E+00 -0.16494358890E+03  0.16494358890E+03  0.00000000000E+00 0.  1.
         23    2    1    2    0    0 -0.40236514000E+01 -0.26602609681E+02 -0.77067083903E+02  0.13228129305E+03  0.10409186548E+03 0.  0.
        -24    2    1    2    0    0  0.25098312377E+02 -0.51550522710E+02  0.56374158568E+02  0.11265359693E+03  0.78901238720E+02 0.  0.
         13    1    4    4    0    0  0.19594377912E+02 -0.71085426201E+02  0.55589064765E+02  0.92342956339E+02  0.00000000000E+00 0. -1.
        -14    1    4    4    0    0  0.55039344644E+01  0.19534903491E+02  0.78509380262E+00  0.20310640592E+02  0.00000000000E+00 0.  1.
        -13    1    3    3    0    0  0.40910820191E+02  0.11450479850E+02 -0.11205516742E+02  0.43936002355E+02  0.00000000000E+00 0.  1.
         13    1    3    3    0    0 -0.44934471591E+02 -0.38053089531E+02 -0.65861567160E+02  0.88345290700E+02  0.00000000000E+00 0. -1.
         -3    1    1    2    0  502 -0.21074660977E+02  0.78153132391E+02  0.18851632498E+02  0.83110994975E+02  0.00000000000E+00 0.  1.
<scales pt_clust_5="13000.00000" pt_clust_6="13000.00000" pt_clust_7="13000.00000" pt_clust_8="13000.00000" pt_clust_9="80.94476"></scales>
<clustering>
<clus scale="   78.901">  5  6 -1 -1</clus>
<clus scale="   80.945">  1  9  2 -1</clus>
<clus scale="   80.945">  1  5  2 -1</clus>
<clus scale="  104.092">  7  8 -1 -1</clus>
<clus scale="   80.945">  1  5  2 -1</clus>
</clustering>
</event>
<event>
 9    1  0.9171696E-005  0.1010520E+03  0.7546771E-02  0.1282679E+00
          1   -1    0    0  502    0 -0.00000000000E+00  0.00000000000E+00  0.55447449357E+03  0.55447449357E+03  0.00000000000E+00 0. -1.
         21   -1    0    0  501  502  0.00000000000E+00 -0.00000000000E+00 -0.38695385386E+02  0.38695385386E+02  0.00000000000E+00 0. -1.
        -24    2    1    2    0    0  0.18089765315E+02  0.37835987676E+02  0.36608820646E+03  0.37723828506E+03  0.80804376348E+02 0.  0.
         23    2    1    2    0    0 -0.65579668882E+01 -0.56745711382E+02  0.15925994445E+03  0.19180429391E+03  0.90344200505E+02 0.  0.
         11    1    3    3    0    0 -0.13536033244E+02  0.52904269008E+02  0.18963355310E+03  0.19733973329E+03  0.00000000000E+00 0. -1.
        -12    1    3    3    0    0  0.31625798559E+02 -0.15068281332E+02  0.17645465336E+03  0.17989855177E+03  0.00000000000E+00 0.  1.
        -13    1    4    4    0    0  0.20025862062E+02 -0.59956470297E+02  0.15113480127E+03  0.16382167634E+03  0.00000000000E+00 0. -1.
         13    1    4    4    0    0 -0.26583828951E+02  0.32107589144E+01  0.81251431785E+01  0.27982617572E+02  0.00000000000E+00 0.  1.
          2    1    1    2  501    0 -0.11531798427E+02  0.18909723707E+02 -0.95690427293E+01  0.24127299981E+02  0.00000000000E+00 0. -1.
<scales pt_clust_5="13000.00000" pt_clust_6="13000.00000" pt_clust_7="13000.00000" pt_clust_8="13000.00000" pt_clust_9="22.14859"></scales>
<clustering>
<clus scale="   22.149">  2  9  1 -1</clus>
<clus scale="   80.804">  5  6 -1 -1</clus>
<clus scale="   90.344">  7  8 -1 -1</clus>
<clus scale="   92.622">  1  5  2 -1</clus>
<clus scale="   22.149">  2  5  1 -1</clus>
</clustering>
</event>
<event>
 9    1  0.9171696E-005  0.1122734E+03  0.7546771E-02  0.1260113E+00
         -2   -1    0    0    0  501 -0.00000000000E+00  0.00000000000E+00  0.12559165381E+03  0.12559165381E+03  0.00000000000E+00 0.  1.
         21   -1    0    0  501  502  0.00000000000E+00 -0.00000000000E+00 -0.44009522752E+03  0.44009522752E+03  0.00000000000E+00 0. -1.
        -24    2    1    2    0    0  0.73451898032E+02 -0.97690616462E+01  0.59206762159E+02  0.12396749966E+03  0.79824084071E+02 0.  0.
         23    2    1    2    0    0 -0.26891121493E+01 -0.47439144201E+02 -0.32064676328E+03  0.33638233491E+03  0.89894519914E+02 0.  0.
         11    1    3    3    0    0  0.65901702816E+02 -0.39957839897E+02  0.35525918620E+02  0.84863150408E+02  0.00000000000E+00 0. -1.
        -12    1    3    3    0    0  0.75501952160E+01  0.30188778251E+02  0.23680843539E+02  0.39104349257E+02  0.00000000000E+00 0.  1.
        -11    1    4    4    0    0 -0.42779018729E+02 -0.40693219025E+02 -0.22126849304E+03  0.22901032407E+03  0.00000000000E+00 0. -1.
         11    1    4    4    0    0  0.40089906579E+02 -0.67459251762E+01 -0.99378270240E+02  0.10737201084E+03  0.00000000000E+00 0.  1.
         -1    1    1    2    0  502 -0.70762785883E+02  0.57208205847E+02 -0.53063572590E+02  0.10533704675E+03  0.00000000000E+00 0.  1.
<scales pt_clust_5="13000.00000" pt_clust_6="13000.00000" pt_clust_7="13000.00000" pt_clust_8="13000.00000" pt_clust_9="90.99538"></scales>
<clustering>
<clus scale="   79.824">  5  6 -1 -1</clus>
<clus scale="   89.895">  7  8 -1 -1</clus>
<clus scale="   90.995">  2  9  1 -1</clus>
<clus scale="  104.385">  1  5  2 -1</clus>
<clus scale="   90.995">  2  5  1 -1</clus>
</clustering>
</event>
<event>
 9    1  0.9171696E-005  0.1109096E+03  0.7546771E-02  0.1262247E+00
         21   -1    0    0  501  502  0.00000000000E+00  0.00000000000E+00  0.45028949994E+03  0.45028949994E+03  0.00000000000E+00 0.  1.
         -2   -1    0    0    0  501 -0.00000000000E+00 -0.00000000000E+00 -0.16827764278E+03  0.16827764278E+03  0.00000000000E+00 0.  1.
         23    2    1    2    0    0 -0.32841052483E+02 -0.56845836720E+02 -0.13230787507E+03  0.17372383658E+03  0.91458262121E+02 0.  0.
        -24    2    1    2    0    0  0.50335761661E+02  0.12119907228E+02  0.17161428796E+03  0.19743189513E+03  0.82748464217E+02 0.  0.
         13    1    4    4    0    0  0.32581018806E+02  0.45867617306E+02  0.12591242615E+03  0.13791047880E+03  0.00000000000E+00 0. -1.
        -14    1    4    4    0    0  0.17754742855E+02 -0.33747710078E+02  0.45701861811E+02  0.59521416334E+02  0.00000000000E+00 0.  1.
        -13    1    3    3    0    0 -0.31340158893E+02 -0.27905674282E+02 -0.39654371043E+01  0.42150408159E+02  0.00000000000E+00 0. -1.
         13    1    3    3    0    0 -0.15008935900E+01 -0.28940162438E+02 -0.12834243797E+03  0.13157342842E+03  0.00000000000E+00 0.  1.
         -1    1    1    2    0  502 -0.17494709178E+02  0.44725929492E+02  0.24270544427E+03  0.24741141101E+03  0.00000000000E+00 0.  1.
<scales pt_clust_5="13000.00000" pt_clust_6="13000.00000" pt_clust_7="13000.00000" pt_clust_8="13000.00000" pt_clust_9="48.02576"></scales>
<clustering>
<clus scale="   48.026">  1  9  2 -1</clus>
<clus scale="   82.748">  5  6 -1 -1</clus>
<clus scale="   91.458">  7  8 -1 -1</clus>
<clus scale="  103.844">  1  5  2 -1</clus>
<clus scale="   48.026">  1  5  2 -1</clus>
</clustering>
</event>
<event>
 9    1  0.9171696E-005  0.1363344E+03  0.7546771E-02  0.1219954E+00
         -2   -1    0    0    0  501 -0.00000000000E+00  0.00000000000E+00  0.11577414407E+04  0.11577414407E+04  0.00000000000E+00 0.  1.
         21   -1    0    0  501  502  0.00000000000E+00 -0.00000000000E+00 -0.66043714783E+02  0.66043714783E+02  0.00000000000E+00 0.  1.
         23    2    1    2    0    0 -0.11026791680E+03 -0.44789440160E+02  0.83880758231E+03  0.85212353606E+03  0.91385191071E+02 0.  0.
        -24    2    1    2    0    0  0.58746313383E+02  0.46194171225E+02  0.28799870156E+03  0.30929929315E+03  0.84485323290E+02 0.  0.
         13    1    4    4    0    0  0.70583526686E+02  0.14921567610E+02  0.13913792843E+03  0.15672922684E+03  0.00000000000E+00 0. -1.
        -14    1    4    4    0    0 -0.11837213302E+02  0.31272603615E+02  0.14886077313E+03  0.15257006631E+03  0.00000000000E+00 0.  1.
        -11    1    3    3    0    0 -0.10188972586E+03  0.22923975517E+01  0.59611773727E+03  0.60476700308E+03  0.00000000000E+00 0. -1.
         11    1    3    3    0    0 -0.83781909416E+01 -0.47081837712E+02  0.24268984504E+03  0.24735653298E+03  0.00000000000E+00 0.  1.
         -1    1    1    2    0  502  0.51521603420E+02 -0.14047310646E+01 -0.35108557993E+02  0.62362326229E+02  0.00000000000E+00 0.  1.
<scales pt_clust_5="13000.00000" pt_clust_6="13000.00000" pt_clust_7="13000.00000" pt_clust_8="13000.00000" pt_clust_9="51.54075"></scales>
<clustering>
<clus scale="   51.541">  2  9  1 -1</clus>
<clus scale="   84.485">  5  6 -1 -1</clus>
<clus scale="   91.385">  7  8 -1 -1</clus>
<clus scale="  131.809">  2  5  1 -1</clus>
<clus scale="   51.541">  2  5  1 -1</clus>
</clustering>
</event>
<event>
 9    1  0.9171696E-005  0.1946975E+03  0.7546771E-02  0.1169373E+00
         21   -1    0    0  501  502  0.00000000000E+00  0.00000000000E+00  0.19462563749E+03  0.19462563749E+03  0.00000000000E+00 0. -1.
          1   -1    0    0  502    0 -0.00000000000E+00 -0.00000000000E+00 -0.39815445767E+03  0.39815445767E+03  0.00000000000E+00 0. -1.
        -24    2    1    2    0    0  0.84780626050E+02  0.71523004415E+02  0.31259316101E+02  0.14072173902E+03  0.80759942274E+02 0.  0.
         23    2    1    2    0    0  0.12523829275E+03  0.15303956758E+02 -0.13426312037E+03  0.20355856486E+03  0.86548615077E+02 0.  0.
         13    1    3    3    0    0  0.35028270341E+02  0.63937037873E+02 -0.12576407720E+02  0.73980339052E+02  0.00000000000E+00 0. -1.
        -14    1    3    3    0    0  0.49752355709E+02  0.75859665420E+01  0.43835723822E+02  0.66741399970E+02  0.00000000000E+00 0.  1.
        -13    1    4    4    0    0  0.94741539277E+01  0.34389012706E+02 -0.30633680212E+02  0.47018997765E+02  0.00000000000E+00 0.  1.
         13    1    4    4    0    0  0.11576413882E+03 -0.19085055948E+02 -0.10362944016E+03  0.15653956709E+03  0.00000000000E+00 0. -1.
          2    1    1    2  501    0 -0.21001891880E+03 -0.86826961172E+02 -0.10052501591E+03  0.24849979128E+03  0.00000000000E+00 0. -1.
<scales pt_clust_5="13000.00000" pt_clust_6="13000.00000" pt_clust_7="13000.00000" pt_clust_8="13000.00000" pt_clust_9="174.40327"></scales>
<clustering>
<clus scale="   80.760">  5  6 -1 -1</clus>
<clus scale="   86.549">  7  8 -1 -1</clus>
<clus scale="  137.206">  2  5  1 -1</clus>
<clus scale="  174.403">  1  9  2 -1</clus>
<clus scale="  174.403">  1  5  2 -1</clus>
</clustering>
</event>
<event>
 9    1  0.9171696E-005  0.1407587E+03  0.7546771E-02  0.1214427E+00
         21   -1    0    0  501  502  0.00000000000E+00  0.00000000000E+00  0.30053054679E+03  0.30053054679E+03  0.00000000000E+00 0. -1.
          1   -1    0    0  502    0 -0.00000000000E+00 -0.00000000000E+00 -0.17437165276E+03  0.17437165276E+03  0.00000000000E+00 0. -1.
         23    2    1    2    0    0 -0.66811672480E+02  0.71471646991E+02 -0.66477079712E+02  0.15063927010E+03  0.93279106264E+02 0.  0.
        -24    2    1    2    0    0  0.59852299444E+02 -0.14001299264E+03  0.18682535787E+03  0.25512457401E+03  0.83659417067E+02 0.  0.
         13    1    4    4    0    0  0.98896609158E+01 -0.10990929078E+03  0.91428327685E+02  0.14330735046E+03  0.00000000000E+00 0. -1.
        -14    1    4    4    0    0  0.49962638528E+02 -0.30103701862E+02  0.95397030181E+02  0.11181722355E+03  0.00000000000E+00 0.  1.
        -11    1    3    3    0    0 -0.43661809137E+00  0.68407254123E+02 -0.28515174169E+02  0.74113819291E+02  0.00000000000E+00 0.  1.
         11    1    3    3    0    0 -0.66375054389E+02  0.30643928680E+01 -0.37961905544E+02  0.76525450807E+02  0.00000000000E+00 0. -1.
          2    1    1    2  501    0  0.69593730362E+01  0.68541345653E+02  0.58106158780E+01  0.69138355447E+02  0.00000000000E+00 0. -1.
<scales pt_clust_5="13000.00000" pt_clust_6="13000.00000" pt_clust_7="13000.00000" pt_clust_8="13000.00000" pt_clust_9="68.89379"></scales>
<clustering>
<clus scale="   68.894">  1  9  2 -1</clus>
<clus scale="   83.659">  5  6 -1 -1</clus>
<clus scale="   93.279">  7  8 -1 -1</clus>
<clus scale="  134.577">  1  5  2 -1</clus>
<clus scale="   68.894">  1  5  2 -1</clus>
</clustering>
</event>
<event>
 9    1  0.9171696E-005  0.1069173E+03  0.7546771E-02  0.1270440E+00
          3   -1    0    0  502    0 -0.00000000000E+00  0.00000000000E+00  0.95727058904E+03  0.95727058904E+03  0.00000000000E+00 0. -1.
         21   -1    0    0  501  502  0.00000000000E+00 -0.00000000000E+00 -0.20398696838E+02  0.20398696838E+02  0.00000000000E+00 0. -1.
         23    2    1    2    0    0 -0.45464563430E+01 -0.48700042514E+02  0.49106371501E+03  0.50194305833E+03  0.91710943774E+02 0.  0.
        -24    2    1    2    0    0 -0.16905843541E+02  0.61365098875E+02  0.43718037248E+03  0.44936254348E+03  0.82149464397E+02 0.  0.
         11    1    4    4    0    0  0.27442135914E+02  0.50569280962E+02  0.27009679888E+03  0.27615684631E+03  0.00000000000E+00 0. -1.
        -12    1    4    4    0    0 -0.44347979455E+02  0.10795817913E+02  0.16708357360E+03  0.17320569717E+03  0.00000000000E+00 0.  1.
        -11    1    3    3    0    0  0.38208064209E+02 -0.24523367701E+01  0.13379557400E+03  0.13916582105E+03  0.00000000000E+00 0. -1.
         11    1    3    3    0    0 -0.42754520552E+02 -0.46247705744E+02  0.35726814101E+03  0.36277723729E+03  0.00000000000E+00 0.  1.
          4    1    1    2  501    0  0.21452299884E+02 -0.12665056360E+02  0.86278047176E+01  0.26363684059E+02  0.00000000000E+00 0. -1.
<scales pt_clust_5="13000.00000" pt_clust_6="13000.00000" pt_clust_7="13000.00000" pt_clust_8="13000.00000" pt_clust_9="24.91194"></scales>
<clustering>
<clus scale="   24.912">  2  9  1 -1</clus>
<clus scale="   82.149">  5  6 -1 -1</clus>
<clus scale="   91.711">  7  8 -1 -1</clus>
<clus scale="   98.838">  2  5  1 -1</clus>
<clus scale="   24.912">  2  5  1 -1</clus>
</clustering>
</event>
<event>
 9    1  0.9171696E-005  0.1187885E+03  0.7546771E-02  0.1249472E+00
         21   -1    0    0  501  502  0.00000000000E+00  0.00000000000E+00  0.23075060440E+03  0.23075060440E+03  0.00000000000E+00 0.  1.
          1   -1    0    0  502    0 -0.00000000000E+00 -0.00000000000E+00 -0.15675417444E+03  0.15675417444E+03  0.00000000000E+00 0. -1.
        -24    2    1    2    0    0 -0.67965253207E+02  0.11132565739E+02 -0.23943365150E+02  0.10790263222E+03  0.79539195631E+02 0.  0.
         23    2    1    2    0    0  0.90877048859E+02 -0.43922688415E+02  0.15691888940E+03  0.20833731597E+03  0.92698753012E+02 0.  0.
         11    1    3    3    0    0 -0.69642403716E+02 -0.16810061888E+01  0.11109991669E+02  0.70543051338E+02  0.00000000000E+00 0. -1.
        -12    1    3    3    0    0  0.16771505089E+01  0.12813571928E+02 -0.35053356818E+02  0.37359580881E+02  0.00000000000E+00 0.  1.
        -11    1    4    4    0    0  0.72904664270E+02 -0.72559661586E+02  0.12453356777E+03  0.16151967082E+03  0.00000000000E+00 0.  1.
         11    1    4    4    0    0  0.17972384589E+02  0.28636973172E+02  0.32385321630E+02  0.46817645150E+02  0.00000000000E+00 0. -1.
          2    1    1    2  501    0 -0.22911795652E+02  0.32790122676E+02 -0.58979094290E+02  0.71264830656E+02  0.00000000000E+00 0. -1.
<scales pt_clust_5="13000.00000" pt_clust_6="13000.00000" pt_clust_7="13000.00000" pt_clust_8="13000.00000" pt_clust_9="40.00180"></scales>
<clustering>
<clus scale="   40.002">  1  9  2 -1</clus>
<clus scale="   79.539">  5  6 -1 -1</clus>
<clus scale="   92.699">  7  8 -1 -1</clus>
<clus scale="  108.831">  2  5  1 -1</clus>
<clus scale="   40.002">  1  5  2 -1</clus>
</clustering>
</event>
<event>
 9    1  0.9171696E-005  0.1005375E+03  0.7546771E-02  0.1285622E+00
         21   -1    0    0  501  502  0.00000000000E+00  0.00000000000E+00  0.84228366736E+02  0.84228366736E+02  0.00000000000E+00 0.  1.
          1   -1    0    0  502    0 -0.00000000000E+00 -0.00000000000E+00 -0.31640495362E+03  0.31640495362E+03  0.00000000000E+00 0. -1.
         23    2    1    2    0    0 -0.32636962243E+02 -0.16081366828E+02 -0.19115551185E+03  0.21562054349E+03  0.92887067985E+02 0.  0.
        -24    2    1    2    0    0  0.61673624394E+02 -0.27361228818E+02  0.17818380809E+02  0.10632053819E+03  0.80214022197E+02 0.  0.
         13    1    4    4    0    0  0.48916257249E+02 -0.15264996884E+02 -0.27183502098E+02  0.58006578415E+02  0.00000000000E+00 0. -1.
        -14    1    4    4    0    0  0.12757367146E+02 -0.12096231935E+02  0.45001882907E+02  0.48313959771E+02  0.00000000000E+00 0.  1.
        -13    1    3    3    0    0 -0.76116333767E+01 -0.53854427939E+02 -0.10793640647E+03  0.12086564530E+03  0.00000000000E+00 0. -1.
         13    1    3    3    0    0 -0.25025328866E+02  0.37773061111E+02 -0.83219105382E+02  0.94754898191E+02  0.00000000000E+00 0.  1.
          2    1    1    2  501    0 -0.29036662151E+02  0.43442595647E+02 -0.58839455841E+02  0.78692238684E+02  0.00000000000E+00 0. -1.
<scales pt_clust_5="13000.00000" pt_clust_6="13000.00000" pt_clust_7="13000.00000" pt_clust_8="13000.00000" pt_clust_9="52.25313"></scales>
<clustering>
<clus scale="   52.253">  1  9  2 -1</clus>
<clus scale="   80.214">  5  6 -1 -1</clus>
<clus scale="   88.961">  1  5  2 -1</clus>
<clus scale="   92.887">  7  8 -1 -1</clus>
<clus scale="   52.253">  1  5  2 -1</clus>
</clustering>
</event>
<event>
 9    1  0.9171696E-005  0.1086104E+03  0.7546771E-02  0.1274919E+00
         21   -1    0    0  501  502  0.00000000000E+00  0.00000000000E+00  0.57797730622E+03  0.57797730622E+03  0.00000000000E+00 0. -1.
         -2   -1    0    0    0  501 -0.00000000000E+00 -0.00000000000E+00 -0.10413445763E+03  0.10413445763E+03  0.00000000000E+00 0.  1.
         23    2    1    2    0    0  0.92502243508E+01 -0.89756518484E+01 -0.10013242856E+02  0.87074539062E+02  0.85531171766E+02 0.  0.
        -24    2    1    2    0    0  0.34457885583E+02 -0.68790292591E+02  0.49367983110E+03  0.50529065466E+03  0.75361925547E+02 0.  0.
         13    1    4    4    0    0  0.39018558171E+02 -0.82316922811E+02  0.38249799330E+03  0.39319618327E+03  0.00000000000E+00 0. -1.
        -14    1    4    4    0    0 -0.45606725877E+01  0.13526630220E+02  0.11118183780E+03  0.11209447139E+03  0.00000000000E+00 0.  1.
        -13    1    3    3    0    0  0.33838636394E+02 -0.25293711903E+02  0.18426271169E+02  0.46090700190E+02  0.00000000000E+00 0. -1.
         13    1    3    3    0    0 -0.24588412043E+02  0.16318060054E+02 -0.28439514025E+02  0.40983838872E+02  0.00000000000E+00 0.  1.
         -1    1    1    2    0  502 -0.43708109934E+02  0.77765944439E+02 -0.98237396472E+01  0.89746570125E+02  0.00000000000E+00 0.  1.
<scales pt_clust_5="13000.00000" pt_clust_6="13000.00000" pt_clust_7="13000.00000" pt_clust_8="13000.00000" pt_clust_9="78.20999"></scales>
<clustering>
<clus scale="   75.362">  5  6 -1 -1</clus>
<clus scale="   85.531">  7  8 -1 -1</clus>
<clus scale="   86.497">  2  7  1 -1</clus>
<clus scale="   78.210">  1  9  2 -1</clus>
<clus scale="   78.210">  1  5  2 -1</clus>
</clustering>
</event>
<event>
 9    1  0.9171696E-005  0.1532059E+03  0.7546771E-02  0.1204495E+00
         21   -1    0    0  501  502  0.00000000000E+00  0.00000000000E+00  0.15097087059E+03  0.15097087059E+03  0.00000000000E+00 0.  1.
          1   -1    0    0  502    0 -0.00000000000E+00 -0.00000000000E+00 -0.17991698080E+03  0.17991698080E+03  0.00000000000E+00 0. -1.
        -24    2    1    2    0    0 -0.32263093210E+01 -0.89429807118E+02 -0.26708321019E+02  0.12492193624E+03  0.82970213152E+02 0.  0.
         23    2    1    2    0    0  0.16729935797E+02  0.11045857342E+03 -0.34207521901E+02  0.16538734014E+03  0.11705481848E+03 0.  0.
         13    1    3    3    0    0  0.22356484633E+02 -0.28574082704E+02 -0.43658880459E+02  0.56766085389E+02  0.00000000000E+00 0. -1.
        -14    1    3    3    0    0 -0.25582793954E+02 -0.60855724414E+02  0.16950559440E+02  0.68155850855E+02  0.00000000000E+00 0.  1.
        -13    1    4    4    0    0 -0.12868325569E+02  0.74109259348E+02 -0.72792810896E+02  0.10467363298E+03  0.00000000000E+00 0. -1.
         13    1    4    4    0    0  0.29598261366E+02  0.36349314071E+02  0.38585288995E+02  0.60713707152E+02  0.00000000000E+00 0.  1.
          2    1    1    2  501    0 -0.13503626476E+02 -0.21028766301E+02  0.31969732711E+02  0.40578575009E+02  0.00000000000E+00 0. -1.
<scales pt_clust_5="13000.00000" pt_clust_6="13000.00000" pt_clust_7="13000.00000" pt_clust_8="13000.00000" pt_clust_9="24.99114"></scales>
<clustering>
<clus scale="   24.991">  1  9  2 -1</clus>
<clus scale="   82.970">  5  6 -1 -1</clus>
<clus scale="  117.055">  7  8 -1 -1</clus>
<clus scale="  129.051">  2  5  1 -1</clus>
<clus scale="   24.991">  1  5  2 -1</clus>
</clustering>
</event>
<event>
 9    1  0.9171696E-005  0.2277704E+03  0.7546771E-02  0.1152747E+00
         -2   -1    0    0    0  501 -0.00000000000E+00  0.00000000000E+00  0.40354764008E+03  0.40354764008E+03  0.00000000000E+00 0.  1.
         21   -1    0    0  501  502  0.00000000000E+00 -0.00000000000E+00 -0.24503550267E+03  0.24503550267E+03  0.00000000000E+00 0.  1.
        -24    2    1    2    0    0 -0.71766965906E+02 -0.65284226416E+02  0.13529119652E+02  0.12683201752E+03  0.80565476325E+02 0.  0.
         23    2    1    2    0    0  0.25210948066E+03  0.10906240304E+03  0.16644510917E+03  0.33493417539E+03  0.94990154669E+02 0.  0.
         13    1    3    3    0    0 -0.27825427034E+02  0.16900857258E+02  0.77061157898E+01  0.33455606201E+02  0.00000000000E+00 0. -1.
        -14    1    3    3    0    0 -0.43941538872E+02 -0.82185083673E+02  0.58230038627E+01  0.93376411319E+02  0.00000000000E+00 0.  1.
        -11    1    4    4    0    0  0.11355357290E+03 -0.11033062163E+01  0.68781585516E+02  0.13276497170E+03  0.00000000000E+00 0. -1.
         11    1    4    4    0    0  0.13855590776E+03  0.11016570926E+03  0.97663523654E+02  0.20216920370E+03  0.00000000000E+00 0.  1.
         -1    1    1    2    0  502 -0.18034251475E+03 -0.43778176627E+02 -0.21462091416E+02  0.18681694983E+03  0.00000000000E+00 0.  1.
<scales pt_clust_5="13000.00000" pt_clust_6="13000.00000" pt_clust_7="13000.00000" pt_clust_8="13000.00000" pt_clust_9="207.01750"></scales>
<clustering>
<clus scale="   80.565">  5  6 -1 -1</clus>
<clus scale="   94.990">  7  8 -1 -1</clus>
<clus scale="  126.108">  1  5  2 -1</clus>
<clus scale="  207.018">  2  9  1 -1</clus>
<clus scale="  207.018">  2  5  1 -1</clus>
</clustering>
</event>
<event>
 9    1  0.9171696E-005  0.1242187E+03  0.7546771E-02  0.1239277E+00
         21   -1    0    0  501  502  0.00000000000E+00  0.00000000000E+00  0.11758871420E+04  0.11758871420E+04  0.00000000000E+00 0.  1.
          1   -1    0    0  502    0 -0.00000000000E+00 -0.00000000000E+00 -0.23980478275E+02  0.23980478275E+02  0.00000000000E+00 0. -1.
         23    2    1    2    0    0 -0.76663893131E+02 -0.21596353259E+02  0.26053598979E+03  0.28742041703E+03  0.91584601149E+02 0.  0.
        -24    2    1    2    0    0  0.99721396016E+02  0.15664881316E+01  0.85638880233E+03  0.86600826184E+03  0.81373940039E+02 0.  0.
         13    1    4    4    0    0  0.58812355104E+02 -0.27552529275E+02  0.27987485248E+03  0.28731162182E+03  0.00000000000E+00 0. -1.
        -14    1    4    4    0    0  0.40909040911E+02  0.29119017407E+02  0.57651394984E+03  0.57869664002E+03  0.00000000000E+00 0.  1.
        -11    1    3    3    0    0 -0.92359258596E+02  0.56585531808E+00  0.17806821957E+03  0.20059622046E+03  0.00000000000E+00 0. -1.
         11    1    3    3    0    0  0.15695365465E+02 -0.22162208577E+02  0.82467770219E+02  0.86824196576E+02  0.00000000000E+00 0.  1.
          2    1    1    2  501    0 -0.23057502885E+02  0.20029865127E+02  0.34981871570E+02  0.46438941362E+02  0.00000000000E+00 0. -1.
<scales pt_clust_5="13000.00000" pt_clust_6="13000.00000" pt_clust_7="13000.00000" pt_clust_8="13000.00000" pt_clust_9="30.54251"></scales>
<clustering>
<clus scale="   30.543">  1  9  2 -1</clus>
<clus scale="   81.374">  5  6 -1 -1</clus>
<clus scale="   91.585">  7  8 -1 -1</clus>
<clus scale="  116.894">  1  5  2 -1</clus>
<clus scale="   30.543">  1  5  2 -1</clus>
</clustering>
</event>
<event>
 9    1  0.9171696E-005  0.1033381E+03  0.7546771E-02  0.1279241E+00
         21   -1    0    0  501  502  0.00000000000E+00  0.00000000000E+00  0.15680474506E+03  0.15680474506E+03  0.00000000000E+00 0. -1.
          1   -1    0    0  502    0 -0.00000000000E+00 -0.00000000000E+00 -0.33186424660E+03  0.33186424660E+03  0.00000000000E+00 0. -1.
         23    2    1    2    0    0  0.32081293663E+02  0.43937022312E+02 -0.27311122686E+03  0.29353814553E+03  0.92818259585E+02 0.  0.
        -24    2    1    2    0    0  0.26402052266E+02 -0.19198140812E+02  0.11304435588E+02  0.87625468209E+02  0.80528227600E+02 0.  0.
         13    1    4    4    0    0  0.37890983632E+02 -0.25190033410E+01 -0.25412448597E+02  0.45693156622E+02  0.00000000000E+00 0. -1.
        -14    1    4    4    0    0 -0.11488931366E+02 -0.16679137471E+02  0.36716884186E+02  0.41932311587E+02  0.00000000000E+00 0.  1.
        -11    1    3    3    0    0  0.50369368199E+02  0.62288945863E+02 -0.18274569628E+03  0.19953189103E+03  0.00000000000E+00 0. -1.
         11    1    3    3    0    0 -0.18288074536E+02 -0.18351923552E+02 -0.90365530577E+02  0.94006254498E+02  0.00000000000E+00 0.  1.
          2    1    1    2  501    0 -0.58483345928E+02 -0.24738881499E+02  0.86747289725E+02  0.10750537793E+03  0.00000000000E+00 0. -1.
<scales pt_clust_5="13000.00000" pt_clust_6="13000.00000" pt_clust_7="13000.00000" pt_clust_8="13000.00000" pt_clust_9="63.50050"></scales>
<clustering>
<clus scale="   63.501">  1  9  2 -1</clus>
<clus scale="   80.528">  5  6 -1 -1</clus>
<clus scale="   92.457">  1  5  2 -1</clus>
<clus scale="   92.818">  7  8 -1 -1</clus>
<clus scale="   63.501">  1  5  2 -1</clus>
</clustering>
</event>
<event>
 9    1  0.9171696E-005  0.1124310E+03  0.7546771E-02  0.1261076E+00
          1   -1    0    0  502    0 -0.00000000000E+00  0.00000000000E+00  0.14476862059E+03  0.14476862059E+03  0.00000000000E+00 0. -1.
         21   -1    0    0  501  502  0.00000000000E+00 -0.00000000000E+00 -0.45698806048E+03  0.45698806048E+03  0.00000000000E+00 0. -1.
        -24    2    1    2    0    0  0.40951703202E+02  0.36964728446E+02  0.87574051796E+02  0.13161922371E+03  0.81307886195E+02 0.  0.
         23    2    1    2    0    0 -0.77323019347E+02 -0.73002959604E+02 -0.12057698124E+03  0.18626515078E+03  0.94061769912E+02 0.  0.
         13    1    3    3    0    0  0.38863300695E+02 -0.16574767430E+02  0.53300454625E+02  0.68014833084E+02  0.00000000000E+00 0. -1.
        -14    1    3    3    0    0  0.20884025071E+01  0.53539495876E+02  0.34273597171E+02  0.63604390624E+02  0.00000000000E+00 0.  1.
        -13    1    4    4    0    0 -0.33608534349E+02 -0.28041265799E+02 -0.11530612891E+03  0.12333429990E+03  0.00000000000E+00 0.  1.
         13    1    4    4    0    0 -0.43714484998E+02 -0.44961693804E+02 -0.52708523365E+01  0.62930850882E+02  0.00000000000E+00 0. -1.
          2    1    1    2  501    0  0.36371316145E+02  0.36038231158E+02 -0.27921651043E+03  0.28387230658E+03  0.00000000000E+00 0. -1.
<scales pt_clust_5="13000.00000" pt_clust_6="13000.00000" pt_clust_7="13000.00000" pt_clust_8="13000.00000" pt_clust_9="51.20182"></scales>
<clustering>
<clus scale="   51.202">  2  9  1 -1</clus>
<clus scale="   81.308">  5  6 -1 -1</clus>
<clus scale="   94.062">  7  8 -1 -1</clus>
<clus scale="  102.000">  1  5  2 -1</clus>
<clus scale="   51.202">  2  5  1 -1</clus>
</clustering>
</event>
<event>
 9    1  0.9171696E-005  0.1090861E+03  0.7546771E-02  0.1266240E+00
          1   -1    0    0  502    0 -0.00000000000E+00  0.00000000000E+00  0.57511283100E+03  0.57511283100E+03  0.00000000000E+00 0. -1.
         21   -1    0    0  501  502  0.00000000000E+00 -0.00000000000E+00 -0.32207760365E+02  0.32207760365E+02  0.00000000000E+00 0.  1.
        -24    2    1    2    0    0  0.93011876222E+01  0.49303828880E+02  0.26732516484E+03  0.28386546572E+03  0.81237178924E+02 0.  0.
         23    2    1    2    0    0  0.62014002598E+01 -0.85415616979E+02  0.17193917257E+03  0.21261382894E+03  0.91144260404E+02 0.  0.
         13    1    3    3    0    0 -0.30755115130E+02  0.68555047547E+01  0.14427031548E+03  0.14767125306E+03  0.00000000000E+00 0. -1.
        -14    1    3    3    0    0  0.40056302752E+02  0.42448324125E+02  0.12305484936E+03  0.13619421266E+03  0.00000000000E+00 0.  1.
        -13    1    4    4    0    0  0.42269205051E+02 -0.44462989557E+02  0.13013580486E+03  0.14387136909E+03  0.00000000000E+00 0. -1.
         13    1    4    4    0    0 -0.36067804791E+02 -0.40952627421E+02  0.41803367705E+02  0.68742459853E+02  0.00000000000E+00 0.  1.
          2    1    1    2  501    0 -0.15502587882E+02  0.36111788099E+02  0.10364073322E+03  0.11084129670E+03  0.00000000000E+00 0. -1.
<scales pt_clust_5="13000.00000" pt_clust_6="13000.00000" pt_clust_7="13000.00000" pt_clust_8="13000.00000" pt_clust_9="39.29877"></scales>
<clustering>
<clus scale="   39.299">  2  9  1 -1</clus>
<clus scale="   81.237">  5  6 -1 -1</clus>
<clus scale="   91.144">  7  8 -1 -1</clus>
<clus scale="  100.955">  1  5  2 -1</clus>
<clus scale="   39.299">  2  5  1 -1</clus>
</clustering>
</event>
<event>
 9    1  0.9171696E-005  0.8845549E+02  0.7546771E-02  0.1315520E+00
         21   -1    0    0  501  502  0.00000000000E+00  0.00000000000E+00  0.24973795513E+02  0.24973795513E+02  0.00000000000E+00 0.  1.
          1   -1    0    0  502    0 -0.00000000000E+00 -0.00000000000E+00 -0.46754653023E+03  0.46754653023E+03  0.00000000000E+00 0. -1.
         23    2    1    2    0    0  0.47862092093E+01  0.45489797614E+02 -0.17259770215E+03  0.19045938987E+03  0.66276563859E+02 0.  0.
        -24    2    1    2    0    0  0.31488328698E+02 -0.18989218024E+02 -0.15579160264E+03  0.17935813033E+03  0.80908653528E+02 0.  0.
         11    1    4    4    0    0 -0.31246502493E+01  0.24428737163E+02 -0.89790028831E+02  0.93106261422E+02  0.00000000000E+00 0. -1.
        -12    1    4    4    0    0  0.34612978947E+02 -0.43417955187E+02 -0.66001573810E+02  0.86251868905E+02  0.00000000000E+00 0.  1.
        -11    1    3    3    0    0 -0.12691176485E+02  0.20928175697E+02 -0.12376256122E+02  0.27426742682E+02  0.00000000000E+00 0.  1.
         11    1    3    3    0    0  0.17477385694E+02  0.24561621917E+02 -0.16022144603E+03  0.16303264719E+03  0.00000000000E+00 0. -1.
          2    1    1    2  501    0 -0.36274537907E+02 -0.26500579590E+02 -0.11418342993E+03  0.12270280555E+03  0.00000000000E+00 0. -1.
<scales pt_clust_5="13000.00000" pt_clust_6="13000.00000" pt_clust_7="13000.00000" pt_clust_8="13000.00000" pt_clust_9="44.92354"></scales>
<clustering>
<clus scale="   44.924">  1  9  2 -1</clus>
<clus scale="   66.277">  7  8 -1 -1</clus>
<clus scale="   75.304">  2  7  1 -1</clus>
<clus scale="   80.909">  5  6 -1 -1</clus>
<clus scale="   44.924">  1  5  2 -1</clus>
</clustering>
</event>
<event>
 9    1  0.9171696E-005  0.1793095E+03  0.7546771E-02  0.1169520E+00
         21   -1    0    0  501  502  0.00000000000E+00  0.00000000000E+00  0.22068085613E+03  0.22068085613E+03  0.00000000000E+00 0. -1.
          3   -1    0    0  502    0 -0.00000000000E+00 -0.00000000000E+00 -0.35825373610E+03  0.35825373610E+03  0.00000000000E+00 0. -1.
         23    2    1    2    0    0  0.19909894455E+03 -0.13085015572E+02 -0.20014834484E+03  0.29628165868E+03  0.88948602992E+02 0.  0.
        -24    2    1    2    0    0 -0.95962880518E+02  0.57737190791E+02 -0.25338217843E+02  0.13996558280E+03  0.80036750606E+02 0.  0.
         11    1    4    4    0    0  0.52094428769E+01  0.23814627052E+02 -0.22570140336E+02  0.33221769843E+02  0.00000000000E+00 0. -1.
        -12    1    4    4    0    0 -0.10117232339E+03  0.33922563739E+02 -0.27680775075E+01  0.10674381296E+03  0.00000000000E+00 0.  1.
        -11    1    3    3    0    0  0.17425055125E+03  0.68065149035E+01 -0.12466453395E+03  0.21436144542E+03  0.00000000000E+00 0.  1.
         11    1    3    3    0    0  0.24848393294E+02 -0.19891530475E+02 -0.75483810889E+02  0.81920213258E+02  0.00000000000E+00 0. -1.
          4    1    1    2  501    0 -0.10313606403E+03 -0.44652175220E+02  0.87913682711E+02  0.14268735075E+03  0.00000000000E+00 0. -1.
<scales pt_clust_5="13000.00000" pt_clust_6="13000.00000" pt_clust_7="13000.00000" pt_clust_8="13000.00000" pt_clust_9="112.38712"></scales>
<clustering>
<clus scale="   80.037">  5  6 -1 -1</clus>
<clus scale="   88.949">  7  8 -1 -1</clus>
<clus scale="  112.387">  1  9  2 -1</clus>
<clus scale="  175.060">  1  5  2 -1</clus>
<clus scale="  112.387">  1  5  2 -1</clus>
</clustering>
</event>
<event>
 9    1  0.9171696E-005  0.1356077E+03  0.7546771E-02  0.1237171E+00
          1   -1    0    0  502    0 -0.00000000000E+00  0.00000000000E+00  0.39797348232E+03  0.39797348232E+03  0.00000000000E+00 0. -1.
         21   -1    0    0  501  502  0.00000000000E+00 -0.00000000000E+00 -0.40737031098E+03  0.40737031098E+03  0.00000000000E+00 0. -1.
        -24    2    1    2    0    0 -0.13164884930E+02 -0.45212182422E+02  0.27611578603E+03  0.29160832639E+03  0.81105074371E+02 0.  0.
         23    2    1    2    0    0 -0.75461474421E+02 -0.61294590702E+01  0.74099724377E+02  0.13982153278E+03  0.91253972444E+02 0.  0.
         11    1    3    3    0    0 -0.32954749125E+02 -0.35072417301E+02  0.25930356187E+03  0.26373173329E+03  0.00000000000E+00 0. -1.
        -12    1    3    3    0    0  0.19789864195E+02 -0.10139765121E+02  0.16812224161E+02  0.27876593099E+02  0.00000000000E+00 0.  1.
        -11    1    4    4    0    0 -0.20881395305E+02 -0.31525062148E+02 -0.73687143737E+01  0.38524799349E+02  0.00000000000E+00 0. -1.
         11    1    4    4    0    0 -0.54580079116E+02  0.25395603078E+02  0.81468438751E+02  0.10129673343E+03  0.00000000000E+00 0.  1.
          2    1    1    2  501    0  0.88626359351E+02  0.51341641492E+02 -0.35961233907E+03  0.37391393413E+03  0.00000000000E+00 0. -1.
<scales pt_clust_5="13000.00000" pt_clust_6="13000.00000" pt_clust_7="13000.00000" pt_clust_8="13000.00000" pt_clust_9="100.31026"></scales>
<clustering>
<clus scale="   81.105">  5  6 -1 -1</clus>
<clus scale="   91.254">  7  8 -1 -1</clus>
<clus scale="   93.784">  1  5  2 -1</clus>
<clus scale="  100.310">  2  9  1 -1</clus>
<clus scale="  100.310">  2  5  1 -1</clus>
</clustering>
</event>
<event>
 9    1  0.9171696E-005  0.1776604E+03  0.7546771E-02  0.1174015E+00
         21   -1    0    0  501  502  0.00000000000E+00  0.00000000000E+00  0.12655059118E+03  0.12655059118E+03  0.00000000000E+00 0.  1.
          1   -1    0    0  502    0 -0.00000000000E+00 -0.00000000000E+00 -0.53007770178E+03  0.53007770178E+03  0.00000000000E+00 0. -1.
        -24    2    1    2    0    0 -0.13314782487E+03  0.20570007507E+02 -0.17220079603E+03  0.23276948342E+03  0.79856432320E+02 0.  0.
         23    2    1    2    0    0  0.14518993194E+03  0.83214029371E+02 -0.24816721590E+03  0.31802991645E+03  0.10747729850E+03 0.  0.
         13    1    3    3    0    0 -0.80669952774E+02 -0.75592094229E+01 -0.14753901098E+03  0.16832273373E+03  0.00000000000E+00 0. -1.
        -14    1    3    3    0    0 -0.52477872092E+02  0.28129216930E+02 -0.24661785051E+02  0.64446749695E+02  0.00000000000E+00 0.  1.
        -13    1    4    4    0    0  0.34315642537E+02 -0.11011758822E+02 -0.75229392277E+01  0.36815985247E+02  0.00000000000E+00 0.  1.
         13    1    4    4    0    0  0.11087428940E+03  0.94225788193E+02 -0.24064427667E+03  0.28121393121E+03  0.00000000000E+00 0. -1.
          2    1    1    2  501    0 -0.12042107074E+02 -0.10378403688E+03  0.16840901334E+02  0.10582889308E+03  0.00000000000E+00 0. -1.
<scales pt_clust_5="13000.00000" pt_clust_6="13000.00000" pt_clust_7="13000.00000" pt_clust_8="13000.00000" pt_clust_9="104.48033"></scales>
<clustering>
<clus scale="   79.856">  5  6 -1 -1</clus>
<clus scale="  104.480">  1  9  2 -1</clus>
<clus scale="  107.477">  7  8 -1 -1</clus>
<clus scale="  162.447">  2  5  1 -1</clus>
<clus scale="  104.480">  1  5  2 -1</clus>
</clustering>
</event>
<event>
 9    1  0.9171696E-005  0.1456190E+03  0.7546771E-02  0.1207401E+00
          1   -1    0    0  502    0 -0.00000000000E+00  0.00000000000E+00  0.72490738522E+03  0.72490738522E+03  0.00000000000E+00 0. -1.
         21   -1    0    0  501  502  0.00000000000E+00 -0.00000000000E+00 -0.46483092480E+02  0.46483092480E+02  0.00000000000E+00 0. -1.
        -24    2    1    2    0    0  0.31712253496E+01 -0.11085552572E+03  0.43764363584E+03  0.45833910711E+03  0.79017598403E+02 0.  0.
         23    2    1    2    0    0  0.11177595975E+02  0.13682837229E+03  0.16418062029E+03  0.23090489751E+03  0.86688254682E+02 0.  0.
         13    1    3    3    0    0  0.37126827070E+02 -0.66028040825E+02  0.30501717991E+03  0.31428264906E+03  0.00000000000E+00 0. -1.
        -14    1    3    3    0    0 -0.33955601720E+02 -0.44827484896E+02  0.13262645593E+03  0.14405645804E+03  0.00000000000E+00 0.  1.
        -11    1    4    4    0    0  0.24074410837E+02 -0.51219158880E+00  0.19328585532E+02  0.30877723622E+02  0.00000000000E+00 0.  1.
         11    1    4    4    0    0 -0.12896814863E+02  0.13734056388E+03  0.14485203476E+03  0.20002717389E+03  0.00000000000E+00 0. -1.
          2    1    1    2  501    0 -0.14348821324E+02 -0.25972846566E+02  0.76600036612E+02  0.82146473090E+02  0.00000000000E+00 0. -1.
<scales pt_clust_5="13000.00000" pt_clust_6="13000.00000" pt_clust_7="13000.00000" pt_clust_8="13000.00000" pt_clust_9="29.67285"></scales>
<clustering>
<clus scale="   29.673">  2  9  1 -1</clus>
<clus scale="   79.018">  5  6 -1 -1</clus>
<clus scale="   86.688">  7  8 -1 -1</clus>
<clus scale="  141.187">  1  5  2 -1</clus>
<clus scale="   29.673">  2  5  1 -1</clus>
</clustering>
</event>
<event>
 9    1  0.9171696E-005  0.1452931E+03  0.7546771E-02  0.1208902E+00
         -2   -1    0    0    0  501 -0.00000000000E+00  0.00000000000E+00  0.94836714711E+03  0.94836714711E+03  0.00000000000E+00 0.  1.
         21   -1    0    0  501  502  0.00000000000E+00 -0.00000000000E+00 -0.53612395514E+02  0.53612395514E+02  0.00000000000E+00 0. -1.
        -24    2    1    2    0    0 -0.15225153250E+02  0.10728497800E+03  0.73502970173E+03  0.74732759363E+03  0.80548109761E+02 0.  0.
         23    2    1    2    0    0 -0.20886787550E+01 -0.13062159323E+03  0.15863308646E+03  0.22557345568E+03  0.93019162490E+02 0.  0.
         13    1    3    3    0    0 -0.26717313725E+02  0.19269670287E+02  0.83230475309E+02  0.89512273269E+02  0.00000000000E+00 0. -1.
        -14    1    3    3    0    0  0.11492160474E+02  0.88015307710E+02  0.65179922642E+03  0.65781532036E+03  0.00000000000E+00 0.  1.
        -13    1    4    4    0    0  0.25674553062E+02 -0.40673381634E+01  0.86927136561E+01  0.27409654966E+02  0.00000000000E+00 0.  1.
         13    1    4    4    0    0 -0.27763231817E+02 -0.12655425507E+03  0.14994037281E+03  0.19816380071E+03  0.00000000000E+00 0. -1.
         -1    1    1    2    0  502  0.17313832005E+02  0.23336615232E+02  0.10919634051E+01  0.29078493311E+02  0.00000000000E+00 0.  1.
<scales pt_clust_5="13000.00000" pt_clust_6="13000.00000" pt_clust_7="13000.00000" pt_clust_8="13000.00000" pt_clust_9="29.05798"></scales>
<clustering>
<clus scale="   29.058">  2  9  1 -1</clus>
<clus scale="   80.548">  5  6 -1 -1</clus>
<clus scale="   93.019">  7  8 -1 -1</clus>
<clus scale="  137.643">  1  5  2 -1</clus>
<clus scale="   29.058">  2  5  1 -1</clus>
</clustering>
</event>
<event>
 9    1  0.9171696E-005  0.1597046E+03  0.7546771E-02  0.1196176E+00
         -4   -1    0    0    0  501 -0.00000000000E+00  0.00000000000E+00  0.24120105303E+03  0.24120105303E+03  0.00000000000E+00 0.  1.
         21   -1    0    0  501  502  0.00000000000E+00 -0.00000000000E+00 -0.43956867200E+03  0.43956867200E+03  0.00000000000E+00 0.  1.
        -24    2    1    2    0    0  0.10648190619E+03 -0.30184679010E+02  0.24898316721E+02  0.13872917831E+03  0.79852035335E+02 0.  0.
         23    2    1    2    0    0  0.11409760138E+03  0.40030647405E+02 -0.27653553485E+03  0.31490641796E+03  0.89852293607E+02 0.  0.
         13    1    3    3    0    0  0.98441090930E+02 -0.29106818047E+01 -0.34945479431E+01  0.98546092349E+02  0.00000000000E+00 0. -1.
        -14    1    3    3    0    0  0.80408152572E+01 -0.27273997206E+02  0.28392864664E+02  0.40183085962E+02  0.00000000000E+00 0.  1.
        -13    1    4    4    0    0  0.48538610038E+02 -0.26706390706E+02 -0.12642454524E+03  0.13803040827E+03  0.00000000000E+00 0.  1.
         13    1    4    4    0    0  0.65558991341E+02  0.66737038111E+02 -0.15011098961E+03  0.17687600969E+03  0.00000000000E+00 0. -1.
         -3    1    1    2    0  502 -0.22057950757E+03 -0.98459683944E+01  0.53269599161E+02  0.22713412876E+03  0.00000000000E+00 0.  1.
<scales pt_clust_5="13000.00000" pt_clust_6="13000.00000" pt_clust_7="13000.00000" pt_clust_8="13000.00000" pt_clust_9="132.03088"></scales>
<clustering>
<clus scale="   79.852">  5  6 -1 -1</clus>
<clus scale="   89.852">  7  8 -1 -1</clus>
<clus scale="  136.477">  1  5  2 -1</clus>
<clus scale="  132.031">  2  9  1 -1</clus>
<clus scale="  132.031">  2  5  1 -1</clus>
</clustering>
</event>
<event>
 9    1  0.9171696E-005  0.1197504E+03  0.7546771E-02  0.1247439E+00
          1   -1    0    0  502    0 -0.00000000000E+00  0.00000000000E+00  0.64490174115E+03  0.64490174115E+03  0.00000000000E+00 0. -1.
         21   -1    0    0  501  502  0.00000000000E+00 -0.00000000000E+00 -0.62681147938E+02  0.62681147938E+02  0.00000000000E+00 0.  1.
        -24    2    1    2    0    0 -0.66507549424E+00  0.77468389182E+02  0.53877692138E+03  0.54997223517E+03  0.78658087942E+02 0.  0.
         23    2    1    2    0    0 -0.22328588008E+02 -0.80123194123E+02  0.50750013797E+02  0.13333846441E+03  0.91023568986E+02 0.  0.
         11    1    3    3    0    0  0.18007139408E+02 -0.10111452763E+02  0.88555661444E+02  0.90931863065E+02  0.00000000000E+00 0. -1.
        -12    1    3    3    0    0 -0.18672214902E+02  0.87579841945E+02  0.45022125994E+03  0.45904037211E+03  0.00000000000E+00 0.  1.
        -13    1    4    4    0    0  0.25984015581E+02 -0.22755542492E+02 -0.10935027213E+02  0.36229250612E+02  0.00000000000E+00 0. -1.
         13    1    4    4    0    0 -0.48312603589E+02 -0.57367651631E+02  0.61685041010E+02  0.97109213794E+02  0.00000000000E+00 0.  1.
          2    1    1    2  501    0  0.22993663502E+02  0.26548049408E+01 -0.73063419692E+01  0.24272189508E+02  0.00000000000E+00 0. -1.
<scales pt_clust_5="13000.00000" pt_clust_6="13000.00000" pt_clust_7="13000.00000" pt_clust_8="13000.00000" pt_clust_9="23.14642"></scales>
<clustering>
<clus scale="   23.146">  2  9  1 -1</clus>
<clus scale="   78.658">  5  6 -1 -1</clus>
<clus scale="   91.024">  7  8 -1 -1</clus>
<clus scale="  110.643">  1  5  2 -1</clus>
<clus scale="   23.146">  2  5  1 -1</clus>
</clustering>
</event>
<event>
 9    1  0.9171696E-005  0.9505028E+02  0.7546771E-02  0.1298131E+00
          1   -1    0    0  502    0 -0.00000000000E+00  0.00000000000E+00  0.19418291654E+03  0.19418291654E+03  0.00000000000E+00 0. -1.
         21   -1    0    0  501  502  0.00000000000E+00 -0.00000000000E+00 -0.15672458963E+03  0.15672458963E+03  0.00000000000E+00 0. -1.
         23    2    1    2    0    0 -0.52987541106E+01 -0.20699140774E+02  0.15835140382E+03  0.18499806034E+03  0.93234028199E+02 0.  0.
        -24    2    1    2    0    0  0.54600358984E+01 -0.18215005933E+00 -0.58960064257E+02  0.10055080160E+03  0.81267025009E+02 0.  0.
         13    1    4    4    0    0  0.31739594523E+02  0.18234815030E+02 -0.38872781911E+01  0.36810613570E+02  0.00000000000E+00 0. -1.
        -14    1    4    4    0    0 -0.26279558624E+02 -0.18416965090E+02 -0.55072786066E+02  0.63740188027E+02  0.00000000000E+00 0.  1.
        -13    1    3    3    0    0 -0.15809749205E+02 -0.42515556365E+02  0.15381046222E+03  0.16035953040E+03  0.00000000000E+00 0. -1.
         13    1    3    3    0    0  0.10510995094E+02  0.21816415591E+02  0.45409416068E+01  0.24638529943E+02  0.00000000000E+00 0.  1.
          2    1    1    2  501    0 -0.16128178788E+00  0.20881290834E+02 -0.61933012654E+02  0.65358644227E+02  0.00000000000E+00 0. -1.
<scales pt_clust_5="13000.00000" pt_clust_6="13000.00000" pt_clust_7="13000.00000" pt_clust_8="13000.00000" pt_clust_9="20.88191"></scales>
<clustering>
<clus scale="   20.882">  2  9  1 -1</clus>
<clus scale="   81.267">  5  6 -1 -1</clus>
<clus scale="   83.344">  2  5  1 -1</clus>
<clus scale="   93.234">  7  8 -1 -1</clus>
<clus scale="   20.882">  2  5  1 -1</clus>
</clustering>
</event>
<event>
 9    1  0.9171696E-005  0.1000999E+03  0.7546771E-02  0.1284232E+00
         21   -1    0    0  501  502  0.00000000000E+00  0.00000000000E+00  0.30237755759E+03  0.30237755759E+03  0.00000000000E+00 0.  1.
          3   -1    0    0  502    0 -0.00000000000E+00 -0.00000000000E+00 -0.85090067900E+02  0.85090067900E+02  0.00000000000E+00 0. -1.
        -24    2    1    2    0    0 -0.34142850063E+02  0.29822297282E+02 -0.39552119761E+02  0.10073246001E+03  0.80793283729E+02 0.  0.
         23    2    1    2    0    0  0.15764270900E+02 -0.46777527182E+02  0.19700997671E+03  0.22189045138E+03  0.89363259817E+02 0.  0.
         11    1    3    3    0    0  0.89714763537E+01  0.35092136898E+02 -0.44090680758E+02  0.57060788549E+02  0.00000000000E+00 0. -1.
        -12    1    3    3    0    0 -0.43114326417E+02 -0.52698396165E+01  0.45385609973E+01  0.43671671458E+02  0.00000000000E+00 0.  1.
        -11    1    4    4    0    0 -0.34228957455E+02 -0.13397990541E+02  0.43028756200E+02  0.56591532398E+02  0.00000000000E+00 0. -1.
         11    1    4    4    0    0  0.49993228356E+02 -0.33379536641E+02  0.15398122051E+03  0.16529891898E+03  0.00000000000E+00 0.  1.
          4    1    1    2  501    0  0.18378579163E+02  0.16955229900E+02  0.59829632739E+02  0.64844714100E+02  0.00000000000E+00 0. -1.
<scales pt_clust_5="13000.00000" pt_clust_6="13000.00000" pt_clust_7="13000.00000" pt_clust_8="13000.00000" pt_clust_9="25.00504"></scales>
<clustering>
<clus scale="   25.005">  1  9  2 -1</clus>
<clus scale="   80.793">  5  6 -1 -1</clus>
<clus scale="   89.363">  7  8 -1 -1</clus>
<clus scale="   92.530">  2  5  1 -1</clus>
<clus scale="   25.005">  1  5  2 -1</clus>
</clustering>
</event>
<event>
 9    1  0.9171696E-005  0.1076162E+03  0.7546771E-02  0.1269842E+00
          3   -1    0    0  502    0 -0.00000000000E+00  0.00000000000E+00  0.77634608743E+02  0.77634608743E+02  0.00000000000E+00 0. -1.
         21   -1    0    0  501  502  0.00000000000E+00 -0.00000000000E+00 -0.31849273473E+03  0.31849273473E+03  0.00000000000E+00 0.  1.
        -24    2    1    2    0    0 -0.34383927303E+01  0.56011718240E+02  0.72565797155E+01  0.98005233981E+02  0.80020202535E+02 0.  0.
         23    2    1    2    0    0 -0.18914293305E+02 -0.60458798198E+02 -0.25155847603E+03  0.27507262692E+03  0.91489160273E+02 0.  0.
         13    1    3    3    0    0  0.59512010120E+01  0.75288508778E+02  0.50376884752E+00  0.75525029828E+02  0.00000000000E+00 0. -1.
        -14    1    3    3    0    0 -0.93895937423E+01 -0.19276790538E+02  0.67528108680E+01  0.22480204152E+02  0.00000000000E+00 0.  1.
        -13    1    4    4    0    0  0.27645301588E+02 -0.44374177533E+02 -0.72647178649E+02  0.89503870851E+02  0.00000000000E+00 0.  1.
         13    1    4    4    0    0 -0.46559594893E+02 -0.16084620665E+02 -0.17891129738E+03  0.18556875607E+03  0.00000000000E+00 0. -1.
          4    1    1    2  501    0  0.22352686035E+02  0.44470799582E+01  0.34437703209E+01  0.23049482579E+02  0.00000000000E+00 0. -1.
<scales pt_clust_5="13000.00000" pt_clust_6="13000.00000" pt_clust_7="13000.00000" pt_clust_8="13000.00000" pt_clust_9="22.79078"></scales>
<clustering>
<clus scale="   22.791">  2  9  1 -1</clus>
<clus scale="   80.020">  5  6 -1 -1</clus>
<clus scale="   91.489">  7  8 -1 -1</clus>
<clus scale="   98.052">  1  5  2 -1</clus>
<clus scale="   22.791">  2  5  1 -1</clus>
</clustering>
</event>
<event>
 9    1  0.9171696E-005  0.1420321E+03  0.7546771E-02  0.1213536E+00
         21   -1    0    0  501  502  0.00000000000E+00  0.00000000000E+00  0.17759398532E+03  0.17759398532E+03  0.00000000000E+00 0.  1.
         -2   -1    0    0    0  501 -0.00000000000E+00 -0.00000000000E+00 -0.20428919762E+03  0.20428919762E+03  0.00000000000E+00 0.  1.
         23    2    1    2    0    0  0.10772703283E+03  0.60245571898E+02 -0.54534697109E+01  0.15513985510E+03  0.93829588997E+02 0.  0.
        -24    2    1    2    0    0 -0.35097293096E+02 -0.97352116265E+02  0.24453744424E+02  0.13325508119E+03  0.80309878118E+02 0.  0.
         13    1    4    4    0    0 -0.20470015993E+02 -0.10422477594E+03  0.28227965889E+01  0.10625344067E+03  0.00000000000E+00 0. -1.
        -14    1    4    4    0    0 -0.14627277103E+02  0.68726596747E+01  0.21630947835E+02  0.27001640519E+02  0.00000000000E+00 0.  1.
        -13    1    3    3    0    0  0.84827019656E+02  0.85323427302E+02 -0.10644495938E+02  0.12078499826E+03  0.00000000000E+00 0.  1.
         13    1    3    3    0    0  0.22900013177E+02 -0.25077855404E+02  0.51910262275E+01  0.34354856840E+02  0.00000000000E+00 0. -1.
         -1    1    1    2    0  502 -0.72629739737E+02  0.37106544367E+02 -0.45695487008E+02  0.93488246652E+02  0.00000000000E+00 0.  1.
<scales pt_clust_5="13000.00000" pt_clust_6="13000.00000" pt_clust_7="13000.00000" pt_clust_8="13000.00000" pt_clust_9="81.55968"></scales>
<clustering>
<clus scale="   80.310">  5  6 -1 -1</clus>
<clus scale="   81.560">  1  9  2 -1</clus>
<clus scale="   93.830">  7  8 -1 -1</clus>
<clus scale="  133.487">  1  5  2 -1</clus>
<clus scale="   81.560">  1  5  2 -1</clus>
</clustering>
</event>
<event>
 9    1  0.9171696E-005  0.9986758E+02  0.7546771E-02  0.1285378E+00
          1   -1    0    0  502    0 -0.00000000000E+00  0.00000000000E+00  0.36922287404E+03  0.36922287404E+03  0.00000000000E+00 0. -1.
         21   -1    0    0  501  502  0.00000000000E+00 -0.00000000000E+00 -0.91594146389E+02  0.91594146389E+02  0.00000000000E+00 0.  1.
        -24    2    1    2    0    0  0.35594679342E+02 -0.15266195639E+02  0.61193075532E+02  0.10761566875E+03  0.79602146578E+02 0.  0.
         23    2    1    2    0    0 -0.35453493632E+02  0.59413051036E+02 -0.18141490479E+02  0.11450614728E+03  0.89418584444E+02 0.  0.
         13    1    3    3    0    0 -0.18749540821E+02 -0.77450172579E+01  0.46632819893E+02  0.50854207933E+02  0.00000000000E+00 0. -1.
        -14    1    3    3    0    0  0.54344220163E+02 -0.75211783807E+01  0.14560255639E+02  0.56761460813E+02  0.00000000000E+00 0.  1.
        -11    1    4    4    0    0 -0.32363517634E+02  0.37975225229E+02  0.32418674245E+02  0.59501978494E+02  0.00000000000E+00 0. -1.
         11    1    4    4    0    0 -0.30899759982E+01  0.21437825807E+02 -0.50560164724E+02  0.55004168787E+02  0.00000000000E+00 0.  1.
          2    1    1    2  501    0 -0.14118570997E+00 -0.44146855398E+02  0.23457714260E+03  0.23869520440E+03  0.00000000000E+00 0. -1.
<scales pt_clust_5="13000.00000" pt_clust_6="13000.00000" pt_clust_7="13000.00000" pt_clust_8="13000.00000" pt_clust_9="44.14710"></scales>
<clustering>
<clus scale="   44.147">  2  9  1 -1</clus>
<clus scale="   79.602">  5  6 -1 -1</clus>
<clus scale="   89.419">  7  8 -1 -1</clus>
<clus scale="   91.183">  1  5  2 -1</clus>
<clus scale="   44.147">  2  5  1 -1</clus>
</clustering>
</event>
<event>
 9    1  0.9171696E-005  0.1403153E+03  0.7546771E-02  0.1215385E+00
          1   -1    0    0  502    0 -0.00000000000E+00  0.00000000000E+00  0.16954854800E+03  0.16954854800E+03  0.00000000000E+00 0. -1.
         21   -1    0    0  501  502  0.00000000000E+00 -0.00000000000E+00 -0.30947479268E+03  0.30947479268E+03  0.00000000000E+00 0. -1.
         23    2    1    2    0    0  0.10403344441E+03 -0.53042676707E+01  0.33374726343E+02  0.14229700707E+03  0.91013587179E+02 0.  0.
        -24    2    1    2    0    0 -0.11778425386E+03  0.22364204002E+02 -0.23261256487E+03  0.27349666215E+03  0.79489186633E+02 0.  0.
         11    1    4    4    0    0 -0.12023098797E+03  0.17778736156E+02 -0.16114194540E+03  0.20183731194E+03  0.00000000000E+00 0. -1.
        -12    1    4    4    0    0  0.24467341097E+01  0.45854678456E+01 -0.71470619476E+02  0.71659350203E+02  0.00000000000E+00 0.  1.
        -13    1    3    3    0    0  0.93571733398E+02  0.28196156981E+02  0.41659334575E+02  0.10623649428E+03  0.00000000000E+00 0. -1.
         13    1    3    3    0    0  0.10461711012E+02 -0.33500424651E+02 -0.82846082328E+01  0.36060512790E+02  0.00000000000E+00 0.  1.
          2    1    1    2  501    0  0.13750809448E+02 -0.17059936331E+02  0.59311593848E+02  0.63229671460E+02  0.00000000000E+00 0. -1.
<scales pt_clust_5="13000.00000" pt_clust_6="13000.00000" pt_clust_7="13000.00000" pt_clust_8="13000.00000" pt_clust_9="21.91179"></scales>
<clustering>
<clus scale="   21.912">  2  9  1 -1</clus>
<clus scale="   79.489">  5  6 -1 -1</clus>
<clus scale="   91.014">  7  8 -1 -1</clus>
<clus scale="  133.129">  2  5  1 -1</clus>
<clus scale="   21.912">  2  5  1 -1</clus>
</clustering>
</event>
<event>
 9    1  0.9171696E-005  0.5971431E+03  0.7546771E-02  0.9911351E-01
         21   -1    0    0  501  502  0.00000000000E+00  0.00000000000E+00  0.28918936343E+03  0.28918936343E+03  0.00000000000E+00 0. -1.
          1   -1    0    0  502    0 -0.00000000000E+00 -0.00000000000E+00 -0.11549464992E+04  0.11549464992E+04  0.00000000000E+00 0. -1.
        -24    2    1    2    0    0 -0.11506755541E+02  0.13531294205E+03 -0.13680408046E+03  0.20817887395E+03  0.78619904720E+02 0.  0.
         23    2    1    2    0    0 -0.17654649144E+03  0.38691227860E+03 -0.25444015215E+03  0.50572024621E+03  0.10071445496E+03 0.  0.
         11    1    3    3    0    0  0.19312201187E+02  0.10711221096E+03 -0.70056990057E+02  0.12943712260E+03  0.00000000000E+00 0. -1.
        -12    1    3    3    0    0 -0.30818956728E+02  0.28200731093E+02 -0.66747090405E+02  0.78741751349E+02  0.00000000000E+00 0.  1.
        -11    1    4    4    0    0 -0.22557663178E+02  0.83453241584E+02 -0.99513444277E+02  0.13181888063E+03  0.00000000000E+00 0. -1.
         11    1    4    4    0    0 -0.15398882826E+03  0.30345903701E+03 -0.15492670787E+03  0.37390136558E+03  0.00000000000E+00 0.  1.
          2    1    1    2  501    0  0.18805324698E+03 -0.52222522065E+03 -0.47451290317E+03  0.73023674247E+03  0.00000000000E+00 0. -1.
<scales pt_clust_5="13000.00000" pt_clust_6="13000.00000" pt_clust_7="13000.00000" pt_clust_8="13000.00000" pt_clust_9="555.05271"></scales>
<clustering>
<clus scale="   78.620">  5  6 -1 -1</clus>
<clus scale="  100.714">  7  8 -1 -1</clus>
<clus scale="  116.106">  5  7 -1 -1</clus>
<clus scale="  555.053">  1  9  2 -1</clus>
<clus scale="  555.053">  1  5  2 -1</clus>
</clustering>
</event>
<event>
 9    1  0.9171696E-005  0.1259260E+03  0.7546771E-02  0.1237596E+00
         21   -1    0    0  501  502  0.00000000000E+00  0.00000000000E+00  0.54519410696E+03  0.54519410696E+03  0.00000000000E+00 0.  1.
          1   -1    0    0  502    0 -0.00000000000E+00 -0.00000000000E+00 -0.49652788828E+02  0.49652788828E+02  0.00000000000E+00 0. -1.
        -24    2    1    2    0    0  0.84656993757E+02 -0.62002454750E+01  0.77800446168E+02  0.14028078191E+03  0.80128264140E+02 0.  0.
         23    2    1    2    0    0 -0.74796292740E+02  0.51217941783E+02  0.34040735045E+03  0.36454222841E+03  0.93787574243E+02 0.  0.
         11    1    3    3    0    0  0.56637095176E+02 -0.36737619971E+02  0.22470464666E+02  0.71150088218E+02  0.00000000000E+00 0. -1.
        -12    1    3    3    0    0  0.28019898581E+02  0.30537374496E+02  0.55329981502E+02  0.69130693694E+02  0.00000000000E+00 0.  1.
        -13    1    4    4    0    0 -0.18666530766E+02  0.62256450494E+02  0.24336071520E+03  0.25189033864E+03  0.00000000000E+00 0.  1.
         13    1    4    4    0    0 -0.56129761974E+02 -0.11038508711E+02  0.97046635252E+02  0.11265188977E+03  0.00000000000E+00 0. -1.
          2    1    1    2  501    0 -0.98607010164E+01 -0.45017696308E+02  0.77333521518E+02  0.90023885473E+02  0.00000000000E+00 0. -1.
<scales pt_clust_5="13000.00000" pt_clust_6="13000.00000" pt_clust_7="13000.00000" pt_clust_8="13000.00000" pt_clust_9="46.08499"></scales>
<clustering>
<clus scale="   46.085">  1  9  2 -1</clus>
<clus scale="   80.128">  5  6 -1 -1</clus>
<clus scale="   93.788">  7  8 -1 -1</clus>
<clus scale="  116.111">  2  5  1 -1</clus>
<clus scale="   46.085">  1  5  2 -1</clus>
</clustering>
</event>
<event>
 9    1  0.9171696E-005  0.9482423E+02  0.7546771E-02  0.1297933E+00
         21   -1    0    0  501  502  0.00000000000E+00  0.00000000000E+00  0.89545182575E+02  0.89545182575E+02  0.00000000000E+00 0. -1.
         -4   -1    0    0    0  501 -0.00000000000E+00 -0.00000000000E+00 -0.16923895662E+03  0.16923895662E+03  0.00000000000E+00 0.  1.
         23    2    1    2    0    0 -0.26106159149E+02  0.19884623962E+02 -0.10280710595E+03  0.14125652570E+03  0.91143706333E+02 0.  0.
        -24    2    1    2    0    0  0.15968000494E+02  0.12018689121E+01 -0.39342114175E+01  0.81764615257E+02  0.80084659954E+02 0.  0.
         13    1    4    4    0    0 -0.30870565803E+02  0.82451661416E+01 -0.11172304113E+02  0.33849593452E+02  0.00000000000E+00 0. -1.
        -14    1    4    4    0    0  0.46838566297E+02 -0.70432972295E+01  0.72380926954E+01  0.47915021804E+02  0.00000000000E+00 0.  1.
        -11    1    3    3    0    0 -0.54037871950E+02 -0.10161738956E+02 -0.49439508827E+02  0.73943340312E+02  0.00000000000E+00 0. -1.
         11    1    3    3    0    0  0.27931712802E+02  0.30046362918E+02 -0.53367597126E+02  0.67313185392E+02  0.00000000000E+00 0.  1.
         -3    1    1    2    0  502  0.10138158655E+02 -0.21086492874E+02  0.27047543326E+02  0.35762998233E+02  0.00000000000E+00 0.  1.
<scales pt_clust_5="13000.00000" pt_clust_6="13000.00000" pt_clust_7="13000.00000" pt_clust_8="13000.00000" pt_clust_9="23.39706"></scales>
<clustering>
<clus scale="   23.397">  1  9  2 -1</clus>
<clus scale="   80.085">  5  6 -1 -1</clus>
<clus scale="   84.250">  1  5  2 -1</clus>
<clus scale="   91.144">  7  8 -1 -1</clus>
<clus scale="   23.397">  1  5  2 -1</clus>
</clustering>
</event>
<event>
 9    1  0.9171696E-005  0.1954419E+03  0.7546771E-02  0.1155290E+00
          1   -1    0    0  502    0 -0.00000000000E+00  0.00000000000E+00  0.17872492772E+03  0.17872492772E+03  0.00000000000E+00 0. -1.
         21   -1    0    0  501  502  0.00000000000E+00 -0.00000000000E+00 -0.36136824459E+03  0.36136824459E+03  0.00000000000E+00 0. -1.
        -24    2    1    2    0    0  0.15205851757E+03 -0.10872397087E+03 -0.21037315642E+01  0.20365974746E+03  0.80809482376E+02 0.  0.
         23    2    1    2    0    0 -0.85587886607E+02  0.10278771504E+03 -0.20686816125E+03  0.26469237785E+03  0.96835004305E+02 0.  0.
         11    1    3    3    0    0  0.31826099265E+02 -0.70317485116E+02 -0.56625173180E+01  0.77391946673E+02  0.00000000000E+00 0. -1.
        -12    1    3    3    0    0  0.12023241831E+03 -0.38406485754E+02  0.35587857538E+01  0.12626780079E+03  0.00000000000E+00 0.  1.
        -11    1    4    4    0    0 -0.23093301461E+02  0.88748396364E+02 -0.76437235104E+02  0.11938270118E+03  0.00000000000E+00 0.  1.
         11    1    4    4    0    0 -0.62494585146E+02  0.14039318674E+02 -0.13043092614E+03  0.14530967668E+03  0.00000000000E+00 0. -1.
          2    1    1    2  501    0 -0.66470630966E+02  0.59362558321E+01  0.26328575940E+02  0.71741047005E+02  0.00000000000E+00 0. -1.
<scales pt_clust_5="13000.00000" pt_clust_6="13000.00000" pt_clust_7="13000.00000" pt_clust_8="13000.00000" pt_clust_9="66.73521"></scales>
<clustering>
<clus scale="   66.735">  2  9  1 -1</clus>
<clus scale="   80.809">  5  6 -1 -1</clus>
<clus scale="   96.835">  7  8 -1 -1</clus>
<clus scale="  188.018">  1  5  2 -1</clus>
<clus scale="   66.735">  2  5  1 -1</clus>
</clustering>
</event>
<event>
 9    1  0.9171696E-005  0.1079991E+03  0.7546771E-02  0.1270127E+00
         21   -1    0    0  501  502  0.00000000000E+00  0.00000000000E+00  0.47492993047E+02  0.47492993047E+02  0.00000000000E+00 0.  1.
          1   -1    0    0  502    0 -0.00000000000E+00 -0.00000000000E+00 -0.84695361267E+03  0.84695361267E+03  0.00000000000E+00 0. -1.
        -24    2    1    2    0    0  0.30001162201E+02 -0.43673262898E+02 -0.73252928232E+03  0.73873810730E+03  0.79545069651E+02 0.  0.
         23    2    1    2    0    0 -0.46399043162E+02  0.56603474763E+02 -0.63854809681E+02  0.13460054017E+03  0.93182853217E+02 0.  0.
         11    1    3    3    0    0  0.16301819197E+02  0.21282405818E+02 -0.14376837338E+03  0.14624648813E+03  0.00000000000E+00 0. -1.
        -12    1    3    3    0    0  0.13699343004E+02 -0.64955668716E+02 -0.58876090893E+03  0.59249161917E+03  0.00000000000E+00 0.  1.
        -11    1    4    4    0    0 -0.23194517940E+02  0.75698422577E+02 -0.67871518788E+02  0.10428221280E+03  0.00000000000E+00 0. -1.
         11    1    4    4    0    0 -0.23204525222E+02 -0.19094947814E+02  0.40167091065E+01  0.30318327376E+02  0.00000000000E+00 0.  1.
          2    1    1    2  501    0  0.16397880961E+02 -0.12930211865E+02 -0.30765276261E+01  0.21107958241E+02  0.00000000000E+00 0. -1.
<scales pt_clust_5="13000.00000" pt_clust_6="13000.00000" pt_clust_7="13000.00000" pt_clust_8="13000.00000" pt_clust_9="20.88255"></scales>
<clustering>
<clus scale="   20.883">  1  9  2 -1</clus>
<clus scale="   79.545">  5  6 -1 -1</clus>
<clus scale="   93.183">  7  8 -1 -1</clus>
<clus scale="   96.479">  2  5  1 -1</clus>
<clus scale="   20.883">  1  5  2 -1</clus>
</clustering>
</event>
<event>
 9    1  0.9171696E-005  0.1220258E+03  0.7546771E-02  0.1268114E+00
         21   -1    0    0  501  502  0.00000000000E+00  0.00000000000E+00  0.60401978403E+02  0.60401978403E+02  0.00000000000E+00 0. -1.
          1   -1    0    0  502    0 -0.00000000000E+00 -0.00000000000E+00 -0.38596623410E+03  0.38596623410E+03  0.00000000000E+00 0. -1.
        -24    2    1    2    0    0 -0.11421353648E+02  0.89102298207E+01 -0.58242201742E+02  0.90712195229E+02  0.68019914620E+02 0.  0.
         23    2    1    2    0    0  0.77964656177E+02 -0.44123239808E+02 -0.68213458469E+02  0.14278939241E+03  0.87808808016E+02 0.  0.
         11    1    3    3    0    0  0.23345824386E+01  0.29747523366E+02 -0.58579753834E+02  0.65741562051E+02  0.00000000000E+00 0. -1.
        -12    1    3    3    0    0 -0.13755936086E+02 -0.20837293546E+02  0.33755209155E+00  0.24970633178E+02  0.00000000000E+00 0.  1.
        -13    1    4    4    0    0  0.41702814943E+02  0.12925954876E+02 -0.60705498168E+02  0.74775414352E+02  0.00000000000E+00 0.  1.
         13    1    4    4    0    0  0.36261841234E+02 -0.57049194684E+02 -0.75079603001E+01  0.68013978061E+02  0.00000000000E+00 0. -1.
          2    1    1    2  501    0 -0.66543302529E+02  0.35213009987E+02 -0.19910859548E+03  0.21286662486E+03  0.00000000000E+00 0. -1.
<scales pt_clust_5="13000.00000" pt_clust_6="13000.00000" pt_clust_7="13000.00000" pt_clust_8="13000.00000" pt_clust_9="84.73434"></scales>
<clustering>
<clus scale="   68.020">  5  6 -1 -1</clus>
<clus scale="   69.545">  2  5  1 -1</clus>
<clus scale="   84.734">  1  9  2 -1</clus>
<clus scale="   87.809">  7  8 -1 -1</clus>
<clus scale="   84.734">  1  5  2 -1</clus>
</clustering>
</event>
<event>
 9    1  0.9171696E-005  0.1207501E+03  0.7546771E-02  0.1252131E+00
          1   -1    0    0  502    0 -0.00000000000E+00  0.00000000000E+00  0.15354518305E+03  0.15354518305E+03  0.00000000000E+00 0. -1.
         21   -1    0    0  501  502  0.00000000000E+00 -0.00000000000E+00 -0.18284806858E+03  0.18284806858E+03  0.00000000000E+00 0.  1.
         23    2    1    2    0    0  0.40779888126E+02  0.55422304533E+02  0.81422668277E+02  0.15063031084E+03  0.10641996297E+03 0.  0.
        -24    2    1    2    0    0 -0.43208149064E+02 -0.60674752200E+01 -0.40070693749E+02  0.99542845230E+02  0.79995994511E+02 0.  0.
         13    1    4    4    0    0 -0.31906589844E+02 -0.42289464854E+02 -0.26596410787E+02  0.59277300713E+02  0.00000000000E+00 0. -1.
        -14    1    4    4    0    0 -0.11301559220E+02  0.36221989634E+02 -0.13474282962E+02  0.40265544516E+02  0.00000000000E+00 0.  1.
        -13    1    3    3    0    0  0.53145286748E+02 -0.16567633021E+01  0.74914178836E+02  0.91865665833E+02  0.00000000000E+00 0. -1.
         13    1    3    3    0    0 -0.12365398622E+02  0.57079067835E+02  0.65084894405E+01  0.58764645007E+02  0.00000000000E+00 0.  1.
          2    1    1    2  501    0  0.24282609382E+01 -0.49354829313E+02 -0.70654860057E+02  0.86220095554E+02  0.00000000000E+00 0. -1.
<scales pt_clust_5="13000.00000" pt_clust_6="13000.00000" pt_clust_7="13000.00000" pt_clust_8="13000.00000" pt_clust_9="49.41453"></scales>
<clustering>
<clus scale="   49.415">  2  9  1 -1</clus>
<clus scale="   79.996">  5  6 -1 -1</clus>
<clus scale="   98.258">  2  5  1 -1</clus>
<clus scale="  106.420">  7  8 -1 -1</clus>
<clus scale="   49.415">  2  5  1 -1</clus>
</clustering>
</event>
<event>
 9    1  0.9171696E-005  0.1421605E+03  0.7546771E-02  0.1211272E+00
          1   -1    0    0  502    0 -0.00000000000E+00  0.00000000000E+00  0.33038250223E+03  0.33038250223E+03  0.00000000000E+00 0. -1.
         21   -1    0    0  501  502  0.00000000000E+00 -0.00000000000E+00 -0.29660112502E+03  0.29660112502E+03  0.00000000000E+00 0. -1.
        -24    2    1    2    0    0 -0.83928547386E+02  0.77980211738E+02  0.26017732405E+03  0.29855350334E+03  0.91197806525E+02 0.  0.
         23    2    1    2    0    0  0.72024125268E+02 -0.24160759247E+02 -0.31096787062E+02  0.12550153908E+03  0.94933709706E+02 0.  0.
         13    1    3    3    0    0 -0.68191176220E+02  0.14134201744E+01  0.12541623575E+03  0.14276297300E+03  0.00000000000E+00 0. -1.
        -14    1    3    3    0    0 -0.15737371166E+02  0.76566791563E+02  0.13476108830E+03  0.15579053033E+03  0.00000000000E+00 0.  1.
        -11    1    4    4    0    0 -0.17381883505E+02 -0.25385330456E+02  0.20441903225E+00  0.30766648561E+02  0.00000000000E+00 0. -1.
         11    1    4    4    0    0  0.89406008772E+02  0.12245712088E+01 -0.31301206095E+02  0.94734890522E+02  0.00000000000E+00 0.  1.
          2    1    1    2  501    0  0.11904422118E+02 -0.53819452490E+02 -0.19529915978E+03  0.20292858483E+03  0.00000000000E+00 0. -1.
<scales pt_clust_5="13000.00000" pt_clust_6="13000.00000" pt_clust_7="13000.00000" pt_clust_8="13000.00000" pt_clust_9="55.12031"></scales>
<clustering>
<clus scale="   55.120">  2  9  1 -1</clus>
<clus scale="   91.198">  5  6 -1 -1</clus>
<clus scale="   94.934">  7  8 -1 -1</clus>
<clus scale="  139.693">  1  5  2 -1</clus>
<clus scale="   55.120">  2  5  1 -1</clus>
</clustering>
</event>
<event>
 9    1  0.9171696E-005  0.1123814E+03  0.7546771E-02  0.1257566E+00
          1   -1    0    0  502    0 -0.00000000000E+00  0.00000000000E+00  0.95416575087E+02  0.95416575087E+02  0.00000000000E+00 0. -1.
         21   -1    0    0  501  502  0.00000000000E+00 -0.00000000000E+00 -0.33810489792E+03  0.33810489792E+03  0.00000000000E+00 0.  1.
         23    2    1    2    0    0  0.57310927695E+02 -0.31422151752E+02  0.71037748010E+01  0.10824328171E+03  0.85989827106E+02 0.  0.
        -24    2    1    2    0    0 -0.11329154097E+03 -0.35137200814E+01 -0.19175683297E+03  0.23740079859E+03  0.82104425565E+02 0.  0.
         11    1    4    4    0    0 -0.81634435263E+02  0.29406356609E+02 -0.85832410840E+02  0.12204965211E+03  0.00000000000E+00 0. -1.
        -12    1    4    4    0    0 -0.31657105706E+02 -0.32920076690E+02 -0.10592442213E+03  0.11535114648E+03  0.00000000000E+00 0.  1.
        -13    1    3    3    0    0  0.79103371391E+01  0.20432251553E+02 -0.21896100458E+02  0.30975628362E+02  0.00000000000E+00 0.  1.
         13    1    3    3    0    0  0.49400590556E+02 -0.51854403305E+02  0.28999875259E+02  0.77267653351E+02  0.00000000000E+00 0. -1.
          2    1    1    2  501    0  0.55980613274E+02  0.34935871834E+02 -0.58035264662E+02  0.87877392700E+02  0.00000000000E+00 0. -1.
<scales pt_clust_5="13000.00000" pt_clust_6="13000.00000" pt_clust_7="13000.00000" pt_clust_8="13000.00000" pt_clust_9="65.98745"></scales>
<clustering>
<clus scale="   65.987">  2  9  1 -1</clus>
<clus scale="   82.104">  5  6 -1 -1</clus>
<clus scale="   85.990">  7  8 -1 -1</clus>
<clus scale="  109.437">  2  5  1 -1</clus>
<clus scale="   65.987">  2  5  1 -1</clus>
</clustering>
</event>
<event>
 9    1  0.9171696E-005  0.9949911E+02  0.7546771E-02  0.1286177E+00
          1   -1    0    0  502    0 -0.00000000000E+00  0.00000000000E+00  0.16747188965E+03  0.16747188965E+03  0.00000000000E+00 0. -1.
         21   -1    0    0  501  502  0.00000000000E+00 -0.00000000000E+00 -0.22240628416E+03  0.22240628416E+03  0.00000000000E+00 0. -1.
         23    2    1    2    0    0  0.25059472244E+02  0.32940421087E+02  0.12057176277E+03  0.15601011032E+03  0.89936400046E+02 0.  0.
        -24    2    1    2    0    0 -0.45853336617E+02 -0.24054131668E+02 -0.52838491247E+02  0.10913351644E+03  0.80231468422E+02 0.  0.
         11    1    4    4    0    0 -0.43841190911E+02 -0.14898773227E+02  0.85047724974E+01  0.47078175616E+02  0.00000000000E+00 0. -1.
        -12    1    4    4    0    0 -0.20121457065E+01 -0.91553584412E+01 -0.61343263744E+02  0.62055340828E+02  0.00000000000E+00 0.  1.
        -13    1    3    3    0    0 -0.21205596307E+01  0.59717234374E+02  0.84578760749E+02  0.10355776950E+03  0.00000000000E+00 0. -1.
         13    1    3    3    0    0  0.27180031875E+02 -0.26776813287E+02  0.35993002021E+02  0.52452340815E+02  0.00000000000E+00 0.  1.
          2    1    1    2  501    0  0.20793864373E+02 -0.88862894186E+01 -0.12266766604E+03  0.12473454704E+03  0.00000000000E+00 0. -1.
<scales pt_clust_5="13000.00000" pt_clust_6="13000.00000" pt_clust_7="13000.00000" pt_clust_8="13000.00000" pt_clust_9="22.61307"></scales>
<clustering>
<clus scale="   22.613">  2  9  1 -1</clus>
<clus scale="   80.231">  5  6 -1 -1</clus>
<clus scale="   89.936">  7  8 -1 -1</clus>
<clus scale="   90.822">  2  5  1 -1</clus>
<clus scale="   22.613">  2  5  1 -1</clus>
</clustering>
</event>
<event>
 9    1  0.9171696E-005  0.9829475E+02  0.7546771E-02  0.1287509E+00
          1   -1    0    0  502    0 -0.00000000000E+00  0.00000000000E+00  0.24371474035E+03  0.24371474035E+03  0.00000000000E+00 0. -1.
         21   -1    0    0  501  502  0.00000000000E+00 -0.00000000000E+00 -0.30810949197E+03  0.30810949197E+03  0.00000000000E+00 0. -1.
        -24    2    1    2    0    0  0.43897306784E+02 -0.20276339223E+02  0.20529081401E+03  0.22606502688E+03  0.81381660005E+02 0.  0.
         23    2    1    2    0    0  0.19600404768E+02  0.19603564584E+02 -0.70078889813E+02  0.11629503899E+03  0.88572059280E+02 0.  0.
         11    1    3    3    0    0  0.21122496974E+02  0.17451012183E+02  0.16196310998E+03  0.16426425874E+03  0.00000000000E+00 0. -1.
        -12    1    3    3    0    0  0.22774809810E+02 -0.37727351406E+02  0.43327704027E+02  0.61800768136E+02  0.00000000000E+00 0.  1.
        -13    1    4    4    0    0 -0.21616034173E+02  0.35224962387E+02 -0.11337511848E+02  0.42855455703E+02  0.00000000000E+00 0.  1.
         13    1    4    4    0    0  0.41216438942E+02 -0.15621397804E+02 -0.58741377965E+02  0.73439583289E+02  0.00000000000E+00 0. -1.
          2    1    1    2  501    0 -0.63497711552E+02  0.67277463936E+00 -0.19960667582E+03  0.20946416646E+03  0.00000000000E+00 0. -1.
<scales pt_clust_5="13000.00000" pt_clust_6="13000.00000" pt_clust_7="13000.00000" pt_clust_8="13000.00000" pt_clust_9="63.50128"></scales>
<clustering>
<clus scale="   63.501">  2  9  1 -1</clus>
<clus scale="   81.382">  5  6 -1 -1</clus>
<clus scale="   88.572">  7  8 -1 -1</clus>
<clus scale="   91.869">  1  5  2 -1</clus>
<clus scale="   63.501">  2  5  1 -1</clus>
</clustering>
</event>
<event>
 9    1  0.9171696E-005  0.1992093E+03  0.7546771E-02  0.1181170E+00
          1   -1    0    0  502    0 -0.00000000000E+00  0.00000000000E+00  0.17903070306E+04  0.17903070306E+04  0.00000000000E+00 0. -1.
         21   -1    0    0  501  502  0.00000000000E+00 -0.00000000000E+00 -0.50764992721E+02  0.50764992721E+02  0.00000000000E+00 0.  1.
         23    2    1    2    0    0  0.29349875624E+02  0.10677182213E+02  0.29419045207E+03  0.31009704834E+03  0.92934062009E+02 0.  0.
        -24    2    1    2    0    0 -0.15732877462E+03 -0.10380201706E+03  0.23991112026E+03  0.31518817235E+03  0.79114071445E+02 0.  0.
         13    1    4    4    0    0 -0.25380751014E+02  0.12644389159E+02  0.36364112725E+02  0.46113032795E+02  0.00000000000E+00 0. -1.
        -14    1    4    4    0    0 -0.13194802360E+03 -0.11644640621E+03  0.20354700753E+03  0.26907513956E+03  0.00000000000E+00 0.  1.
        -11    1    3    3    0    0 -0.33873079095E+01 -0.36024359564E+02  0.70408899030E+02  0.79162120990E+02  0.00000000000E+00 0. -1.
         11    1    3    3    0    0  0.32737183533E+02  0.46701541777E+02  0.22378155304E+03  0.23093492735E+03  0.00000000000E+00 0.  1.
          2    1    1    2  501    0  0.12797889899E+03  0.93124834843E+02  0.12054404655E+04  0.12157868026E+04  0.00000000000E+00 0. -1.
<scales pt_clust_5="13000.00000" pt_clust_6="13000.00000" pt_clust_7="13000.00000" pt_clust_8="13000.00000" pt_clust_9="182.82601"></scales>
<clustering>
<clus scale="   79.114">  5  6 -1 -1</clus>
<clus scale="   92.934">  7  8 -1 -1</clus>
<clus scale="   98.042">  1  7  2 -1</clus>
<clus scale="  182.826">  2  9  1 -1</clus>
<clus scale="  182.826">  2  5  1 -1</clus>
</clustering>
</event>
<event>
 9    1  0.9171696E-005  0.1365038E+03  0.7546771E-02  0.1218138E+00
         21   -1    0    0  501  502  0.00000000000E+00  0.00000000000E+00  0.57876718350E+03  0.57876718350E+03  0.00000000000E+00 0. -1.
          1   -1    0    0  502    0 -0.00000000000E+00 -0.00000000000E+00 -0.26173909376E+03  0.26173909376E+03  0.00000000000E+00 0. -1.
        -24    2    1    2    0    0 -0.79484913638E+02 -0.57557037847E+02 -0.20211764683E+03  0.24178868888E+03  0.89328398673E+02 0.  0.
         23    2    1    2    0    0  0.13988467208E+03  0.94075474137E+02  0.21912002854E+03  0.29050150754E+03  0.89216717360E+02 0.  0.
         11    1    3    3    0    0 -0.79884691128E+02 -0.46137180725E+02 -0.20899674413E+03  0.22845096275E+03  0.00000000000E+00 0. -1.
        -12    1    3    3    0    0  0.39977749066E+00 -0.11419857122E+02  0.68790973036E+01  0.13337726134E+02  0.00000000000E+00 0.  1.
        -11    1    4    4    0    0  0.11663564103E+03  0.77097584837E+02  0.11072233202E+03  0.17834613860E+03  0.00000000000E+00 0. -1.
         11    1    4    4    0    0  0.23249031048E+02  0.16977889300E+02  0.10839769652E+03  0.11215536894E+03  0.00000000000E+00 0.  1.
          2    1    1    2  501    0 -0.60399758440E+02 -0.36518436290E+02  0.30002570803E+03  0.30821608084E+03  0.00000000000E+00 0. -1.
<scales pt_clust_5="13000.00000" pt_clust_6="13000.00000" pt_clust_7="13000.00000" pt_clust_8="13000.00000" pt_clust_9="70.58135"></scales>
<clustering>
<clus scale="   70.581">  1  9  2 -1</clus>
<clus scale="   89.217">  7  8 -1 -1</clus>
<clus scale="   89.328">  5  6 -1 -1</clus>
<clus scale="  136.431">  1  7  2 -1</clus>
<clus scale="   70.581">  1  5  2 -1</clus>
</clustering>
</event>
<event>
 9    1  0.9171696E-005  0.1089611E+03  0.7546771E-02  0.1267172E+00
          1   -1    0    0  502    0 -0.00000000000E+00  0.00000000000E+00  0.46703177885E+02  0.46703177885E+02  0.00000000000E+00 0. -1.
         21   -1    0    0  501  502  0.00000000000E+00 -0.00000000000E+00 -0.43882726720E+03  0.43882726720E+03  0.00000000000E+00 0.  1.
         23    2    1    2    0    0  0.51270094015E+02 -0.35249376992E+02 -0.45345789206E+02  0.11919200011E+03  0.90990940059E+02 0.  0.
        -24    2    1    2    0    0 -0.52933840846E+02  0.13673911491E+02 -0.27837265568E+03  0.29459166139E+03  0.79397381364E+02 0.  0.
         11    1    4    4    0    0 -0.10831663443E+02  0.39911619393E+02 -0.17652589834E+03  0.18130541934E+03  0.00000000000E+00 0. -1.
        -12    1    4    4    0    0 -0.42102177403E+02 -0.26237707902E+02 -0.10184675734E+03  0.11328624205E+03  0.00000000000E+00 0.  1.
        -11    1    3    3    0    0  0.33932455570E+02  0.25416463926E+02 -0.16198191690E+01  0.42426783918E+02  0.00000000000E+00 0.  1.
         11    1    3    3    0    0  0.17337638445E+02 -0.60665840919E+02 -0.43725970037E+02  0.76765216192E+02  0.00000000000E+00 0. -1.
          2    1    1    2  501    0  0.16637468309E+01  0.21575465501E+02 -0.68405644435E+02  0.71746783591E+02  0.00000000000E+00 0. -1.
<scales pt_clust_5="13000.00000" pt_clust_6="13000.00000" pt_clust_7="13000.00000" pt_clust_8="13000.00000" pt_clust_9="21.63952"></scales>
<clustering>
<clus scale="   21.640">  2  9  1 -1</clus>
<clus scale="   79.397">  5  6 -1 -1</clus>
<clus scale="   90.991">  7  8 -1 -1</clus>
<clus scale="   99.484">  2  5  1 -1</clus>
<clus scale="   21.640">  2  5  1 -1</clus>
</clustering>
</event>
<event>
 9    1  0.9171696E-005  0.1330161E+03  0.7546771E-02  0.1232346E+00
          3   -1    0    0  502    0 -0.00000000000E+00  0.00000000000E+00  0.96966320626E+03  0.96966320626E+03  0.00000000000E+00 0. -1.
         21   -1    0    0  501  502  0.00000000000E+00 -0.00000000000E+00 -0.38256903969E+02  0.38256903969E+02  0.00000000000E+00 0. -1.
        -24    2    1    2    0    0 -0.67620229465E+02  0.32357073978E+02  0.47836760010E+03  0.49078420017E+03  0.80088043019E+02 0.  0.
         23    2    1    2    0    0 -0.44678717711E+02 -0.73542504872E+02  0.19280537937E+03  0.23072942348E+03  0.93045498030E+02 0.  0.
         11    1    3    3    0    0 -0.71933426051E+02  0.41272669030E+02  0.47148546842E+03  0.47872371774E+03  0.00000000000E+00 0. -1.
        -12    1    3    3    0    0  0.43131965855E+01 -0.89155950528E+01  0.68821316842E+01  0.12060482430E+02  0.00000000000E+00 0.  1.
        -13    1    4    4    0    0 -0.13020740236E+02 -0.23667324910E+02 -0.20749842883E+01  0.27092203758E+02  0.00000000000E+00 0. -1.
         13    1    4    4    0    0 -0.31657977476E+02 -0.49875179962E+02  0.19488036366E+03  0.20363721972E+03  0.00000000000E+00 0.  1.
          4    1    1    2  501    0  0.11229894718E+03  0.41185430895E+02  0.26023332282E+03  0.28640648659E+03  0.00000000000E+00 0. -1.
<scales pt_clust_5="13000.00000" pt_clust_6="13000.00000" pt_clust_7="13000.00000" pt_clust_8="13000.00000" pt_clust_9="95.05691"></scales>
<clustering>
<clus scale="   80.088">  5  6 -1 -1</clus>
<clus scale="   93.045">  7  8 -1 -1</clus>
<clus scale="  109.698">  1  5  2 -1</clus>
<clus scale="   95.057">  2  9  1 -1</clus>
<clus scale="   95.057">  2  5  1 -1</clus>
</clustering>
</event>
<event>
 9    1  0.9171696E-005  0.1087223E+03  0.7546771E-02  0.1270372E+00
          1   -1    0    0  502    0 -0.00000000000E+00  0.00000000000E+00  0.57880050651E+03  0.57880050651E+03  0.00000000000E+00 0. -1.
         21   -1    0    0  501  502  0.00000000000E+00 -0.00000000000E+00 -0.44435603515E+02  0.44435603515E+02  0.00000000000E+00 0. -1.
        -24    2    1    2    0    0  0.31293864870E+02 -0.30888397009E+02  0.26618286887E+03  0.28142728066E+03  0.80091170368E+02 0.  0.
         23    2    1    2    0    0 -0.91578268762E+02 -0.13367973098E+02  0.14258705196E+03  0.19563449785E+03  0.96832367261E+02 0.  0.
         11    1    3    3    0    0 -0.34969661056E+01 -0.50810757815E+02  0.16095620059E+03  0.16882197840E+03  0.00000000000E+00 0. -1.
        -12    1    3    3    0    0  0.34790830975E+02  0.19922360806E+02  0.10522666828E+03  0.11260530226E+03  0.00000000000E+00 0.  1.
        -11    1    4    4    0    0 -0.58930557103E+02 -0.54782524664E+02  0.75850355651E+02  0.11057672459E+03  0.00000000000E+00 0. -1.
         11    1    4    4    0    0 -0.32647711660E+02  0.41414551566E+02  0.66736696305E+02  0.85057773258E+02  0.00000000000E+00 0.  1.
          2    1    1    2  501    0  0.60284403893E+02  0.44256370108E+02  0.12559498217E+03  0.14617433151E+03  0.00000000000E+00 0. -1.
<scales pt_clust_5="13000.00000" pt_clust_6="13000.00000" pt_clust_7="13000.00000" pt_clust_8="13000.00000" pt_clust_9="74.78530"></scales>
<clustering>
<clus scale="   74.785">  2  9  1 -1</clus>
<clus scale="   80.091">  5  6 -1 -1</clus>
<clus scale="   94.120">  1  5  2 -1</clus>
<clus scale="   96.832">  7  8 -1 -1</clus>
<clus scale="   74.785">  2  5  1 -1</clus>
</clustering>
</event>
<event>
 9    1  0.9171696E-005  0.1056332E+03  0.7546771E-02  0.1274163E+00
         21   -1    0    0  501  502  0.00000000000E+00  0.00000000000E+00  0.30106794100E+03  0.30106794100E+03  0.00000000000E+00 0. -1.
          3   -1    0    0  502    0 -0.00000000000E+00 -0.00000000000E+00 -0.57577181091E+02  0.57577181091E+02  0.00000000000E+00 0. -1.
        -24    2    1    2    0    0 -0.57185292982E+02  0.20381298314E+02  0.40327970273E+02  0.10718745073E+03  0.78595479216E+02 0.  0.
         23    2    1    2    0    0  0.24981021753E+02 -0.43807516488E+02  0.11629022346E+03  0.15589227209E+03  0.90751498486E+02 0.  0.
         11    1    3    3    0    0 -0.32438093375E+02 -0.27406867249E+02  0.30980998330E+02  0.52566039719E+02  0.00000000000E+00 0. -1.
        -12    1    3    3    0    0 -0.24747199607E+02  0.47788165563E+02  0.93469719426E+01  0.54621411010E+02  0.00000000000E+00 0.  1.
        -11    1    4    4    0    0  0.31909527044E+02 -0.65642880976E+01  0.11330181972E+03  0.11789236678E+03  0.00000000000E+00 0.  1.
         11    1    4    4    0    0 -0.69285052903E+01 -0.37243228391E+02  0.29884037398E+01  0.37999905308E+02  0.00000000000E+00 0. -1.
          4    1    1    2  501    0  0.32204271228E+02  0.23426218174E+02  0.86872566179E+02  0.95565399270E+02  0.00000000000E+00 0. -1.
<scales pt_clust_5="13000.00000" pt_clust_6="13000.00000" pt_clust_7="13000.00000" pt_clust_8="13000.00000" pt_clust_9="39.82339"></scales>
<clustering>
<clus scale="   39.823">  1  9  2 -1</clus>
<clus scale="   78.595">  5  6 -1 -1</clus>
<clus scale="   90.751">  7  8 -1 -1</clus>
<clus scale="   95.393">  2  5  1 -1</clus>
<clus scale="   39.823">  1  5  2 -1</clus>
</clustering>
</event>
<event>
 9    1  0.9171696E-005  0.1750414E+03  0.7546771E-02  0.1174028E+00
         21   -1    0    0  501  502  0.00000000000E+00  0.00000000000E+00  0.64754261111E+03  0.64754261111E+03  0.00000000000E+00 0.  1.
          1   -1    0    0  502    0 -0.00000000000E+00 -0.00000000000E+00 -0.10969421899E+03  0.10969421899E+03  0.00000000000E+00 0. -1.
         23    2    1    2    0    0 -0.81589675340E+02 -0.12076798667E+03  0.30547109292E+01  0.17148658838E+03  0.90313548309E+02 0.  0.
        -24    2    1    2    0    0  0.10866710992E+03  0.13805757345E+03  0.50969509145E+03  0.54498191477E+03  0.79672873805E+02 0.  0.
         11    1    4    4    0    0  0.24874346703E+02  0.60741561747E+02  0.99212073826E+02  0.11895926210E+03  0.00000000000E+00 0. -1.
        -12    1    4    4    0    0  0.83792763219E+02  0.77316011701E+02  0.41048301762E+03  0.42602265267E+03  0.00000000000E+00 0.  1.
        -13    1    3    3    0    0 -0.38154099784E+02 -0.40039173017E+02  0.44398018515E+02  0.70922878920E+02  0.00000000000E+00 0.  1.
         13    1    3    3    0    0 -0.43435575556E+02 -0.80728813656E+02 -0.41343307586E+02  0.10056370946E+03  0.00000000000E+00 0. -1.
          2    1    1    2  501    0 -0.27077434582E+02 -0.17289586774E+02  0.25098589747E+02  0.40768326942E+02  0.00000000000E+00 0. -1.
<scales pt_clust_5="13000.00000" pt_clust_6="13000.00000" pt_clust_7="13000.00000" pt_clust_8="13000.00000" pt_clust_9="32.12660"></scales>
<clustering>
<clus scale="   32.127">  1  9  2 -1</clus>
<clus scale="   79.673">  5  6 -1 -1</clus>
<clus scale="   90.314">  7  8 -1 -1</clus>
<clus scale="  169.796">  1  5  2 -1</clus>
<clus scale="   32.127">  1  5  2 -1</clus>
</clustering>
</event>
<event>
 9    1  0.9171696E-005  0.9705728E+02  0.7546771E-02  0.1292456E+00
          1   -1    0    0  502    0 -0.00000000000E+00  0.00000000000E+00  0.32720431221E+02  0.32720431221E+02  0.00000000000E+00 0. -1.
         21   -1    0    0  501  502  0.00000000000E+00 -0.00000000000E+00 -0.36312191515E+03  0.36312191515E+03  0.00000000000E+00 0. -1.
         23    2    1    2    0    0  0.19864158983E+02 -0.18221930122E+02 -0.12252921051E+03  0.15466211642E+03  0.90445228050E+02 0.  0.
        -24    2    1    2    0    0 -0.12668008178E+02  0.45664075159E+02 -0.14272439872E+03  0.17012320012E+03  0.79535922946E+02 0.  0.
         11    1    4    4    0    0  0.27095352983E+02  0.64448546388E+01 -0.17199405279E+02  0.32733986108E+02  0.00000000000E+00 0. -1.
        -12    1    4    4    0    0 -0.39763361161E+02  0.39219220520E+02 -0.12552499344E+03  0.13738921402E+03  0.00000000000E+00 0.  1.
        -11    1    3    3    0    0 -0.18903018457E+02  0.16217969034E+02 -0.39208246951E+01  0.25213478393E+02  0.00000000000E+00 0. -1.
         11    1    3    3    0    0  0.38767177441E+02 -0.34439899156E+02 -0.11860838582E+03  0.12944863802E+03  0.00000000000E+00 0.  1.
          2    1    1    2  501    0 -0.71961508055E+01 -0.27442145037E+02 -0.65147874697E+02  0.71057029830E+02  0.00000000000E+00 0. -1.
<scales pt_clust_5="13000.00000" pt_clust_6="13000.00000" pt_clust_7="13000.00000" pt_clust_8="13000.00000" pt_clust_9="28.36998"></scales>
<clustering>
<clus scale="   28.370">  2  9  1 -1</clus>
<clus scale="   79.536">  5  6 -1 -1</clus>
<clus scale="   86.981">  2  5  1 -1</clus>
<clus scale="   90.445">  7  8 -1 -1</clus>
<clus scale="   28.370">  2  5  1 -1</clus>
</clustering>
</event>
<event>
 9    1  0.9171696E-005  0.1017281E+03  0.7546771E-02  0.1282739E+00
         21   -1    0    0  501  502  0.00000000000E+00  0.00000000000E+00  0.56175718464E+02  0.56175718464E+02  0.00000000000E+00 0. -1.
          1   -1    0    0  502    0 -0.00000000000E+00 -0.00000000000E+00 -0.49109973701E+03  0.49109973701E+03  0.00000000000E+00 0. -1.
         23    2    1    2    0    0  0.21318336891E+02  0.47054440760E+02 -0.14782118804E+03  0.18043651320E+03  0.89652884940E+02 0.  0.
        -24    2    1    2    0    0 -0.80962760475E+02  0.21255896541E+02 -0.73169952127E+02  0.13447922998E+03  0.75657383516E+02 0.  0.
         11    1    4    4    0    0 -0.78875118393E+02  0.15832918792E+02 -0.22580909872E+02  0.83557543702E+02  0.00000000000E+00 0. -1.
        -12    1    4    4    0    0 -0.20876420824E+01  0.54229777491E+01 -0.50589042256E+02  0.50921686279E+02  0.00000000000E+00 0.  1.
        -11    1    3    3    0    0 -0.33808030114E+02  0.14185113173E+02 -0.74220714655E+02  0.82782333983E+02  0.00000000000E+00 0.  1.
         11    1    3    3    0    0  0.55126367005E+02  0.32869327588E+02 -0.73600473386E+02  0.97654179214E+02  0.00000000000E+00 0. -1.
          2    1    1    2  501    0  0.59644423584E+02 -0.68310337301E+02 -0.21393287838E+03  0.23235971230E+03  0.00000000000E+00 0. -1.
<scales pt_clust_5="13000.00000" pt_clust_6="13000.00000" pt_clust_7="13000.00000" pt_clust_8="13000.00000" pt_clust_9="90.68499"></scales>
<clustering>
<clus scale="   75.657">  5  6 -1 -1</clus>
<clus scale="   89.653">  7  8 -1 -1</clus>
<clus scale="   90.685">  1  9  2 -1</clus>
<clus scale="   90.685">  1  5  2 -1</clus>
<clus scale="   90.685">  1  5  2 -1</clus>
</clustering>
</event>
<event>
 9    1  0.9171696E-005  0.9475805E+02  0.7546771E-02  0.1296780E+00
         21   -1    0    0  501  502  0.00000000000E+00  0.00000000000E+00  0.25487302223E+03  0.25487302223E+03  0.00000000000E+00 0. -1.
         -2   -1    0    0    0  501 -0.00000000000E+00 -0.00000000000E+00 -0.91937497960E+02  0.91937497960E+02  0.00000000000E+00 0.  1.
        -24    2    1    2    0    0  0.20134261417E+02  0.18815657516E+02 -0.29500062415E+02  0.90305377470E+02  0.80779886525E+02 0.  0.
         23    2    1    2    0    0 -0.60395450199E+02  0.12306099516E+01  0.17967052905E+03  0.20975299990E+03  0.89809226447E+02 0.  0.
         13    1    3    3    0    0 -0.10697937392E+02 -0.27075201337E+02 -0.16679989566E+02  0.33551966318E+02  0.00000000000E+00 0. -1.
        -14    1    3    3    0    0  0.30832198808E+02  0.45890858853E+02 -0.12820072849E+02  0.56753411153E+02  0.00000000000E+00 0.  1.
        -13    1    4    4    0    0 -0.61795893097E+02  0.25301850312E+02  0.17190938754E+03  0.18442275769E+03  0.00000000000E+00 0. -1.
         13    1    4    4    0    0  0.14004428976E+01 -0.24071240360E+02  0.77611415107E+01  0.25330242209E+02  0.00000000000E+00 0.  1.
         -1    1    1    2    0  502  0.40261188783E+02 -0.20046267468E+02  0.12765057640E+02  0.46752142819E+02  0.00000000000E+00 0.  1.
<scales pt_clust_5="13000.00000" pt_clust_6="13000.00000" pt_clust_7="13000.00000" pt_clust_8="13000.00000" pt_clust_9="44.97575"></scales>
<clustering>
<clus scale="   44.976">  1  9  2 -1</clus>
<clus scale="   80.780">  5  6 -1 -1</clus>
<clus scale="   86.248">  2  5  1 -1</clus>
<clus scale="   89.809">  7  8 -1 -1</clus>
<clus scale="   44.976">  1  5  2 -1</clus>
</clustering>
</event>
<event>
 9    1  0.9171696E-005  0.9190517E+02  0.7546771E-02  0.1306592E+00
         -2   -1    0    0    0  501 -0.00000000000E+00  0.00000000000E+00  0.18969324643E+03  0.18969324643E+03  0.00000000000E+00 0.  1.
         21   -1    0    0  501  502  0.00000000000E+00 -0.00000000000E+00 -0.10993087001E+03  0.10993087001E+03  0.00000000000E+00 0.  1.
         23    2    1    2    0    0 -0.13658698983E+02  0.22073793052E+02  0.85455220644E+02  0.12755338701E+03  0.91068432533E+02 0.  0.
        -24    2    1    2    0    0  0.89907564234E+01  0.39882144866E+02  0.38247350396E+02  0.95971658250E+02  0.77950498361E+02 0.  0.
         13    1    4    4    0    0  0.38718800736E+02  0.95664848911E+01  0.35549207355E+02  0.53426672244E+02  0.00000000000E+00 0. -1.
        -14    1    4    4    0    0 -0.29728044312E+02  0.30315659975E+02  0.26981430412E+01  0.42544986005E+02  0.00000000000E+00 0.  1.
        -13    1    3    3    0    0 -0.40818537823E+02  0.34798229914E+02  0.81118684704E+02  0.97248706126E+02  0.00000000000E+00 0.  1.
         13    1    3    3    0    0  0.27159838841E+02 -0.12724436862E+02  0.43365359404E+01  0.30304680881E+02  0.00000000000E+00 0. -1.
         -1    1    1    2    0  502  0.46679425593E+01 -0.61955937918E+02 -0.43940194623E+02  0.76099071181E+02  0.00000000000E+00 0.  1.
<scales pt_clust_5="13000.00000" pt_clust_6="13000.00000" pt_clust_7="13000.00000" pt_clust_8="13000.00000" pt_clust_9="62.13154"></scales>
<clustering>
<clus scale="   62.132">  2  9  1 -1</clus>
<clus scale="   77.950">  5  6 -1 -1</clus>
<clus scale="   78.926">  2  5  1 -1</clus>
<clus scale="   91.068">  7  8 -1 -1</clus>
<clus scale="   62.132">  2  5  1 -1</clus>
</clustering>
</event>
<event>
 9    1  0.9171696E-005  0.1840172E+03  0.7546771E-02  0.1167127E+00
         21   -1    0    0  501  502  0.00000000000E+00  0.00000000000E+00  0.44609232617E+03  0.44609232617E+03  0.00000000000E+00 0. -1.
         -2   -1    0    0    0  501 -0.00000000000E+00 -0.00000000000E+00 -0.30655417069E+03  0.30655417069E+03  0.00000000000E+00 0.  1.
        -24    2    1    2    0    0 -0.15272385885E+03  0.80733665798E+02  0.98462146515E+02  0.21519264897E+03  0.82283534308E+02 0.  0.
         23    2    1    2    0    0 -0.35825833889E+01 -0.17784485109E+03  0.20795059346E+03  0.28904005370E+03  0.93054163569E+02 0.  0.
         13    1    3    3    0    0 -0.11286349364E+03  0.24870686355E+02  0.89102437017E+02  0.14593136578E+03  0.00000000000E+00 0. -1.
        -14    1    3    3    0    0 -0.39860365216E+02  0.55862979443E+02  0.93597094979E+01  0.69261283192E+02  0.00000000000E+00 0.  1.
        -13    1    4    4    0    0  0.11279650137E+02 -0.19440233651E+02 -0.51896548947E+01  0.23066983104E+02  0.00000000000E+00 0.  1.
         13    1    4    4    0    0 -0.14862233525E+02 -0.15840461744E+03  0.21314024836E+03  0.26597307060E+03  0.00000000000E+00 0. -1.
         -1    1    1    2    0  502  0.15630644224E+03  0.97111185292E+02 -0.16687458450E+03  0.24841379420E+03  0.00000000000E+00 0.  1.
<scales pt_clust_5="13000.00000" pt_clust_6="13000.00000" pt_clust_7="13000.00000" pt_clust_8="13000.00000" pt_clust_9="184.01717"></scales>
<clustering>
<clus scale="   82.284">  5  6 -1 -1</clus>
<clus scale="   93.054">  7  8 -1 -1</clus>
<clus scale="  184.017">  1  9  2 -1</clus>
<clus scale="  171.104">  2  5  1 -1</clus>
<clus scale="  184.017">  1  5  2 -1</clus>
</clustering>
</event>
<event>
 9    1  0.9171696E-005  0.9185122E+02  0.7546771E-02  0.1302345E+00
         -2   -1    0    0    0  501 -0.00000000000E+00  0.00000000000E+00  0.71427439419E+02  0.71427439419E+02  0.00000000000E+00 0.  1.
         21   -1    0    0  501  502  0.00000000000E+00 -0.00000000000E+00 -0.38709371630E+03  0.38709371630E+03  0.00000000000E+00 0.  1.
        -24    2    1    2    0    0  0.63695706890E+01 -0.20175771813E+02  0.14410984541E+02  0.85484442850E+02  0.81561512338E+02 0.  0.
         23    2    1    2    0    0 -0.65698680401E+02  0.28627882236E+02 -0.22441701072E+03  0.25156461727E+03  0.88237688751E+02 0.  0.
         11    1    3    3    0    0  0.27294012585E+02 -0.43573360193E+02  0.12040988503E+01  0.51430056344E+02  0.00000000000E+00 0. -1.
        -12    1    3    3    0    0 -0.20924441896E+02  0.23397588380E+02  0.13206885691E+02  0.34054386506E+02  0.00000000000E+00 0.  1.
        -13    1    4    4    0    0 -0.75223220445E+02  0.49711969352E+02 -0.18637858877E+03  0.20704296931E+03  0.00000000000E+00 0.  1.
         13    1    4    4    0    0  0.95245400434E+01 -0.21084087116E+02 -0.38038421948E+02  0.44521647957E+02  0.00000000000E+00 0. -1.
         -1    1    1    2    0  502  0.59329109712E+02 -0.84521104232E+01 -0.10566025071E+03  0.12147209560E+03  0.00000000000E+00 0.  1.
<scales pt_clust_5="13000.00000" pt_clust_6="13000.00000" pt_clust_7="13000.00000" pt_clust_8="13000.00000" pt_clust_9="59.92814"></scales>
<clustering>
<clus scale="   59.928">  2  9  1 -1</clus>
<clus scale="   81.562">  5  6 -1 -1</clus>
<clus scale="   85.458">  1  5  2 -1</clus>
<clus scale="   88.238">  7  8 -1 -1</clus>
<clus scale="   59.928">  2  5  1 -1</clus>
</clustering>
</event>
<event>
 9    1  0.9171696E-005  0.1728195E+03  0.7546771E-02  0.1196707E+00
         21   -1    0    0  501  502  0.00000000000E+00  0.00000000000E+00  0.58160176926E+03  0.58160176926E+03  0.00000000000E+00 0. -1.
          1   -1    0    0  502    0 -0.00000000000E+00 -0.00000000000E+00 -0.34800051372E+03  0.34800051372E+03  0.00000000000E+00 0. -1.
        -24    2    1    2    0    0 -0.40538040315E+02 -0.78155562025E+02  0.83540989593E+02  0.13532728285E+03  0.59856093703E+02 0.  0.
         23    2    1    2    0    0  0.16916846252E+03  0.13429345409E+03 -0.26539678008E+03  0.35575270247E+03  0.97323347223E+02 0.  0.
         11    1    3    3    0    0  0.39511424336E+01 -0.43266414986E+02  0.60013808318E+02  0.74089482257E+02  0.00000000000E+00 0. -1.
        -12    1    3    3    0    0 -0.44489182748E+02 -0.34889147039E+02  0.23527181274E+02  0.61237800593E+02  0.00000000000E+00 0.  1.
        -11    1    4    4    0    0  0.12614300328E+03  0.40506645000E+02 -0.13103377948E+03  0.18634027190E+03  0.00000000000E+00 0.  1.
         11    1    4    4    0    0  0.43025459237E+02  0.93786809091E+02 -0.13436300060E+03  0.16941243057E+03  0.00000000000E+00 0. -1.
          2    1    1    2  501    0 -0.12863042220E+03 -0.56137892066E+02  0.41545704603E+03  0.43852229766E+03  0.00000000000E+00 0. -1.
<scales pt_clust_5="13000.00000" pt_clust_6="13000.00000" pt_clust_7="13000.00000" pt_clust_8="13000.00000" pt_clust_9="142.81020"></scales>
<clustering>
<clus scale="   59.856">  5  6 -1 -1</clus>
<clus scale="   97.323">  7  8 -1 -1</clus>
<clus scale="  106.463">  2  5  1 -1</clus>
<clus scale="  142.810">  1  9  2 -1</clus>
<clus scale="  142.810">  1  5  2 -1</clus>
</clustering>
</event>
<event>
 9    1  0.9171696E-005  0.1622913E+03  0.7546771E-02  0.1188144E+00
          1   -1    0    0  502    0 -0.00000000000E+00  0.00000000000E+00  0.82348424046E+03  0.82348424046E+03  0.00000000000E+00 0. -1.
         21   -1    0    0  501  502  0.00000000000E+00 -0.00000000000E+00 -0.12630203569E+03  0.12630203569E+03  0.00000000000E+00 0. -1.
         23    2    1    2    0    0  0.48752110852E+02 -0.12005170199E+03  0.66868125269E+03  0.68732171311E+03  0.92126761342E+02 0.  0.
        -24    2    1    2    0    0 -0.51117685381E+02  0.14890072646E+03  0.87557608552E+02  0.19669564312E+03  0.78983524263E+02 0.  0.
         11    1    4    4    0    0 -0.41306769223E+02  0.93026860850E+02  0.95306449001E+02  0.13944018518E+03  0.00000000000E+00 0. -1.
        -12    1    4    4    0    0 -0.98109161577E+01  0.55873865615E+02 -0.77488404486E+01  0.57255457931E+02  0.00000000000E+00 0.  1.
        -11    1    3    3    0    0  0.32695988738E+02 -0.20042405473E+02  0.67212560284E+02  0.77383809396E+02  0.00000000000E+00 0.  1.
         11    1    3    3    0    0  0.16056122114E+02 -0.10000929651E+03  0.60146869240E+03  0.60993790371E+03  0.00000000000E+00 0. -1.
          2    1    1    2  501    0  0.23655745285E+01 -0.28849024479E+02 -0.59056656466E+02  0.65768919933E+02  0.00000000000E+00 0. -1.
<scales pt_clust_5="13000.00000" pt_clust_6="13000.00000" pt_clust_7="13000.00000" pt_clust_8="13000.00000" pt_clust_9="28.94585"></scales>
<clustering>
<clus scale="   28.946">  2  9  1 -1</clus>
<clus scale="   78.984">  5  6 -1 -1</clus>
<clus scale="   92.127">  7  8 -1 -1</clus>
<clus scale="  155.208">  2  5  1 -1</clus>
<clus scale="   28.946">  2  5  1 -1</clus>
</clustering>
</event>
<event>
 9    1  0.9171696E-005  0.2415966E+03  0.7546771E-02  0.1119267E+00
          1   -1    0    0  502    0 -0.00000000000E+00  0.00000000000E+00  0.10349928724E+04  0.10349928724E+04  0.00000000000E+00 0. -1.
         21   -1    0    0  501  502  0.00000000000E+00 -0.00000000000E+00 -0.10184023016E+03  0.10184023016E+03  0.00000000000E+00 0. -1.
         23    2    1    2    0    0  0.23062940871E+03  0.96151369178E+02  0.42156281066E+03  0.49820131756E+03  0.89745972205E+02 0.  0.
        -24    2    1    2    0    0 -0.20625568270E+03  0.28871560296E+02  0.19180853554E+03  0.29441544503E+03  0.80715341322E+02 0.  0.
         11    1    4    4    0    0 -0.14995808756E+03  0.18287383371E+02  0.18161334266E+03  0.23623137524E+03  0.00000000000E+00 0. -1.
        -12    1    4    4    0    0 -0.56297595135E+02  0.10584176924E+02  0.10195192884E+02  0.58184069788E+02  0.00000000000E+00 0.  1.
        -11    1    3    3    0    0  0.14922793474E+02  0.36946383532E+02  0.44070965832E+02  0.59413593147E+02  0.00000000000E+00 0.  1.
         11    1    3    3    0    0  0.21570661523E+03  0.59204985646E+02  0.37749184483E+03  0.43878772441E+03  0.00000000000E+00 0. -1.
          2    1    1    2  501    0 -0.24373726008E+02 -0.12502292947E+03  0.31978129606E+03  0.34421634000E+03  0.00000000000E+00 0. -1.
<scales pt_clust_5="13000.00000" pt_clust_6="13000.00000" pt_clust_7="13000.00000" pt_clust_8="13000.00000" pt_clust_9="127.37672"></scales>
<clustering>
<clus scale="   80.715">  5  6 -1 -1</clus>
<clus scale="   89.746">  7  8 -1 -1</clus>
<clus scale="  127.377">  2  9  1 -1</clus>
<clus scale="  238.390">  2  5  1 -1</clus>
<clus scale="  127.377">  2  5  1 -1</clus>
</clustering>
</event>
<event>
 9    1  0.9171696E-005  0.1281678E+03  0.7546771E-02  0.1247059E+00
          3   -1    0    0  502    0 -0.00000000000E+00  0.00000000000E+00  0.22201223617E+03  0.22201223617E+03  0.00000000000E+00 0. -1.
         21   -1    0    0  501  502  0.00000000000E+00 -0.00000000000E+00 -0.17060986754E+03  0.17060986754E+03  0.00000000000E+00 0. -1.
        -24    2    1    2    0    0  0.17395483863E+02  0.35817541050E+02  0.12593663750E+03  0.15533576256E+03  0.81753674915E+02 0.  0.
         23    2    1    2    0    0  0.80179544687E+02 -0.34233729165E+00 -0.48011890480E+02  0.13012845375E+03  0.90550517756E+02 0.  0.
         13    1    3    3    0    0  0.28883550095E+02 -0.11510135489E+02  0.88812436314E+02  0.94097776431E+02  0.00000000000E+00 0. -1.
        -14    1    3    3    0    0 -0.11488066233E+02  0.47327676539E+02  0.37124201181E+02  0.61237986134E+02  0.00000000000E+00 0.  1.
        -11    1    4    4    0    0  0.74052518517E+01 -0.24531190316E+02  0.16021657706E+02  0.30221028588E+02  0.00000000000E+00 0.  1.
         11    1    4    4    0    0  0.72774292836E+02  0.24188853024E+02 -0.64033548186E+02  0.99907425158E+02  0.00000000000E+00 0. -1.
          4    1    1    2  501    0 -0.97575028550E+02 -0.35475203759E+02 -0.26522378386E+02  0.10715788741E+03  0.00000000000E+00 0. -1.
<scales pt_clust_5="13000.00000" pt_clust_6="13000.00000" pt_clust_7="13000.00000" pt_clust_8="13000.00000" pt_clust_9="90.70605"></scales>
<clustering>
<clus scale="   81.754">  5  6 -1 -1</clus>
<clus scale="   90.551">  7  8 -1 -1</clus>
<clus scale="   90.935">  1  5  2 -1</clus>
<clus scale="   90.706">  2  9  1 -1</clus>
<clus scale="   90.706">  2  5  1 -1</clus>
</clustering>
</event>
<event>
 9    1  0.9171696E-005  0.1867583E+03  0.7546771E-02  0.1163920E+00
         21   -1    0    0  501  502  0.00000000000E+00  0.00000000000E+00  0.19141632600E+03  0.19141632600E+03  0.00000000000E+00 0. -1.
         -2   -1    0    0    0  501 -0.00000000000E+00 -0.00000000000E+00 -0.34904545220E+03  0.34904545220E+03  0.00000000000E+00 0.  1.
        -24    2    1    2    0    0 -0.14182765472E+03  0.72036654070E+02 -0.24270858201E+03  0.30058817154E+03  0.78367275780E+02 0.  0.
         23    2    1    2    0    0  0.15207484776E+03 -0.35493082825E+02  0.61838718160E+02  0.19537001746E+03  0.99794280452E+02 0.  0.
         11    1    3    3    0    0 -0.38424231741E+02  0.73519547888E+01 -0.14297763390E+02  0.41652117138E+02  0.00000000000E+00 0. -1.
        -12    1    3    3    0    0 -0.10340342298E+03  0.64684699281E+02 -0.22841081862E+03  0.25893605440E+03  0.00000000000E+00 0.  1.
        -13    1    4    4    0    0  0.29635575436E+02  0.33536501219E+02  0.15927450149E+02  0.47504188381E+02  0.00000000000E+00 0.  1.
         13    1    4    4    0    0  0.12243927232E+03 -0.69029584044E+02  0.45911268011E+02  0.14786582908E+03  0.00000000000E+00 0. -1.
         -1    1    1    2    0  502 -0.10247193036E+02 -0.36543571245E+02  0.23240737661E+02  0.44503589198E+02  0.00000000000E+00 0.  1.
<scales pt_clust_5="13000.00000" pt_clust_6="13000.00000" pt_clust_7="13000.00000" pt_clust_8="13000.00000" pt_clust_9="37.95310"></scales>
<clustering>
<clus scale="   37.953">  1  9  2 -1</clus>
<clus scale="   78.367">  5  6 -1 -1</clus>
<clus scale="   99.794">  7  8 -1 -1</clus>
<clus scale="  176.242">  2  5  1 -1</clus>
<clus scale="   37.953">  1  5  2 -1</clus>
</clustering>
</event>
<event>
 9    1  0.9171696E-005  0.1969897E+03  0.7546771E-02  0.1172042E+00
          1   -1    0    0  502    0 -0.00000000000E+00  0.00000000000E+00  0.19750733546E+03  0.19750733546E+03  0.00000000000E+00 0. -1.
         21   -1    0    0  501  502  0.00000000000E+00 -0.00000000000E+00 -0.38394348683E+03  0.38394348683E+03  0.00000000000E+00 0. -1.
        -24    2    1    2    0    0 -0.91795405549E+02 -0.60078939954E+02 -0.10035695787E+03  0.16001869253E+03  0.59148858484E+02 0.  0.
         23    2    1    2    0    0 -0.91696532587E+02  0.14614271418E+03 -0.10032670253E+03  0.21825915885E+03  0.88349681297E+02 0.  0.
         13    1    3    3    0    0 -0.68934817464E+02 -0.50621221658E+02 -0.39265327752E+02  0.94107827009E+02  0.00000000000E+00 0. -1.
        -14    1    3    3    0    0 -0.22860588085E+02 -0.94577182957E+01 -0.61091630121E+02  0.65910865522E+02  0.00000000000E+00 0.  1.
        -13    1    4    4    0    0 -0.70826086953E+02  0.14770168548E+03 -0.10773445255E+03  0.19605824326E+03  0.00000000000E+00 0. -1.
         13    1    4    4    0    0 -0.20870445634E+02 -0.15589712978E+01  0.74077500199E+01  0.22200915586E+02  0.00000000000E+00 0.  1.
          2    1    1    2  501    0  0.18349193814E+03 -0.86063774227E+02  0.14247509025E+02  0.20317297091E+03  0.00000000000E+00 0. -1.
<scales pt_clust_5="13000.00000" pt_clust_6="13000.00000" pt_clust_7="13000.00000" pt_clust_8="13000.00000" pt_clust_9="176.06616"></scales>
<clustering>
<clus scale="   59.149">  5  6 -1 -1</clus>
<clus scale="   88.350">  7  8 -1 -1</clus>
<clus scale="  124.637">  1  5  2 -1</clus>
<clus scale="  176.066">  2  9  1 -1</clus>
<clus scale="  176.066">  2  5  1 -1</clus>
</clustering>
</event>
<event>
 9    1  0.9171696E-005  0.2736625E+03  0.7546771E-02  0.1099546E+00
          1   -1    0    0  502    0 -0.00000000000E+00  0.00000000000E+00  0.80265526323E+03  0.80265526323E+03  0.00000000000E+00 0. -1.
         21   -1    0    0  501  502  0.00000000000E+00 -0.00000000000E+00 -0.10522909787E+03  0.10522909787E+03  0.00000000000E+00 0.  1.
        -24    2    1    2    0    0 -0.11669470961E+03  0.22081222704E+03  0.37167434279E+03  0.45550341588E+03  0.83461667418E+02 0.  0.
         23    2    1    2    0    0  0.10670598245E+03 -0.24769944089E+03  0.30321631975E+03  0.41590429754E+03  0.91077266300E+02 0.  0.
         13    1    3    3    0    0  0.27597851117E+00  0.22967879120E+02  0.62414096268E+01  0.23802412263E+02  0.00000000000E+00 0. -1.
        -14    1    3    3    0    0 -0.11697068812E+03  0.19784434792E+03  0.36543293316E+03  0.43170100362E+03  0.00000000000E+00 0.  1.
        -11    1    4    4    0    0  0.60488725788E+01 -0.47372931258E+02  0.13606727740E+02  0.49658096170E+02  0.00000000000E+00 0. -1.
         11    1    4    4    0    0  0.10065710987E+03 -0.20032650964E+03  0.28960959201E+03  0.36624620137E+03  0.00000000000E+00 0.  1.
          2    1    1    2  501    0  0.99887271526E+01  0.26887213850E+02  0.22535502819E+02  0.36476647681E+02  0.00000000000E+00 0. -1.
<scales pt_clust_5="13000.00000" pt_clust_6="13000.00000" pt_clust_7="13000.00000" pt_clust_8="13000.00000" pt_clust_9="28.68269"></scales>
<clustering>
<clus scale="   28.683">  2  9  1 -1</clus>
<clus scale="   83.462">  5  6 -1 -1</clus>
<clus scale="   91.077">  7  8 -1 -1</clus>
<clus scale="  271.223">  1  5  2 -1</clus>
<clus scale="   28.683">  2  5  1 -1</clus>
</clustering>
</event>
<event>
 9    1  0.9171696E-005  0.1188217E+03  0.7546771E-02  0.1249016E+00
          1   -1    0    0  502    0 -0.00000000000E+00  0.00000000000E+00  0.26251645569E+03  0.26251645569E+03  0.00000000000E+00 0. -1.
         21   -1    0    0  501  502  0.00000000000E+00 -0.00000000000E+00 -0.33594812862E+03  0.33594812862E+03  0.00000000000E+00 0. -1.
         23    2    1    2    0    0 -0.15545239311E+02 -0.71080066620E+02  0.21630597819E+03  0.24615862445E+03  0.92259210113E+02 0.  0.
        -24    2    1    2    0    0 -0.10917329629E+02  0.98539346640E+02 -0.10954029349E+03  0.16811755819E+03  0.80219988468E+02 0.  0.
         13    1    4    4    0    0 -0.28084278922E+02  0.98096159438E+01 -0.55084681966E+02  0.62604133049E+02  0.00000000000E+00 0. -1.
        -14    1    4    4    0    0  0.17166949293E+02  0.88729730697E+02 -0.54455611523E+02  0.10551342514E+03  0.00000000000E+00 0.  1.
        -13    1    3    3    0    0  0.18064522480E+02 -0.60082705954E+02  0.19506535679E+03  0.20490669083E+03  0.00000000000E+00 0. -1.
         13    1    3    3    0    0 -0.33609761791E+02 -0.10997360666E+02  0.21240621399E+02  0.41251933612E+02  0.00000000000E+00 0.  1.
          2    1    1    2  501    0  0.26462568940E+02 -0.27459280020E+02 -0.18019735764E+03  0.18418840168E+03  0.00000000000E+00 0. -1.
<scales pt_clust_5="13000.00000" pt_clust_6="13000.00000" pt_clust_7="13000.00000" pt_clust_8="13000.00000" pt_clust_9="38.13502"></scales>
<clustering>
<clus scale="   38.135">  2  9  1 -1</clus>
<clus scale="   80.220">  5  6 -1 -1</clus>
<clus scale="   92.259">  7  8 -1 -1</clus>
<clus scale="  109.736">  2  5  1 -1</clus>
<clus scale="   38.135">  2  5  1 -1</clus>
</clustering>
</event>
<event>
 9    1  0.9171696E-005  0.1269534E+03  0.7546771E-02  0.1237503E+00
         21   -1    0    0  501  502  0.00000000000E+00  0.00000000000E+00  0.60290084344E+03  0.60290084344E+03  0.00000000000E+00 0.  1.
          3   -1    0    0  502    0 -0.00000000000E+00 -0.00000000000E+00 -0.17080735898E+03  0.17080735898E+03  0.00000000000E+00 0. -1.
         23    2    1    2    0    0  0.68594199285E+02  0.57526334057E+02 -0.97014930401E+02  0.15954645998E+03  0.89603196841E+02 0.  0.
        -24    2    1    2    0    0 -0.21850159485E+02 -0.12160340842E+03  0.51433259111E+03  0.53348211873E+03  0.69284473845E+02 0.  0.
         11    1    4    4    0    0 -0.27941938796E+02 -0.11200563520E+02  0.86341535742E+02  0.91438861328E+02  0.00000000000E+00 0. -1.
        -12    1    4    4    0    0  0.60917793108E+01 -0.11040284490E+03  0.42799105537E+03  0.44204325740E+03  0.00000000000E+00 0.  1.
        -11    1    3    3    0    0  0.37448825240E+02  0.51242755489E+02 -0.67183651259E+01  0.63822965552E+02  0.00000000000E+00 0.  1.
         11    1    3    3    0    0  0.31145374045E+02  0.62835785687E+01 -0.90296565275E+02  0.95723494423E+02  0.00000000000E+00 0. -1.
          4    1    1    2  501    0 -0.46744039800E+02  0.64077074362E+02  0.14775823752E+02  0.80679623718E+02  0.00000000000E+00 0. -1.
<scales pt_clust_5="13000.00000" pt_clust_6="13000.00000" pt_clust_7="13000.00000" pt_clust_8="13000.00000" pt_clust_9="79.31509"></scales>
<clustering>
<clus scale="   69.284">  5  6 -1 -1</clus>
<clus scale="   79.315">  1  9  2 -1</clus>
<clus scale="   89.603">  7  8 -1 -1</clus>
<clus scale="  113.529">  1  5  2 -1</clus>
<clus scale="   79.315">  1  5  2 -1</clus>
</clustering>
</event>
<event>
 9    1  0.9171696E-005  0.2616494E+03  0.7546771E-02  0.1106656E+00
          1   -1    0    0  502    0 -0.00000000000E+00  0.00000000000E+00  0.74813332759E+03  0.74813332759E+03  0.00000000000E+00 0. -1.
         21   -1    0    0  501  502  0.00000000000E+00 -0.00000000000E+00 -0.11591188214E+03  0.11591188214E+03  0.00000000000E+00 0. -1.
        -24    2    1    2    0    0  0.19294767186E+03  0.13811664919E+03  0.38445906159E+03  0.45888859385E+03  0.80404966678E+02 0.  0.
         23    2    1    2    0    0 -0.18983653529E+03 -0.18097122111E+03  0.21039575349E+03  0.34821402576E+03  0.90543589792E+02 0.  0.
         11    1    3    3    0    0  0.46744675147E+02  0.10305081942E+02  0.35716155574E+02  0.59723555968E+02  0.00000000000E+00 0. -1.
        -12    1    3    3    0    0  0.14620299671E+03  0.12781156725E+03  0.34874290602E+03  0.39916503788E+03  0.00000000000E+00 0.  1.
        -13    1    4    4    0    0 -0.81019840862E+01 -0.53107808597E+02  0.56198082249E+02  0.77745134436E+02  0.00000000000E+00 0.  1.
         13    1    4    4    0    0 -0.18173455120E+03 -0.12786341251E+03  0.15419767124E+03  0.27046889132E+03  0.00000000000E+00 0. -1.
          2    1    1    2  501    0 -0.31111365684E+01  0.42854571914E+02  0.37366630371E+02  0.56942590123E+02  0.00000000000E+00 0. -1.
<scales pt_clust_5="13000.00000" pt_clust_6="13000.00000" pt_clust_7="13000.00000" pt_clust_8="13000.00000" pt_clust_9="42.96735"></scales>
<clustering>
<clus scale="   42.967">  2  9  1 -1</clus>
<clus scale="   80.405">  5  6 -1 -1</clus>
<clus scale="   90.544">  7  8 -1 -1</clus>
<clus scale="  258.316">  1  5  2 -1</clus>
<clus scale="   42.967">  2  5  1 -1</clus>
</clustering>
</event>
<event>
 9    1  0.9171696E-005  0.2534017E+03  0.7546771E-02  0.1147689E+00
          1   -1    0    0  502    0 -0.00000000000E+00  0.00000000000E+00  0.32745591177E+03  0.32745591177E+03  0.00000000000E+00 0. -1.
         21   -1    0    0  501  502  0.00000000000E+00 -0.00000000000E+00 -0.35314706794E+03  0.35314706794E+03  0.00000000000E+00 0. -1.
         23    2    1    2    0    0 -0.33920659870E+02  0.35289872414E+02  0.18277884957E+02  0.10484335996E+03  0.90895889826E+02 0.  0.
        -24    2    1    2    0    0 -0.21743459290E+03  0.71444140746E+02 -0.14704915536E+03  0.28387415829E+03  0.81111134975E+02 0.  0.
         11    1    4    4    0    0 -0.16215816151E+03  0.19481235757E+02 -0.12241746875E+03  0.20410983451E+03  0.00000000000E+00 0. -1.
        -12    1    4    4    0    0 -0.55276431393E+02  0.51962904989E+02 -0.24631686610E+02  0.79764323778E+02  0.00000000000E+00 0.  1.
        -13    1    3    3    0    0 -0.53537592998E+02  0.53216290788E+02  0.64683165277E+01  0.75763359138E+02  0.00000000000E+00 0. -1.
         13    1    3    3    0    0  0.19616933128E+02 -0.17926418374E+02  0.11809568430E+02  0.29080000818E+02  0.00000000000E+00 0.  1.
          2    1    1    2  501    0  0.25135525277E+03 -0.10673401316E+03  0.10308011423E+03  0.29188546146E+03  0.00000000000E+00 0. -1.
<scales pt_clust_5="13000.00000" pt_clust_6="13000.00000" pt_clust_7="13000.00000" pt_clust_8="13000.00000" pt_clust_9="240.06966"></scales>
<clustering>
<clus scale="   81.111">  5  6 -1 -1</clus>
<clus scale="   90.896">  7  8 -1 -1</clus>
<clus scale="  103.238">  1  7  2 -1</clus>
<clus scale="  240.070">  2  9  1 -1</clus>
<clus scale="  240.070">  2  5  1 -1</clus>
</clustering>
</event>
<event>
 9    1  0.9171696E-005  0.2190004E+03  0.7546771E-02  0.1135733E+00
         21   -1    0    0  501  502  0.00000000000E+00  0.00000000000E+00  0.12645172844E+03  0.12645172844E+03  0.00000000000E+00 0. -1.
          1   -1    0    0  502    0 -0.00000000000E+00 -0.00000000000E+00 -0.71483983708E+03  0.71483983708E+03  0.00000000000E+00 0. -1.
        -24    2    1    2    0    0 -0.12021069229E+03  0.12661961421E+03 -0.28145000856E+03  0.34077682185E+03  0.80197242759E+02 0.  0.
         23    2    1    2    0    0  0.21104920090E+03 -0.15864671805E+03 -0.15446666248E+03  0.32016810713E+03  0.94536345703E+02 0.  0.
         13    1    3    3    0    0 -0.22948565620E+02  0.44704721579E+02 -0.14864712029E+03  0.15691116966E+03  0.00000000000E+00 0. -1.
        -14    1    3    3    0    0 -0.97262126671E+02  0.81914892635E+02 -0.13280288827E+03  0.18386565219E+03  0.00000000000E+00 0.  1.
        -11    1    4    4    0    0 -0.76212190184E+01 -0.20206180030E+02 -0.13289207645E+02  0.25356966116E+02  0.00000000000E+00 0.  1.
         11    1    4    4    0    0  0.21867041992E+03 -0.13844053802E+03 -0.14117745484E+03  0.29481114102E+03  0.00000000000E+00 0. -1.
          2    1    1    2  501    0 -0.90838508608E+02  0.32027103839E+02 -0.15247143760E+03  0.18034663654E+03  0.00000000000E+00 0. -1.
<scales pt_clust_5="13000.00000" pt_clust_6="13000.00000" pt_clust_7="13000.00000" pt_clust_8="13000.00000" pt_clust_9="96.31915"></scales>
<clustering>
<clus scale="   80.197">  5  6 -1 -1</clus>
<clus scale="   94.536">  7  8 -1 -1</clus>
<clus scale="   96.319">  1  9  2 -1</clus>
<clus scale="  213.203">  2  5  1 -1</clus>
<clus scale="   96.319">  1  5  2 -1</clus>
</clustering>
</event>
<event>
 9    1  0.9171696E-005  0.2023067E+03  0.7546771E-02  0.1148945E+00
         21   -1    0    0  501  502  0.00000000000E+00  0.00000000000E+00  0.40616789104E+03  0.40616789104E+03  0.00000000000E+00 0. -1.
          3   -1    0    0  502    0 -0.00000000000E+00 -0.00000000000E+00 -0.28221506665E+03  0.28221506665E+03  0.00000000000E+00 0. -1.
         23    2    1    2    0    0  0.13908338869E+03  0.51454855224E+02 -0.32635013412E+02  0.17777999152E+03  0.92460208464E+02 0.  0.
        -24    2    1    2    0    0 -0.21752597991E+03 -0.16869904780E+02 -0.90263851724E+02  0.24928875771E+03  0.79969845391E+02 0.  0.
         11    1    4    4    0    0 -0.42020425987E+02  0.77209860617E+00  0.14108733154E+02  0.44332478925E+02  0.00000000000E+00 0. -1.
        -12    1    4    4    0    0 -0.17550555392E+03 -0.17642003386E+02 -0.10437258488E+03  0.20495627879E+03  0.00000000000E+00 0.  1.
        -13    1    3    3    0    0  0.43609520800E+02  0.59425970655E+02 -0.35751714752E+02  0.81923265319E+02  0.00000000000E+00 0. -1.
         13    1    3    3    0    0  0.95473867889E+02 -0.79711154314E+01  0.31167013404E+01  0.95856726202E+02  0.00000000000E+00 0.  1.
          4    1    1    2  501    0  0.78442591219E+02 -0.34584950444E+02  0.24685168953E+03  0.26131420845E+03  0.00000000000E+00 0. -1.
<scales pt_clust_5="13000.00000" pt_clust_6="13000.00000" pt_clust_7="13000.00000" pt_clust_8="13000.00000" pt_clust_9="85.72840"></scales>
<clustering>
<clus scale="   79.970">  5  6 -1 -1</clus>
<clus scale="   85.728">  1  9  2 -1</clus>
<clus scale="   92.460">  7  8 -1 -1</clus>
<clus scale="  196.912">  1  5  2 -1</clus>
<clus scale="   85.728">  1  5  2 -1</clus>
</clustering>
</event>
<event>
 9    1  0.9171696E-005  0.9750529E+02  0.7546771E-02  0.1293949E+00
          1   -1    0    0  502    0 -0.00000000000E+00  0.00000000000E+00  0.15967753560E+03  0.15967753560E+03  0.00000000000E+00 0. -1.
         21   -1    0    0  501  502  0.00000000000E+00 -0.00000000000E+00 -0.15261601201E+03  0.15261601201E+03  0.00000000000E+00 0.  1.
        -24    2    1    2    0    0  0.37424117337E+01 -0.32807003173E+02  0.10630513017E+03  0.13470256441E+03  0.75853115003E+02 0.  0.
         23    2    1    2    0    0 -0.34513397087E+02  0.44575148623E+02 -0.97079209462E+02  0.14457542017E+03  0.91101925091E+02 0.  0.
         11    1    3    3    0    0  0.79493127555E+01 -0.38602536731E+02  0.11607809071E+03  0.12258658393E+03  0.00000000000E+00 0. -1.
        -12    1    3    3    0    0 -0.42069010218E+01  0.57955335583E+01 -0.97729605398E+01  0.12115980486E+02  0.00000000000E+00 0.  1.
        -11    1    4    4    0    0 -0.57155527779E+02  0.20178742010E+02 -0.25736966894E+02  0.65850796880E+02  0.00000000000E+00 0. -1.
         11    1    4    4    0    0  0.22642130693E+02  0.24396406613E+02 -0.71342242569E+02  0.78724623293E+02  0.00000000000E+00 0.  1.
          2    1    1    2  501    0  0.30770985353E+02 -0.11768145450E+02 -0.21643971165E+01  0.33015563024E+02  0.00000000000E+00 0. -1.
<scales pt_clust_5="13000.00000" pt_clust_6="13000.00000" pt_clust_7="13000.00000" pt_clust_8="13000.00000" pt_clust_9="32.94454"></scales>
<clustering>
<clus scale="   32.945">  2  9  1 -1</clus>
<clus scale="   75.853">  5  6 -1 -1</clus>
<clus scale="   83.435">  1  5  2 -1</clus>
<clus scale="   91.102">  7  8 -1 -1</clus>
<clus scale="   32.945">  2  5  1 -1</clus>
</clustering>
</event>
<event>
 9    1  0.9171696E-005  0.8735754E+02  0.7546771E-02  0.1310203E+00
         21   -1    0    0  501  502  0.00000000000E+00  0.00000000000E+00  0.26183909147E+03  0.26183909147E+03  0.00000000000E+00 0.  1.
         -4   -1    0    0    0  501 -0.00000000000E+00 -0.00000000000E+00 -0.92226115425E+02  0.92226115425E+02  0.00000000000E+00 0.  1.
         23    2    1    2    0    0  0.17460298656E+01  0.34451455044E+02 -0.48691604411E+02  0.10087027255E+03  0.81326429713E+02 0.  0.
        -24    2    1    2    0    0  0.19645972634E+02 -0.11388069895E+02  0.20052604482E+03  0.21706165557E+03  0.79933818189E+02 0.  0.
         13    1    4    4    0    0 -0.25383825211E+02 -0.25219740026E+02  0.79027972081E+02  0.86751335670E+02  0.00000000000E+00 0. -1.
        -14    1    4    4    0    0  0.45029797846E+02  0.13831670131E+02  0.12149807274E+03  0.13031031990E+03  0.00000000000E+00 0.  1.
        -11    1    3    3    0    0  0.25625603570E+02  0.31695139510E+02 -0.61386770210E+02  0.73685744779E+02  0.00000000000E+00 0.  1.
         11    1    3    3    0    0 -0.23879573704E+02  0.27563155337E+01  0.12695165799E+02  0.27184527774E+02  0.00000000000E+00 0. -1.
         -3    1    1    2    0  502 -0.21392002500E+02 -0.23063385149E+02  0.17778535633E+02  0.36133278771E+02  0.00000000000E+00 0.  1.
<scales pt_clust_5="13000.00000" pt_clust_6="13000.00000" pt_clust_7="13000.00000" pt_clust_8="13000.00000" pt_clust_9="31.45692"></scales>
<clustering>
<clus scale="   31.457">  1  9  2 -1</clus>
<clus scale="   79.934">  5  6 -1 -1</clus>
<clus scale="   81.326">  7  8 -1 -1</clus>
<clus scale="   86.063">  1  5  2 -1</clus>
<clus scale="   31.457">  1  5  2 -1</clus>
</clustering>
</event>
<event>
 9    1  0.9171696E-005  0.1119015E+03  0.7546771E-02  0.1261553E+00
         21   -1    0    0  501  502  0.00000000000E+00  0.00000000000E+00  0.95403539245E+02  0.95403539245E+02  0.00000000000E+00 0.  1.
         -2   -1    0    0    0  501 -0.00000000000E+00 -0.00000000000E+00 -0.22548040388E+03  0.22548040388E+03  0.00000000000E+00 0.  1.
        -24    2    1    2    0    0 -0.66328684641E+02 -0.15993635812E+02 -0.63582999006E+02  0.12240920385E+03  0.79283823267E+02 0.  0.
         23    2    1    2    0    0  0.41212975589E+02  0.55982643435E+02  0.27695296749E+01  0.11464552300E+03  0.91122773920E+02 0.  0.
         13    1    3    3    0    0 -0.15147872178E+02 -0.24511904606E+02  0.11598998557E+02  0.31061684862E+02  0.00000000000E+00 0. -1.
        -14    1    3    3    0    0 -0.51180812463E+02  0.85182687939E+01 -0.75181997564E+02  0.91347518988E+02  0.00000000000E+00 0.  1.
        -11    1    4    4    0    0 -0.10574488321E+02  0.58621671390E+02  0.14874239263E+02  0.61396768265E+02  0.00000000000E+00 0.  1.
         11    1    4    4    0    0  0.51787463910E+02 -0.26390279543E+01 -0.12104709588E+02  0.53248754737E+02  0.00000000000E+00 0. -1.
         -1    1    1    2    0  502  0.25115709052E+02 -0.39989007623E+02 -0.69263395302E+02  0.83829216271E+02  0.00000000000E+00 0.  1.
<scales pt_clust_5="13000.00000" pt_clust_6="13000.00000" pt_clust_7="13000.00000" pt_clust_8="13000.00000" pt_clust_9="47.22205"></scales>
<clustering>
<clus scale="   47.222">  1  9  2 -1</clus>
<clus scale="   79.284">  5  6 -1 -1</clus>
<clus scale="   91.123">  7  8 -1 -1</clus>
<clus scale="  102.492">  2  5  1 -1</clus>
<clus scale="   47.222">  1  5  2 -1</clus>
</clustering>
</event>
<event>
 9    1  0.9171696E-005  0.4197980E+03  0.7546771E-02  0.1037296E+00
          1   -1    0    0  502    0 -0.00000000000E+00  0.00000000000E+00  0.25645876006E+03  0.25645876006E+03  0.00000000000E+00 0. -1.
         21   -1    0    0  501  502  0.00000000000E+00 -0.00000000000E+00 -0.10461990599E+04  0.10461990599E+04  0.00000000000E+00 0. -1.
        -24    2    1    2    0    0  0.26242183233E+03  0.30741045567E+03 -0.62814107709E+02  0.41708488316E+03  0.81533927270E+02 0.  0.
         23    2    1    2    0    0 -0.28040863098E+03 -0.32376348154E+03 -0.73855220665E+03  0.85862649742E+03  0.91259562920E+02 0.  0.
         11    1    3    3    0    0  0.22508461526E+03  0.29321120756E+03 -0.70763931637E+02  0.37635545737E+03  0.00000000000E+00 0. -1.
        -12    1    3    3    0    0  0.37337217067E+02  0.14199248107E+02  0.79498239283E+01  0.40729425795E+02  0.00000000000E+00 0.  1.
        -13    1    4    4    0    0 -0.11860624038E+03 -0.20499732767E+03 -0.38192205551E+03  0.44939492776E+03  0.00000000000E+00 0.  1.
         13    1    4    4    0    0 -0.16180239060E+03 -0.11876615386E+03 -0.35663015114E+03  0.40923156966E+03  0.00000000000E+00 0. -1.
          2    1    1    2  501    0  0.17986798654E+02  0.16353025868E+02  0.11626014524E+02  0.26946439367E+02  0.00000000000E+00 0. -1.
<scales pt_clust_5="13000.00000" pt_clust_6="13000.00000" pt_clust_7="13000.00000" pt_clust_8="13000.00000" pt_clust_9="24.30940"></scales>
<clustering>
<clus scale="   24.309">  2  9  1 -1</clus>
<clus scale="   81.534">  5  6 -1 -1</clus>
<clus scale="   91.260">  7  8 -1 -1</clus>
<clus scale="  417.792">  1  5  2 -1</clus>
<clus scale="   24.309">  2  5  1 -1</clus>
</clustering>
</event>
<event>
 9    1  0.9171696E-005  0.2316385E+03  0.7546771E-02  0.1152024E+00
          1   -1    0    0  502    0 -0.00000000000E+00  0.00000000000E+00  0.29569080045E+03  0.29569080045E+03  0.00000000000E+00 0. -1.
         21   -1    0    0  501  502  0.00000000000E+00 -0.00000000000E+00 -0.30156691939E+03  0.30156691939E+03  0.00000000000E+00 0. -1.
        -24    2    1    2    0    0  0.70650516013E+02 -0.55947430168E+02  0.59931193191E+02  0.13588719324E+03  0.82170377960E+02 0.  0.
         23    2    1    2    0    0 -0.23818816307E+03 -0.24155360189E+02 -0.93780265101E+02  0.27357327875E+03  0.93437242427E+02 0.  0.
         11    1    3    3    0    0  0.36638535966E+01 -0.46727691295E+02  0.48249302786E+02  0.67267348516E+02  0.00000000000E+00 0. -1.
        -12    1    3    3    0    0  0.66986662417E+02 -0.92197388728E+01  0.11681890405E+02  0.68619844725E+02  0.00000000000E+00 0.  1.
        -13    1    4    4    0    0 -0.19707994129E+03 -0.24085658268E+02 -0.11271962311E+03  0.22831192617E+03  0.00000000000E+00 0. -1.
         13    1    4    4    0    0 -0.41108221772E+02 -0.69701921013E-01  0.18939358014E+02  0.45261352583E+02  0.00000000000E+00 0.  1.
          2    1    1    2  501    0  0.16753764705E+03  0.80102790357E+02  0.27972952970E+02  0.18779724785E+03  0.00000000000E+00 0. -1.
<scales pt_clust_5="13000.00000" pt_clust_6="13000.00000" pt_clust_7="13000.00000" pt_clust_8="13000.00000" pt_clust_9="211.95739"></scales>
<clustering>
<clus scale="   82.170">  5  6 -1 -1</clus>
<clus scale="   93.437">  7  8 -1 -1</clus>
<clus scale="  121.957">  1  5  2 -1</clus>
<clus scale="  211.957">  2  9  1 -1</clus>
<clus scale="  211.957">  2  5  1 -1</clus>
</clustering>
</event>
<event>
 9    1  0.1593959E-004  0.1179880E+03  0.7546771E-02  0.1252659E+00
         -2   -1    0    0    0  501 -0.00000000000E+00  0.00000000000E+00  0.18293417857E+03  0.18293417857E+03  0.00000000000E+00 0.  1.
         21   -1    0    0  501  502  0.00000000000E+00 -0.00000000000E+00 -0.45332372002E+03  0.45332372002E+03  0.00000000000E+00 0. -1.
        -24    2    1    2    0    0  0.61585014542E+02 -0.23165852792E+02  0.15358628029E+03  0.18576548794E+03  0.81183127958E+02 0.  0.
         23    2    1    2    0    0 -0.64002032605E+02 -0.10447053617E+02 -0.30823358657E+03  0.32994393717E+03  0.98232666058E+02 0.  0.
         13    1    3    3    0    0 -0.13967497014E+02  0.14353693805E+02  0.33011800786E+02  0.38612154691E+02  0.00000000000E+00 0. -1.
        -14    1    3    3    0    0  0.75552511556E+02 -0.37519546597E+02  0.12057447950E+03  0.14715333325E+03  0.00000000000E+00 0.  1.
        -11    1    4    4    0    0 -0.76049816981E+02 -0.27899365691E+02 -0.29257622202E+03  0.30358325870E+03  0.00000000000E+00 0. -1.
         11    1    4    4    0    0  0.12047784376E+02  0.17452312074E+02 -0.15657364546E+02  0.26360678474E+02  0.00000000000E+00 0.  1.
         -1    1    1    2    0  502  0.24170180628E+01  0.33612906409E+02 -0.11574223517E+03  0.12054847347E+03  0.00000000000E+00 0.  1.
<scales pt_clust_5="13000.00000" pt_clust_6="13000.00000" pt_clust_7="13000.00000" pt_clust_8="13000.00000" pt_clust_9="33.69970"></scales>
<clustering>
<clus scale="   33.700">  2  9  1 -1</clus>
<clus scale="   81.183">  5  6 -1 -1</clus>
<clus scale="   98.233">  7  8 -1 -1</clus>
<clus scale="  104.222">  1  5  2 -1</clus>
<clus scale="   33.700">  2  5  1 -1</clus>
</clustering>
</event>
<event>
 9    1  0.9171696E-005  0.1687200E+03  0.7546771E-02  0.1202138E+00
         21   -1    0    0  501  502  0.00000000000E+00  0.00000000000E+00  0.27008361807E+03  0.27008361807E+03  0.00000000000E+00 0. -1.
          3   -1    0    0  502    0 -0.00000000000E+00 -0.00000000000E+00 -0.18054191348E+03  0.18054191348E+03  0.00000000000E+00 0. -1.
         23    2    1    2    0    0 -0.35567492058E+02 -0.34632079883E+02  0.75783526957E+02  0.12680798941E+03  0.88728212939E+02 0.  0.
        -24    2    1    2    0    0  0.88854364647E+00 -0.13118273438E+03  0.10009560188E+02  0.15437364516E+03  0.80754762799E+02 0.  0.
         13    1    4    4    0    0 -0.14439190646E+02 -0.13295216844E+03 -0.36250070098E+01  0.13378307066E+03  0.00000000000E+00 0. -1.
        -14    1    4    4    0    0  0.15327734293E+02  0.17694340601E+01  0.13634567198E+02  0.20590574497E+02  0.00000000000E+00 0.  1.
        -11    1    3    3    0    0  0.98631202112E+01  0.20013065036E+02  0.43219228830E+02  0.48638520260E+02  0.00000000000E+00 0. -1.
         11    1    3    3    0    0 -0.45430612269E+02 -0.54645144919E+02  0.32564298127E+02  0.78169469148E+02  0.00000000000E+00 0.  1.
          4    1    1    2  501    0  0.34678948412E+02  0.16581481426E+03  0.37486174373E+01  0.16944389698E+03  0.00000000000E+00 0. -1.
<scales pt_clust_5="13000.00000" pt_clust_6="13000.00000" pt_clust_7="13000.00000" pt_clust_8="13000.00000" pt_clust_9="148.13885"></scales>
<clustering>
<clus scale="   80.755">  5  6 -1 -1</clus>
<clus scale="   88.728">  7  8 -1 -1</clus>
<clus scale="  101.672">  2  7  1 -1</clus>
<clus scale="  148.139">  1  9  2 -1</clus>
<clus scale="  148.139">  1  5  2 -1</clus>
</clustering>
</event>
<event>
 9    1  0.9171696E-005  0.9488285E+02  0.7546771E-02  0.1296666E+00
          1   -1    0    0  502    0 -0.00000000000E+00  0.00000000000E+00  0.93930716457E+03  0.93930716457E+03  0.00000000000E+00 0. -1.
         21   -1    0    0  501  502  0.00000000000E+00 -0.00000000000E+00 -0.20330024263E+02  0.20330024263E+02  0.00000000000E+00 0.  1.
         23    2    1    2    0    0 -0.44952705603E+02  0.25516229791E+02  0.44465584441E+03  0.45639593932E+03  0.88919119090E+02 0.  0.
        -24    2    1    2    0    0 -0.91913764498E+01 -0.48800106354E+01  0.12058417252E+03  0.14478987538E+03  0.79468669578E+02 0.  0.
         13    1    4    4    0    0 -0.35702744352E+02 -0.27288943932E+02  0.75915112143E+02  0.88218346544E+02  0.00000000000E+00 0. -1.
        -14    1    4    4    0    0  0.26511367903E+02  0.22408933297E+02  0.44669060380E+02  0.56571528836E+02  0.00000000000E+00 0.  1.
        -13    1    3    3    0    0 -0.72243715851E+02  0.20577846379E+02  0.32492402966E+03  0.33349396890E+03  0.00000000000E+00 0.  1.
         13    1    3    3    0    0  0.27291010248E+02  0.49383834126E+01  0.11973181475E+03  0.12290197042E+03  0.00000000000E+00 0. -1.
          2    1    1    2  501    0  0.54144082053E+02 -0.20636219156E+02  0.35373712338E+03  0.35845137413E+03  0.00000000000E+00 0. -1.
<scales pt_clust_5="13000.00000" pt_clust_6="13000.00000" pt_clust_7="13000.00000" pt_clust_8="13000.00000" pt_clust_9="57.94341"></scales>
<clustering>
<clus scale="   57.943">  2  9  1 -1</clus>
<clus scale="   79.469">  5  6 -1 -1</clus>
<clus scale="   86.090">  2  5  1 -1</clus>
<clus scale="   88.919">  7  8 -1 -1</clus>
<clus scale="   57.943">  2  5  1 -1</clus>
</clustering>
</event>
<event>
 9    1  0.9171696E-005  0.1512989E+03  0.7546771E-02  0.1200342E+00
          1   -1    0    0  502    0 -0.00000000000E+00  0.00000000000E+00  0.92239213284E+03  0.92239213284E+03  0.00000000000E+00 0. -1.
         21   -1    0    0  501  502  0.00000000000E+00 -0.00000000000E+00 -0.53057120554E+02  0.53057120554E+02  0.00000000000E+00 0. -1.
        -24    2    1    2    0    0  0.76783155755E+01  0.12248336918E+03  0.69271732408E+03  0.70944074837E+03  0.91584671872E+02 0.  0.
         23    2    1    2    0    0  0.23247720964E+02 -0.77658810035E+02  0.68866167645E+02  0.14527718753E+03  0.98952336329E+02 0.  0.
         13    1    3    3    0    0  0.38324850788E+02  0.11529642218E+03  0.53694155733E+03  0.55051638954E+03  0.00000000000E+00 0. -1.
        -14    1    3    3    0    0 -0.30646535213E+02  0.71869469974E+01  0.15577576674E+03  0.15892435884E+03  0.00000000000E+00 0.  1.
        -11    1    4    4    0    0  0.55798456725E+02 -0.74745711322E+02  0.61652318631E+02  0.11180964863E+03  0.00000000000E+00 0.  1.
         11    1    4    4    0    0 -0.32550735760E+02 -0.29130987129E+01  0.72138490139E+01  0.33467538903E+02  0.00000000000E+00 0. -1.
          2    1    1    2  501    0 -0.30926036540E+02 -0.44824559143E+02  0.10775152057E+03  0.12073131749E+03  0.00000000000E+00 0. -1.
<scales pt_clust_5="13000.00000" pt_clust_6="13000.00000" pt_clust_7="13000.00000" pt_clust_8="13000.00000" pt_clust_9="54.45791"></scales>
<clustering>
<clus scale="   54.458">  2  9  1 -1</clus>
<clus scale="   91.585">  5  6 -1 -1</clus>
<clus scale="   98.952">  7  8 -1 -1</clus>
<clus scale="  146.586">  1  5  2 -1</clus>
<clus scale="   54.458">  2  5  1 -1</clus>
</clustering>
</event>
<event>
 9    1  0.9171696E-005  0.1221921E+03  0.7546771E-02  0.1242780E+00
         -2   -1    0    0    0  501 -0.00000000000E+00  0.00000000000E+00  0.56096558922E+03  0.56096558922E+03  0.00000000000E+00 0.  1.
         21   -1    0    0  501  502  0.00000000000E+00 -0.00000000000E+00 -0.86247402710E+02  0.86247402710E+02  0.00000000000E+00 0.  1.
        -24    2    1    2    0    0 -0.24387927351E+01  0.76456297149E+02  0.26688521666E+03  0.28895973136E+03  0.80115506553E+02 0.  0.
         23    2    1    2    0    0 -0.31598821964E+02 -0.86663431966E+02  0.26269572885E+03  0.29288761868E+03  0.90912459155E+02 0.  0.
         11    1    3    3    0    0  0.34518023247E+02  0.20604753444E+02  0.66795803620E+02  0.77959792038E+02  0.00000000000E+00 0. -1.
        -12    1    3    3    0    0 -0.36956815982E+02  0.55851543705E+02  0.20008941304E+03  0.21099993932E+03  0.00000000000E+00 0.  1.
        -13    1    4    4    0    0 -0.24335488312E+02 -0.53448552943E+02  0.24966030171E+03  0.25647461873E+03  0.00000000000E+00 0.  1.
         13    1    4    4    0    0 -0.72633336520E+01 -0.33214879023E+02  0.13035427134E+02  0.36412999943E+02  0.00000000000E+00 0. -1.
         -1    1    1    2    0  502  0.34037614699E+02  0.10207134818E+02 -0.54862758998E+02  0.65365641896E+02  0.00000000000E+00 0.  1.
<scales pt_clust_5="13000.00000" pt_clust_6="13000.00000" pt_clust_7="13000.00000" pt_clust_8="13000.00000" pt_clust_9="35.53512"></scales>
<clustering>
<clus scale="   35.535">  2  9  1 -1</clus>
<clus scale="   80.116">  5  6 -1 -1</clus>
<clus scale="   90.912">  7  8 -1 -1</clus>
<clus scale="  114.387">  1  5  2 -1</clus>
<clus scale="   35.535">  2  5  1 -1</clus>
</clustering>
</event>
<event>
 9    1  0.9171696E-005  0.1118916E+03  0.7546771E-02  0.1263855E+00
         -2   -1    0    0    0  501 -0.00000000000E+00  0.00000000000E+00  0.16877606326E+03  0.16877606326E+03  0.00000000000E+00 0.  1.
         21   -1    0    0  501  502  0.00000000000E+00 -0.00000000000E+00 -0.12195668857E+03  0.12195668857E+03  0.00000000000E+00 0. -1.
        -24    2    1    2    0    0 -0.66240115946E+02 -0.39807994539E+01  0.93809751199E+02  0.14006091401E+03  0.80082398125E+02 0.  0.
         23    2    1    2    0    0  0.25864155561E+02  0.15374459090E+02 -0.31527187317E+02  0.10596005104E+03  0.96582815966E+02 0.  0.
         11    1    3    3    0    0 -0.11372804794E+02  0.19495137898E+02 -0.63707806617E+01  0.23451821609E+02  0.00000000000E+00 0. -1.
        -12    1    3    3    0    0 -0.54867311152E+02 -0.23475937352E+02  0.10018053186E+03  0.11660909240E+03  0.00000000000E+00 0.  1.
        -11    1    4    4    0    0  0.24211977463E+02 -0.39450553638E+02 -0.15563665840E+02  0.48834349892E+02  0.00000000000E+00 0.  1.
         11    1    4    4    0    0  0.16521780981E+01  0.54825012728E+02 -0.15963521477E+02  0.57125701143E+02  0.00000000000E+00 0. -1.
         -1    1    1    2    0  502  0.40375960385E+02 -0.11393659636E+02 -0.15463189197E+02  0.44711786780E+02  0.00000000000E+00 0.  1.
<scales pt_clust_5="13000.00000" pt_clust_6="13000.00000" pt_clust_7="13000.00000" pt_clust_8="13000.00000" pt_clust_9="41.95276"></scales>
<clustering>
<clus scale="   41.953">  2  9  1 -1</clus>
<clus scale="   80.082">  5  6 -1 -1</clus>
<clus scale="   96.583">  7  8 -1 -1</clus>
<clus scale="   98.003">  1  5  2 -1</clus>
<clus scale="   41.953">  2  5  1 -1</clus>
</clustering>
</event>
<event>
 9    1  0.9171696E-005  0.1186502E+03  0.7546771E-02  0.1248846E+00
          1   -1    0    0  502    0 -0.00000000000E+00  0.00000000000E+00  0.18505117587E+03  0.18505117587E+03  0.00000000000E+00 0. -1.
         21   -1    0    0  501  502  0.00000000000E+00 -0.00000000000E+00 -0.37289037527E+03  0.37289037527E+03  0.00000000000E+00 0. -1.
        -24    2    1    2    0    0 -0.62059200425E+02 -0.52027939863E+02  0.14768186707E+03  0.18660198905E+03  0.80325074380E+02 0.  0.
         23    2    1    2    0    0  0.32411432300E+02  0.16466579255E+02 -0.14354281494E+03  0.17385728546E+03  0.91105251276E+02 0.  0.
         13    1    3    3    0    0 -0.18197374404E+02 -0.61912324728E+02  0.11175959863E+03  0.12905226954E+03  0.00000000000E+00 0. -1.
        -14    1    3    3    0    0 -0.43861826021E+02  0.98843848650E+01  0.35922268445E+02  0.57549719515E+02  0.00000000000E+00 0.  1.
        -13    1    4    4    0    0 -0.31754256789E+02  0.11299785297E+02 -0.50658876238E+02  0.60846854592E+02  0.00000000000E+00 0.  1.
         13    1    4    4    0    0  0.64165689088E+02  0.51667939577E+01 -0.92883938698E+02  0.11301043086E+03  0.00000000000E+00 0. -1.
          2    1    1    2  501    0  0.29647768125E+02  0.35561360608E+02 -0.19197825153E+03  0.19748227663E+03  0.00000000000E+00 0. -1.
<scales pt_clust_5="13000.00000" pt_clust_6="13000.00000" pt_clust_7="13000.00000" pt_clust_8="13000.00000" pt_clust_9="46.29903"></scales>
<clustering>
<clus scale="   46.299">  2  9  1 -1</clus>
<clus scale="   80.325">  5  6 -1 -1</clus>
<clus scale="   91.105">  7  8 -1 -1</clus>
<clus scale="  110.589">  1  5  2 -1</clus>
<clus scale="   46.299">  2  5  1 -1</clus>
</clustering>
</event>
<event>
 9    1  0.9171696E-005  0.9628862E+02  0.7546771E-02  0.1295355E+00
          1   -1    0    0  502    0 -0.00000000000E+00  0.00000000000E+00  0.59101515614E+03  0.59101515614E+03  0.00000000000E+00 0. -1.
         21   -1    0    0  501  502  0.00000000000E+00 -0.00000000000E+00 -0.47248256302E+02  0.47248256302E+02  0.00000000000E+00 0.  1.
        -24    2    1    2    0    0  0.24144154791E+02 -0.30094382548E+01  0.41677493029E+03  0.42508743224E+03  0.80037401229E+02 0.  0.
         23    2    1    2    0    0 -0.52096217948E+02 -0.11248334856E+02  0.29480328209E+02  0.11074003864E+03  0.92486352747E+02 0.  0.
         13    1    3    3    0    0  0.28494695487E+02  0.35102751994E+02  0.21606624126E+03  0.22074594330E+03  0.00000000000E+00 0. -1.
        -14    1    3    3    0    0 -0.43505406961E+01 -0.38112190249E+02  0.20070868903E+03  0.20434148894E+03  0.00000000000E+00 0.  1.
        -13    1    4    4    0    0 -0.49235649345E+02  0.34277268736E+02  0.24688190048E+02  0.64873623656E+02  0.00000000000E+00 0.  1.
         13    1    4    4    0    0 -0.28605686038E+01 -0.45525603591E+02  0.47921381604E+01  0.45866414981E+02  0.00000000000E+00 0. -1.
          2    1    1    2  501    0  0.27952063157E+02  0.14257773111E+02  0.97511641338E+02  0.10243594157E+03  0.00000000000E+00 0. -1.
<scales pt_clust_5="13000.00000" pt_clust_6="13000.00000" pt_clust_7="13000.00000" pt_clust_8="13000.00000" pt_clust_9="31.37838"></scales>
<clustering>
<clus scale="   31.378">  2  9  1 -1</clus>
<clus scale="   80.037">  5  6 -1 -1</clus>
<clus scale="   84.402">  1  5  2 -1</clus>
<clus scale="   92.486">  7  8 -1 -1</clus>
<clus scale="   31.378">  2  5  1 -1</clus>
</clustering>
</event>
<event>
 9    1  0.9171696E-005  0.1720661E+03  0.7546771E-02  0.1176946E+00
          1   -1    0    0  502    0 -0.00000000000E+00  0.00000000000E+00  0.55407821362E+02  0.55407821362E+02  0.00000000000E+00 0. -1.
         21   -1    0    0  501  502  0.00000000000E+00 -0.00000000000E+00 -0.10812145968E+04  0.10812145968E+04  0.00000000000E+00 0. -1.
         23    2    1    2    0    0  0.85675109554E+02  0.14845138173E+03 -0.45936798534E+03  0.49874980466E+03  0.91402322509E+02 0.  0.
        -24    2    1    2    0    0 -0.12761442877E+03 -0.50578105601E+02 -0.46123745280E+03  0.48818825879E+03  0.82123084162E+02 0.  0.
         13    1    4    4    0    0 -0.64110633480E+02  0.16437378321E+02 -0.22565933303E+03  0.23516482584E+03  0.00000000000E+00 0. -1.
        -14    1    4    4    0    0 -0.63503795291E+02 -0.67015483922E+02 -0.23557811978E+03  0.25302343294E+03  0.00000000000E+00 0.  1.
        -13    1    3    3    0    0 -0.12887016929E+02  0.41682528506E+02 -0.16209851951E+03  0.16786732385E+03  0.00000000000E+00 0.  1.
         13    1    3    3    0    0  0.98562126483E+02  0.10676885323E+03 -0.29726946583E+03  0.33088248082E+03  0.00000000000E+00 0. -1.
          2    1    1    2  501    0  0.41939319217E+02 -0.97873276133E+02 -0.10520133730E+03  0.14968435472E+03  0.00000000000E+00 0. -1.
<scales pt_clust_5="13000.00000" pt_clust_6="13000.00000" pt_clust_7="13000.00000" pt_clust_8="13000.00000" pt_clust_9="106.48050"></scales>
<clustering>
<clus scale="   82.123">  5  6 -1 -1</clus>
<clus scale="   91.402">  7  8 -1 -1</clus>
<clus scale="  106.480">  2  9  1 -1</clus>
<clus scale="  167.322">  2  5  1 -1</clus>
<clus scale="  106.480">  2  5  1 -1</clus>
</clustering>
</event>
<event>
 9    1  0.9171696E-005  0.1616334E+03  0.7546771E-02  0.1188909E+00
          1   -1    0    0  502    0 -0.00000000000E+00  0.00000000000E+00  0.64991936115E+02  0.64991936115E+02  0.00000000000E+00 0. -1.
         21   -1    0    0  501  502  0.00000000000E+00 -0.00000000000E+00 -0.77975890256E+03  0.77975890256E+03  0.00000000000E+00 0. -1.
         23    2    1    2    0    0 -0.50144077211E+02  0.11430939551E+03 -0.10932977192E+03  0.18985353419E+03  0.92251282026E+02 0.  0.
        -24    2    1    2    0    0  0.75895048899E+02 -0.14564937412E+03 -0.57767018803E+03  0.60574129313E+03  0.79030813230E+02 0.  0.
         13    1    4    4    0    0  0.33815430636E+02 -0.78363095694E+02 -0.42702537685E+03  0.43547092968E+03  0.00000000000E+00 0. -1.
        -14    1    4    4    0    0  0.42079618263E+02 -0.67286278426E+02 -0.15064481117E+03  0.17027036345E+03  0.00000000000E+00 0.  1.
        -13    1    3    3    0    0 -0.33044770765E+02  0.18516262455E+02  0.66518857711E+01  0.38458502759E+02  0.00000000000E+00 0.  1.
         13    1    3    3    0    0 -0.17099306446E+02  0.95793133055E+02 -0.11598165769E+03  0.15139503143E+03  0.00000000000E+00 0. -1.
          2    1    1    2  501    0 -0.25750971688E+02  0.31339978610E+02 -0.27767006499E+02  0.49156011352E+02  0.00000000000E+00 0. -1.
<scales pt_clust_5="13000.00000" pt_clust_6="13000.00000" pt_clust_7="13000.00000" pt_clust_8="13000.00000" pt_clust_9="40.56240"></scales>
<clustering>
<clus scale="   40.562">  2  9  1 -1</clus>
<clus scale="   79.031">  5  6 -1 -1</clus>
<clus scale="   92.251">  7  8 -1 -1</clus>
<clus scale="  154.470">  2  5  1 -1</clus>
<clus scale="   40.562">  2  5  1 -1</clus>
</clustering>
</event>
<event>
 9    1  0.9171696E-005  0.1518093E+03  0.7546771E-02  0.1200719E+00
         -4   -1    0    0    0  501 -0.00000000000E+00  0.00000000000E+00  0.37647302517E+03  0.37647302517E+03  0.00000000000E+00 0.  1.
         21   -1    0    0  501  502  0.00000000000E+00 -0.00000000000E+00 -0.13581688934E+03  0.13581688934E+03  0.00000000000E+00 0.  1.
         23    2    1    2    0    0  0.84778115567E+02  0.13007471799E+03  0.20160294442E+03  0.27046883332E+03  0.91667232209E+02 0.  0.
        -24    2    1    2    0    0 -0.93625070214E+02 -0.25476023743E+02  0.54243291703E+02  0.13575556092E+03  0.77926606925E+02 0.  0.
         13    1    4    4    0    0 -0.47345977669E+02 -0.92687071729E+01 -0.15345176811E+02  0.50626327000E+02  0.00000000000E+00 0. -1.
        -14    1    4    4    0    0 -0.46279092545E+02 -0.16207316570E+02  0.69588468515E+02  0.85129233918E+02  0.00000000000E+00 0.  1.
        -11    1    3    3    0    0  0.56961880014E+02  0.13870385996E+03  0.15615319232E+03  0.21648842004E+03  0.00000000000E+00 0.  1.
         11    1    3    3    0    0  0.27816235553E+02 -0.86291419712E+01  0.45449752103E+02  0.53980413278E+02  0.00000000000E+00 0. -1.
         -3    1    1    2    0  502  0.88469546468E+01 -0.10459869424E+03 -0.15190100286E+02  0.10606552027E+03  0.00000000000E+00 0.  1.
<scales pt_clust_5="13000.00000" pt_clust_6="13000.00000" pt_clust_7="13000.00000" pt_clust_8="13000.00000" pt_clust_9="104.97217"></scales>
<clustering>
<clus scale="   77.927">  5  6 -1 -1</clus>
<clus scale="   91.667">  7  8 -1 -1</clus>
<clus scale="  104.972">  2  9  1 -1</clus>
<clus scale="  143.930">  2  5  1 -1</clus>
<clus scale="  104.972">  2  5  1 -1</clus>
</clustering>
</event>
<event>
 9    1  0.9171696E-005  0.1039176E+03  0.7546771E-02  0.1276649E+00
          1   -1    0    0  502    0 -0.00000000000E+00  0.00000000000E+00  0.57965438924E+03  0.57965438924E+03  0.00000000000E+00 0. -1.
         21   -1    0    0  501  502  0.00000000000E+00 -0.00000000000E+00 -0.39912334296E+02  0.39912334296E+02  0.00000000000E+00 0. -1.
         23    2    1    2    0    0 -0.95819939888E+01 -0.65220584471E+02  0.26831359886E+03  0.29068395150E+03  0.90329580325E+02 0.  0.
        -24    2    1    2    0    0  0.34692739668E+02  0.11054946516E+02  0.54391276311E+02  0.10378367544E+03  0.80540935680E+02 0.  0.
         11    1    4    4    0    0 -0.17446741327E+01  0.28155166009E+02 -0.81916636199E+01  0.29374489165E+02  0.00000000000E+00 0. -1.
        -12    1    4    4    0    0  0.36437413801E+02 -0.17100219493E+02  0.62582939931E+02  0.74409186271E+02  0.00000000000E+00 0.  1.
        -11    1    3    3    0    0 -0.22136602678E+02 -0.25805572645E+02  0.21059145337E+02  0.39993053897E+02  0.00000000000E+00 0.  1.
         11    1    3    3    0    0  0.12554608689E+02 -0.39415011825E+02  0.24725445352E+03  0.25069089761E+03  0.00000000000E+00 0. -1.
          2    1    1    2  501    0 -0.25110745679E+02  0.54165637955E+02  0.21703717977E+03  0.22509909659E+03  0.00000000000E+00 0. -1.
<scales pt_clust_5="13000.00000" pt_clust_6="13000.00000" pt_clust_7="13000.00000" pt_clust_8="13000.00000" pt_clust_9="59.70318"></scales>
<clustering>
<clus scale="   59.703">  2  9  1 -1</clus>
<clus scale="   80.541">  5  6 -1 -1</clus>
<clus scale="   90.330">  7  8 -1 -1</clus>
<clus scale="   95.532">  2  5  1 -1</clus>
<clus scale="   59.703">  2  5  1 -1</clus>
</clustering>
</event>
<event>
 9    1  0.9171696E-005  0.1060373E+03  0.7546771E-02  0.1273017E+00
         -2   -1    0    0    0  501 -0.00000000000E+00  0.00000000000E+00  0.29393705659E+03  0.29393705659E+03  0.00000000000E+00 0.  1.
         21   -1    0    0  501  502  0.00000000000E+00 -0.00000000000E+00 -0.58085065598E+02  0.58085065598E+02  0.00000000000E+00 0. -1.
        -24    2    1    2    0    0 -0.40974742232E+02 -0.95831613168E+01  0.10711829547E+03  0.14003068022E+03  0.79771521831E+02 0.  0.
         23    2    1    2    0    0  0.72769074853E+02 -0.14933702933E+02  0.12506279566E+03  0.17167479869E+03  0.91176641245E+02 0.  0.
         13    1    3    3    0    0 -0.33840280088E+01 -0.29431359883E+02  0.58432311636E+01  0.30196025244E+02  0.00000000000E+00 0. -1.
        -14    1    3    3    0    0 -0.37590714223E+02  0.19848198566E+02  0.10127506431E+03  0.10983465497E+03  0.00000000000E+00 0.  1.
        -11    1    4    4    0    0  0.19549264881E+02  0.72887738908E+01  0.11014498140E+03  0.11210359900E+03  0.00000000000E+00 0.  1.
         11    1    4    4    0    0  0.53219809973E+02 -0.22222476824E+02  0.14917814259E+02  0.59571199686E+02  0.00000000000E+00 0. -1.
         -1    1    1    2    0  502 -0.31794332622E+02  0.24516864250E+02  0.36708998588E+01  0.40316643279E+02  0.00000000000E+00 0.  1.
<scales pt_clust_5="13000.00000" pt_clust_6="13000.00000" pt_clust_7="13000.00000" pt_clust_8="13000.00000" pt_clust_9="40.14917"></scales>
<clustering>
<clus scale="   40.149">  2  9  1 -1</clus>
<clus scale="   79.772">  5  6 -1 -1</clus>
<clus scale="   91.177">  7  8 -1 -1</clus>
<clus scale="   96.407">  1  5  2 -1</clus>
<clus scale="   40.149">  2  5  1 -1</clus>
</clustering>
</event>
<event>
 9    1  0.9171696E-005  0.1149638E+03  0.7546771E-02  0.1254889E+00
         -2   -1    0    0    0  501 -0.00000000000E+00  0.00000000000E+00  0.13439813590E+03  0.13439813590E+03  0.00000000000E+00 0.  1.
         21   -1    0    0  501  502  0.00000000000E+00 -0.00000000000E+00 -0.27414783994E+03  0.27414783994E+03  0.00000000000E+00 0.  1.
         23    2    1    2    0    0 -0.36876665878E+02  0.50042736428E+02 -0.16280430220E+01  0.10949874791E+03  0.90128582118E+02 0.  0.
        -24    2    1    2    0    0  0.34224810548E+01 -0.11704279541E+03 -0.16647463919E+03  0.21897175255E+03  0.80771861369E+02 0.  0.
         13    1    4    4    0    0  0.37274410570E+02 -0.64590450831E+02 -0.60727263711E+02  0.96172285923E+02  0.00000000000E+00 0. -1.
        -14    1    4    4    0    0 -0.33851929515E+02 -0.52452344574E+02 -0.10574737548E+03  0.12279946663E+03  0.00000000000E+00 0.  1.
        -11    1    3    3    0    0 -0.63511905990E+02  0.52542190313E+02  0.22950922275E+01  0.82460362683E+02  0.00000000000E+00 0.  1.
         11    1    3    3    0    0  0.26635240113E+02 -0.24994538848E+01 -0.39231352495E+01  0.27038385229E+02  0.00000000000E+00 0. -1.
         -1    1    1    2    0  502  0.33454184823E+02  0.67000058978E+02  0.28352978176E+02  0.80075475375E+02  0.00000000000E+00 0.  1.
<scales pt_clust_5="13000.00000" pt_clust_6="13000.00000" pt_clust_7="13000.00000" pt_clust_8="13000.00000" pt_clust_9="74.88789"></scales>
<clustering>
<clus scale="   74.888">  2  9  1 -1</clus>
<clus scale="   80.772">  5  6 -1 -1</clus>
<clus scale="   90.129">  7  8 -1 -1</clus>
<clus scale="  107.785">  2  5  1 -1</clus>
<clus scale="   74.888">  2  5  1 -1</clus>
</clustering>
</event>
<event>
 9    1  0.9171696E-005  0.1011699E+03  0.7546771E-02  0.1285180E+00
         21   -1    0    0  501  502  0.00000000000E+00  0.00000000000E+00  0.23312851971E+03  0.23312851971E+03  0.00000000000E+00 0.  1.
         -2   -1    0    0    0  501 -0.00000000000E+00 -0.00000000000E+00 -0.57743031850E+02  0.57743031850E+02  0.00000000000E+00 0.  1.
         23    2    1    2    0    0  0.15695179601E+02 -0.24115994142E+02  0.48770210588E+02  0.11036376523E+03  0.94729654279E+02 0.  0.
        -24    2    1    2    0    0 -0.48097600113E+02  0.15164693479E+02  0.93410107147E+02  0.13325711478E+03  0.80552240546E+02 0.  0.
         13    1    4    4    0    0 -0.30803868392E+02 -0.14129681386E+02  0.47370190364E-01  0.33889946119E+02  0.00000000000E+00 0. -1.
        -14    1    4    4    0    0 -0.17293731721E+02  0.29294374865E+02  0.93362736957E+02  0.99367168660E+02  0.00000000000E+00 0.  1.
        -13    1    3    3    0    0 -0.95762412908E+01 -0.24507544295E+02 -0.22578014100E+02  0.34671181770E+02  0.00000000000E+00 0.  1.
         13    1    3    3    0    0  0.25271420892E+02  0.39155015338E+00  0.71348224688E+02  0.75692583464E+02  0.00000000000E+00 0. -1.
         -1    1    1    2    0  502  0.32402420512E+02  0.89513006629E+01  0.33205170126E+02  0.47250671548E+02  0.00000000000E+00 0.  1.
<scales pt_clust_5="13000.00000" pt_clust_6="13000.00000" pt_clust_7="13000.00000" pt_clust_8="13000.00000" pt_clust_9="33.61611"></scales>
<clustering>
<clus scale="   33.616">  1  9  2 -1</clus>
<clus scale="   80.552">  5  6 -1 -1</clus>
<clus scale="   88.036">  1  5  2 -1</clus>
<clus scale="   94.730">  7  8 -1 -1</clus>
<clus scale="   33.616">  1  5  2 -1</clus>
</clustering>
</event>
<event>
 9    1  0.9171696E-005  0.9037625E+02  0.7546771E-02  0.1307326E+00
         -2   -1    0    0    0  501 -0.00000000000E+00  0.00000000000E+00  0.76704275106E+02  0.76704275106E+02  0.00000000000E+00 0.  1.
         21   -1    0    0  501  502  0.00000000000E+00 -0.00000000000E+00 -0.16630765735E+03  0.16630765735E+03  0.00000000000E+00 0.  1.
        -24    2    1    2    0    0  0.12851715779E+02  0.19582946311E+02  0.11527607801E+02  0.84186796633E+02  0.80036695341E+02 0.  0.
         23    2    1    2    0    0  0.15912878780E+02 -0.99954655357E+01 -0.64458873080E+02  0.11124188404E+03  0.88694314378E+02 0.  0.
         11    1    3    3    0    0 -0.14532257476E+02 -0.26201621025E+02  0.23460875259E+01  0.30053545188E+02  0.00000000000E+00 0. -1.
        -12    1    3    3    0    0  0.27383973255E+02  0.45784567337E+02  0.91815202753E+01  0.54133251445E+02  0.00000000000E+00 0.  1.
        -11    1    4    4    0    0  0.41467804117E+02  0.24163473286E+02 -0.34896399833E+02  0.59339792221E+02  0.00000000000E+00 0.  1.
         11    1    4    4    0    0 -0.25554925337E+02 -0.34158938822E+02 -0.29562473247E+02  0.51902091816E+02  0.00000000000E+00 0. -1.
         -1    1    1    2    0  502 -0.28764594559E+02 -0.95874807757E+01 -0.36672116961E+02  0.47583251782E+02  0.00000000000E+00 0.  1.
<scales pt_clust_5="13000.00000" pt_clust_6="13000.00000" pt_clust_7="13000.00000" pt_clust_8="13000.00000" pt_clust_9="30.32032"></scales>
<clustering>
<clus scale="   30.320">  2  9  1 -1</clus>
<clus scale="   80.037">  5  6 -1 -1</clus>
<clus scale="   81.897">  1  5  2 -1</clus>
<clus scale="   88.694">  7  8 -1 -1</clus>
<clus scale="   30.320">  2  5  1 -1</clus>
</clustering>
</event>
<event>
 9    1  0.9171696E-005  0.2413730E+03  0.7546771E-02  0.1119465E+00
          1   -1    0    0  502    0 -0.00000000000E+00  0.00000000000E+00  0.68296717389E+03  0.68296717389E+03  0.00000000000E+00 0. -1.
         21   -1    0    0  501  502  0.00000000000E+00 -0.00000000000E+00 -0.16762257023E+03  0.16762257023E+03  0.00000000000E+00 0. -1.
        -24    2    1    2    0    0 -0.13285898674E+03 -0.16801620815E+03  0.47221007659E+03  0.52544766163E+03  0.85040767374E+02 0.  0.
         23    2    1    2    0    0  0.15548842603E+03  0.20065165091E+03  0.66755089697E+02  0.27893499833E+03  0.94396798933E+02 0.  0.
         13    1    3    3    0    0 -0.11416541463E+03 -0.10687693583E+03  0.39726393154E+03  0.42693682509E+03  0.00000000000E+00 0. -1.
        -14    1    3    3    0    0 -0.18693572110E+02 -0.61139272321E+02  0.74946145049E+02  0.98510836540E+02  0.00000000000E+00 0.  1.
        -13    1    4    4    0    0  0.68315746660E+02  0.10229927877E+03  0.80165197750E+02  0.14682861645E+03  0.00000000000E+00 0. -1.
         13    1    4    4    0    0  0.87172679374E+02  0.98352372143E+02 -0.13410108054E+02  0.13210638188E+03  0.00000000000E+00 0.  1.
          2    1    1    2  501    0 -0.22629439291E+02 -0.32635442761E+02 -0.23620562630E+02  0.46207084152E+02  0.00000000000E+00 0. -1.
<scales pt_clust_5="13000.00000" pt_clust_6="13000.00000" pt_clust_7="13000.00000" pt_clust_8="13000.00000" pt_clust_9="39.71352"></scales>
<clustering>
<clus scale="   39.714">  2  9  1 -1</clus>
<clus scale="   85.041">  5  6 -1 -1</clus>
<clus scale="   94.397">  7  8 -1 -1</clus>
<clus scale="  237.870">  1  5  2 -1</clus>
<clus scale="   39.714">  2  5  1 -1</clus>
</clustering>
</event>
<event>
 9    1  0.9171696E-005  0.1005350E+03  0.7546771E-02  0.1284622E+00
          1   -1    0    0  502    0 -0.00000000000E+00  0.00000000000E+00  0.59043427432E+03  0.59043427432E+03  0.00000000000E+00 0. -1.
         21   -1    0    0  501  502  0.00000000000E+00 -0.00000000000E+00 -0.42534488503E+02  0.42534488503E+02  0.00000000000E+00 0. -1.
         23    2    1    2    0    0 -0.36167940411E+02 -0.10858398706E+02  0.37346583904E+03  0.38639296633E+03  0.91633873439E+02 0.  0.
        -24    2    1    2    0    0  0.38159068287E+02  0.31802020242E+02  0.19522261704E+03  0.21699930778E+03  0.80680520519E+02 0.  0.
         13    1    4    4    0    0 -0.19649117693E+02  0.11233940082E+02  0.10806591677E+03  0.11041074044E+03  0.00000000000E+00 0. -1.
        -14    1    4    4    0    0  0.57808185980E+02  0.20568080160E+02  0.87156700263E+02  0.10658856734E+03  0.00000000000E+00 0.  1.
        -13    1    3    3    0    0 -0.23654524932E+02 -0.49973447241E+02  0.16803144972E+03  0.17689389496E+03  0.00000000000E+00 0.  1.
         13    1    3    3    0    0 -0.12513415479E+02  0.39115048535E+02  0.20543438932E+03  0.20949907137E+03  0.00000000000E+00 0. -1.
          2    1    1    2  501    0 -0.19911278761E+01 -0.20943621536E+02 -0.20788670262E+02  0.29576488712E+02  0.00000000000E+00 0. -1.
<scales pt_clust_5="13000.00000" pt_clust_6="13000.00000" pt_clust_7="13000.00000" pt_clust_8="13000.00000" pt_clust_9="21.03806"></scales>
<clustering>
<clus scale="   21.038">  2  9  1 -1</clus>
<clus scale="   80.681">  5  6 -1 -1</clus>
<clus scale="   90.663">  2  5  1 -1</clus>
<clus scale="   91.634">  7  8 -1 -1</clus>
<clus scale="   21.038">  2  5  1 -1</clus>
</clustering>
</event>
<event>
 9    1  0.9171696E-005  0.1000489E+03  0.7546771E-02  0.1285776E+00
          3   -1    0    0  502    0 -0.00000000000E+00  0.00000000000E+00  0.12273687948E+03  0.12273687948E+03  0.00000000000E+00 0. -1.
         21   -1    0    0  501  502  0.00000000000E+00 -0.00000000000E+00 -0.19792028444E+03  0.19792028444E+03  0.00000000000E+00 0. -1.
         23    2    1    2    0    0 -0.22616638328E+02 -0.25072934747E+02  0.51489016186E+02  0.10984865154E+03  0.90969462299E+02 0.  0.
        -24    2    1    2    0    0  0.36661117231E+02  0.44629095112E+02 -0.18800607641E+02  0.10028241164E+03  0.79795398302E+02 0.  0.
         11    1    4    4    0    0  0.53011121053E+02  0.10802924488E+02  0.72212065763E+01  0.54580472306E+02  0.00000000000E+00 0. -1.
        -12    1    4    4    0    0 -0.16350003822E+02  0.33826170624E+02 -0.26021814217E+02  0.45701939337E+02  0.00000000000E+00 0.  1.
        -13    1    3    3    0    0 -0.21890849242E+02  0.13967919191E+02 -0.16981070458E+02  0.31026904469E+02  0.00000000000E+00 0.  1.
         13    1    3    3    0    0 -0.72578908620E+00 -0.39040853938E+02  0.68470086644E+02  0.78821747069E+02  0.00000000000E+00 0. -1.
          4    1    1    2  501    0 -0.14044478903E+02 -0.19556160365E+02 -0.10787181350E+03  0.11052610074E+03  0.00000000000E+00 0. -1.
<scales pt_clust_5="13000.00000" pt_clust_6="13000.00000" pt_clust_7="13000.00000" pt_clust_8="13000.00000" pt_clust_9="24.07677"></scales>
<clustering>
<clus scale="   24.077">  2  9  1 -1</clus>
<clus scale="   79.795">  5  6 -1 -1</clus>
<clus scale="   90.009">  2  5  1 -1</clus>
<clus scale="   90.969">  7  8 -1 -1</clus>
<clus scale="   24.077">  2  5  1 -1</clus>
</clustering>
</event>
<event>
 9    1  0.9446258E-005  0.9344323E+02  0.7546771E-02  0.1301198E+00
          1   -1    0    0  502    0 -0.00000000000E+00  0.00000000000E+00  0.28702401056E+03  0.28702401056E+03  0.00000000000E+00 0. -1.
         21   -1    0    0  501  502  0.00000000000E+00 -0.00000000000E+00 -0.19001148161E+03  0.19001148161E+03  0.00000000000E+00 0.  1.
         23    2    1    2    0    0 -0.16395260711E+02  0.65559236381E+01  0.26288751348E+03  0.27902284041E+03  0.91826553989E+02 0.  0.
        -24    2    1    2    0    0  0.19250640832E+01 -0.24087396872E+02 -0.12006374558E+03  0.14687158452E+03  0.81068185971E+02 0.  0.
         13    1    4    4    0    0  0.40389570335E+02 -0.27279323239E+01 -0.53728968743E+02  0.67272290646E+02  0.00000000000E+00 0. -1.
        -14    1    4    4    0    0 -0.38464506252E+02 -0.21359464548E+02 -0.66334776840E+02  0.79599293875E+02  0.00000000000E+00 0.  1.
        -11    1    3    3    0    0 -0.36866453543E+02 -0.20595163750E+02  0.60390124588E+02  0.73690320359E+02  0.00000000000E+00 0.  1.
         11    1    3    3    0    0  0.20471192832E+02  0.27151087388E+02  0.20249738889E+03  0.20533252005E+03  0.00000000000E+00 0. -1.
          2    1    1    2  501    0  0.14470196628E+02  0.17531473234E+02 -0.45811238945E+02  0.51141067234E+02  0.00000000000E+00 0. -1.
<scales pt_clust_5="13000.00000" pt_clust_6="13000.00000" pt_clust_7="13000.00000" pt_clust_8="13000.00000" pt_clust_9="22.73190"></scales>
<clustering>
<clus scale="   22.732">  2  9  1 -1</clus>
<clus scale="   81.068">  5  6 -1 -1</clus>
<clus scale="   82.895">  2  5  1 -1</clus>
<clus scale="   91.827">  7  8 -1 -1</clus>
<clus scale="   22.732">  2  5  1 -1</clus>
</clustering>
</event>
<event>
 9    1  0.9171696E-005  0.1225676E+03  0.7546771E-02  0.1242744E+00
          1   -1    0    0  502    0 -0.00000000000E+00  0.00000000000E+00  0.10701963852E+04  0.10701963852E+04  0.00000000000E+00 0. -1.
         21   -1    0    0  501  502  0.00000000000E+00 -0.00000000000E+00 -0.27358329513E+02  0.27358329513E+02  0.00000000000E+00 0.  1.
        -24    2    1    2    0    0  0.37740816839E+02  0.84678211030E+02  0.47293537402E+03  0.48884416371E+03  0.81890046522E+02 0.  0.
         23    2    1    2    0    0 -0.74729389645E+02 -0.13978951367E+02  0.23374384125E+03  0.26321191739E+03  0.94151141130E+02 0.  0.
         11    1    3    3    0    0  0.23719897134E+02 -0.11092862820E+02  0.12387673542E+03  0.12661410152E+03  0.00000000000E+00 0. -1.
        -12    1    3    3    0    0  0.14020919705E+02  0.95771073849E+02  0.34905863860E+03  0.36223006219E+03  0.00000000000E+00 0.  1.
        -13    1    4    4    0    0 -0.16699675151E+02 -0.49933799145E+02  0.10699738710E+03  0.11925059452E+03  0.00000000000E+00 0.  1.
         13    1    4    4    0    0 -0.58029714494E+02  0.35954847778E+02  0.12674645415E+03  0.14396132287E+03  0.00000000000E+00 0. -1.
          2    1    1    2  501    0  0.36988572806E+02 -0.70699259663E+02  0.33615884043E+03  0.34549863362E+03  0.00000000000E+00 0. -1.
<scales pt_clust_5="13000.00000" pt_clust_6="13000.00000" pt_clust_7="13000.00000" pt_clust_8="13000.00000" pt_clust_9="79.79064"></scales>
<clustering>
<clus scale="   79.791">  2  9  1 -1</clus>
<clus scale="   81.890">  5  6 -1 -1</clus>
<clus scale="   94.151">  7  8 -1 -1</clus>
<clus scale="  113.421">  1  5  2 -1</clus>
<clus scale="   79.791">  2  5  1 -1</clus>
</clustering>
</event>
<event>
 9    1  0.9171696E-005  0.1290912E+03  0.7546771E-02  0.1232022E+00
         21   -1    0    0  501  502  0.00000000000E+00  0.00000000000E+00  0.34701539063E+02  0.34701539063E+02  0.00000000000E+00 0. -1.
          1   -1    0    0  502    0 -0.00000000000E+00 -0.00000000000E+00 -0.94621203338E+03  0.94621203338E+03  0.00000000000E+00 0. -1.
         23    2    1    2    0    0  0.45351680915E+02  0.47968852629E+02 -0.27598932853E+03  0.29801924450E+03  0.91036118382E+02 0.  0.
        -24    2    1    2    0    0 -0.10265353634E+03 -0.91908529652E+02 -0.29711557113E+03  0.33687042075E+03  0.78861216192E+02 0.  0.
         11    1    4    4    0    0 -0.20524167753E+02 -0.70858934254E+02 -0.14674608670E+03  0.16424568180E+03  0.00000000000E+00 0. -1.
        -12    1    4    4    0    0 -0.82129368587E+02 -0.21049595398E+02 -0.15036948443E+03  0.17262473895E+03  0.00000000000E+00 0.  1.
        -11    1    3    3    0    0  0.14660455133E+01  0.37962450963E+02 -0.31298809295E+02  0.49223088443E+02  0.00000000000E+00 0.  1.
         11    1    3    3    0    0  0.43885635402E+02  0.10006401665E+02 -0.24469051923E+03  0.24879615606E+03  0.00000000000E+00 0. -1.
          2    1    1    2  501    0  0.57301855425E+02  0.43939677024E+02 -0.33840559466E+03  0.34602390719E+03  0.00000000000E+00 0. -1.
<scales pt_clust_5="13000.00000" pt_clust_6="13000.00000" pt_clust_7="13000.00000" pt_clust_8="13000.00000" pt_clust_9="72.20944"></scales>
<clustering>
<clus scale="   72.209">  1  9  2 -1</clus>
<clus scale="   78.861">  5  6 -1 -1</clus>
<clus scale="   91.036">  7  8 -1 -1</clus>
<clus scale="  120.814">  1  5  2 -1</clus>
<clus scale="   72.209">  1  5  2 -1</clus>
</clustering>
</event>
<event>
 9    1  0.9171696E-005  0.1473630E+03  0.7546771E-02  0.1205469E+00
         21   -1    0    0  501  502  0.00000000000E+00  0.00000000000E+00  0.14598054335E+03  0.14598054335E+03  0.00000000000E+00 0. -1.
         -4   -1    0    0    0  501 -0.00000000000E+00 -0.00000000000E+00 -0.32726982683E+03  0.32726982683E+03  0.00000000000E+00 0.  1.
         23    2    1    2    0    0 -0.77885669001E+02 -0.98820887916E+02 -0.21157977506E+03  0.26151762041E+03  0.88282043739E+02 0.  0.
        -24    2    1    2    0    0  0.20486359023E+02  0.90160465166E+02  0.71000741043E+02  0.14083135260E+03  0.79017493389E+02 0.  0.
         11    1    4    4    0    0 -0.28986010992E+02  0.27391754965E+02  0.35452294347E+02  0.53360680728E+02  0.00000000000E+00 0. -1.
        -12    1    4    4    0    0  0.49472370015E+02  0.62768710201E+02  0.35548446697E+02  0.87470671872E+02  0.00000000000E+00 0.  1.
        -11    1    3    3    0    0 -0.49643571082E+02 -0.11058823374E+03 -0.15088281792E+03  0.19354551489E+03  0.00000000000E+00 0.  1.
         11    1    3    3    0    0 -0.28242097918E+02  0.11767345823E+02 -0.60696957143E+02  0.67972105521E+02  0.00000000000E+00 0. -1.
         -3    1    1    2    0  502  0.57399309978E+02  0.86604227493E+01 -0.40710249467E+02  0.70901397164E+02  0.00000000000E+00 0.  1.
<scales pt_clust_5="13000.00000" pt_clust_6="13000.00000" pt_clust_7="13000.00000" pt_clust_8="13000.00000" pt_clust_9="58.04901"></scales>
<clustering>
<clus scale="   58.049">  1  9  2 -1</clus>
<clus scale="   79.017">  5  6 -1 -1</clus>
<clus scale="   88.282">  7  8 -1 -1</clus>
<clus scale="  142.007">  1  5  2 -1</clus>
<clus scale="   58.049">  1  5  2 -1</clus>
</clustering>
</event>
<event>
 9    1  0.9171696E-005  0.1074782E+03  0.7546771E-02  0.1271559E+00
          1   -1    0    0  502    0 -0.00000000000E+00  0.00000000000E+00  0.22290891784E+03  0.22290891784E+03  0.00000000000E+00 0. -1.
         21   -1    0    0  501  502  0.00000000000E+00 -0.00000000000E+00 -0.10025484211E+03  0.10025484211E+03  0.00000000000E+00 0. -1.
         23    2    1    2    0    0 -0.60854350643E+02  0.50220776198E+02  0.78781613039E+02  0.14452788627E+03  0.91958626578E+02 0.  0.
        -24    2    1    2    0    0  0.27110321961E+02  0.76000161005E+01 -0.21559000021E+02  0.85024016492E+02  0.77275889493E+02 0.  0.
         11    1    4    4    0    0  0.98853150102E+01  0.35541053841E+02 -0.33759695191E+02  0.50006029440E+02  0.00000000000E+00 0. -1.
        -12    1    4    4    0    0  0.17225006951E+02 -0.27941037741E+02  0.12200695170E+02  0.35017987051E+02  0.00000000000E+00 0.  1.
        -13    1    3    3    0    0  0.18291719159E+02  0.36129075503E+02  0.21799400732E+02  0.45990335493E+02  0.00000000000E+00 0.  1.
         13    1    3    3    0    0 -0.79146069801E+02  0.14091700695E+02  0.56982212307E+02  0.98537550776E+02  0.00000000000E+00 0. -1.
          2    1    1    2  501    0  0.33744028682E+02 -0.57820792299E+02  0.65431462716E+02  0.93611857192E+02  0.00000000000E+00 0. -1.
<scales pt_clust_5="13000.00000" pt_clust_6="13000.00000" pt_clust_7="13000.00000" pt_clust_8="13000.00000" pt_clust_9="66.94705"></scales>
<clustering>
<clus scale="   66.947">  2  9  1 -1</clus>
<clus scale="   77.276">  5  6 -1 -1</clus>
<clus scale="   91.959">  7  8 -1 -1</clus>
<clus scale="   95.219">  2  5  1 -1</clus>
<clus scale="   66.947">  2  5  1 -1</clus>
</clustering>
</event>
<event>
 9    1  0.9171696E-005  0.9715861E+02  0.7546771E-02  0.1290321E+00
         21   -1    0    0  501  502  0.00000000000E+00  0.00000000000E+00  0.19505903321E+03  0.19505903321E+03  0.00000000000E+00 0.  1.
         -2   -1    0    0    0  501 -0.00000000000E+00 -0.00000000000E+00 -0.11971387168E+03  0.11971387168E+03  0.00000000000E+00 0.  1.
        -24    2    1    2    0    0  0.17854889771E+02  0.37829620922E+02 -0.70850231198E+02  0.11559770073E+03  0.81198496574E+02 0.  0.
         23    2    1    2    0    0 -0.39246917765E+02 -0.69821968898E+01  0.11193572809E+03  0.14835289556E+03  0.88825124649E+02 0.  0.
         13    1    3    3    0    0  0.28265611657E+02 -0.34793022208E+00  0.62363878947E+01  0.28947510976E+02  0.00000000000E+00 0. -1.
        -14    1    3    3    0    0 -0.10410721886E+02  0.38177551144E+02 -0.77086619093E+02  0.86650189756E+02  0.00000000000E+00 0.  1.
        -13    1    4    4    0    0  0.22719823656E+01 -0.41048796491E+02  0.32218272877E+02  0.52232008427E+02  0.00000000000E+00 0. -1.
         13    1    4    4    0    0 -0.41518900131E+02  0.34066599601E+02  0.79717455216E+02  0.96120887130E+02  0.00000000000E+00 0.  1.
         -1    1    1    2    0  502  0.21392027995E+02 -0.30847424032E+02  0.34259664626E+02  0.50822308600E+02  0.00000000000E+00 0.  1.
<scales pt_clust_5="13000.00000" pt_clust_6="13000.00000" pt_clust_7="13000.00000" pt_clust_8="13000.00000" pt_clust_9="37.53908"></scales>
<clustering>
<clus scale="   37.539">  1  9  2 -1</clus>
<clus scale="   81.198">  5  6 -1 -1</clus>
<clus scale="   88.825">  7  8 -1 -1</clus>
<clus scale="   90.239">  2  5  1 -1</clus>
<clus scale="   37.539">  1  5  2 -1</clus>
</clustering>
</event>
<event>
 9    1  0.9171696E-005  0.1578255E+03  0.7546771E-02  0.1209320E+00
         -4   -1    0    0    0  501 -0.00000000000E+00  0.00000000000E+00  0.78258569959E+02  0.78258569959E+02  0.00000000000E+00 0.  1.
         21   -1    0    0  501  502  0.00000000000E+00 -0.00000000000E+00 -0.86012539158E+03  0.86012539158E+03  0.00000000000E+00 0.  1.
         23    2    1    2    0    0 -0.17664599851E+01 -0.58050072394E+02 -0.59565383880E+01  0.10659829906E+03  0.89189605489E+02 0.  0.
        -24    2    1    2    0    0  0.13320110997E+03  0.64161017476E+02 -0.44701989970E+03  0.47755227155E+03  0.79813592057E+02 0.  0.
         11    1    4    4    0    0 -0.31852713418E+01  0.22652910252E+02 -0.37494074776E+02  0.43921588538E+02  0.00000000000E+00 0. -1.
        -12    1    4    4    0    0  0.13638638131E+03  0.41508107224E+02 -0.40952582493E+03  0.43363068302E+03  0.00000000000E+00 0.  1.
        -11    1    3    3    0    0  0.14810791009E+02  0.15953534397E+02 -0.19895020970E+02  0.29490450140E+02  0.00000000000E+00 0. -1.
         11    1    3    3    0    0 -0.16577250994E+02 -0.74003606791E+02  0.13938482582E+02  0.77107848922E+02  0.00000000000E+00 0.  1.
         -3    1    1    2    0  502 -0.13143464998E+03 -0.61109450811E+01 -0.32889038353E+03  0.35423339092E+03  0.00000000000E+00 0.  1.
<scales pt_clust_5="13000.00000" pt_clust_6="13000.00000" pt_clust_7="13000.00000" pt_clust_8="13000.00000" pt_clust_9="136.15687"></scales>
<clustering>
<clus scale="   79.814">  5  6 -1 -1</clus>
<clus scale="   89.190">  7  8 -1 -1</clus>
<clus scale="  106.432">  1  7  2 -1</clus>
<clus scale="  136.157">  2  9  1 -1</clus>
<clus scale="  136.157">  2  5  1 -1</clus>
</clustering>
</event>
<event>
 9    1  0.9171696E-005  0.2084720E+03  0.7546771E-02  0.1163307E+00
         -4   -1    0    0    0  501 -0.00000000000E+00  0.00000000000E+00  0.55300886585E+03  0.55300886585E+03  0.00000000000E+00 0.  1.
         21   -1    0    0  501  502  0.00000000000E+00 -0.00000000000E+00 -0.13810030740E+03  0.13810030740E+03  0.00000000000E+00 0.  1.
        -24    2    1    2    0    0  0.17008523021E+02 -0.99114315664E+02  0.61847794126E+02  0.14262439269E+03  0.80022686329E+02 0.  0.
         23    2    1    2    0    0  0.14436429683E+03 -0.43637026108E+02  0.26057922581E+03  0.31402376562E+03  0.89242098813E+02 0.  0.
         11    1    3    3    0    0  0.47826588086E+02 -0.49823493167E+02  0.23364792611E+02  0.72908686266E+02  0.00000000000E+00 0. -1.
        -12    1    3    3    0    0 -0.30818065064E+02 -0.49290822498E+02  0.38483001516E+02  0.69715706426E+02  0.00000000000E+00 0.  1.
        -13    1    4    4    0    0  0.77223458576E+02  0.50584483994E+01  0.18986084891E+03  0.20502729672E+03  0.00000000000E+00 0.  1.
         13    1    4    4    0    0  0.67140838254E+02 -0.48695474507E+02  0.70718376908E+02  0.10899646889E+03  0.00000000000E+00 0. -1.
         -3    1    1    2    0  502 -0.16137281985E+03  0.14275134177E+03  0.92481538506E+02  0.23446101494E+03  0.00000000000E+00 0.  1.
<scales pt_clust_5="13000.00000" pt_clust_6="13000.00000" pt_clust_7="13000.00000" pt_clust_8="13000.00000" pt_clust_9="188.40496"></scales>
<clustering>
<clus scale="   80.023">  5  6 -1 -1</clus>
<clus scale="   89.242">  7  8 -1 -1</clus>
<clus scale="  128.517">  1  5  2 -1</clus>
<clus scale="  188.405">  2  9  1 -1</clus>
<clus scale="  188.405">  2  5  1 -1</clus>
</clustering>
</event>
<event>
 9    1  0.9171696E-005  0.1673711E+03  0.7546771E-02  0.1204376E+00
          1   -1    0    0  502    0 -0.00000000000E+00  0.00000000000E+00  0.43307760688E+03  0.43307760688E+03  0.00000000000E+00 0. -1.
         21   -1    0    0  501  502  0.00000000000E+00 -0.00000000000E+00 -0.12436075075E+03  0.12436075075E+03  0.00000000000E+00 0. -1.
        -24    2    1    2    0    0  0.47448506589E+02 -0.29012234658E+02  0.37047687682E+02  0.10592452195E+03  0.82185172936E+02 0.  0.
         23    2    1    2    0    0  0.94141291313E+02  0.78121142116E+02  0.26082995642E+03  0.30125790674E+03  0.88082714709E+02 0.  0.
         13    1    3    3    0    0  0.46997635660E+02 -0.20769197941E+02 -0.14762381146E+02  0.53460875767E+02  0.00000000000E+00 0. -1.
        -14    1    3    3    0    0  0.45087092946E+00 -0.82430367173E+01  0.51810068828E+02  0.52463646183E+02  0.00000000000E+00 0.  1.
        -11    1    4    4    0    0  0.11578535134E+02  0.59778083393E+02  0.71614284103E+02  0.94000464986E+02  0.00000000000E+00 0.  1.
         11    1    4    4    0    0  0.82562756179E+02  0.18343058723E+02  0.18921567232E+03  0.20725744175E+03  0.00000000000E+00 0. -1.
          2    1    1    2  501    0 -0.14158979790E+03 -0.49108907457E+02  0.10839212024E+02  0.15025592893E+03  0.00000000000E+00 0. -1.
<scales pt_clust_5="13000.00000" pt_clust_6="13000.00000" pt_clust_7="13000.00000" pt_clust_8="13000.00000" pt_clust_9="142.31834"></scales>
<clustering>
<clus scale="   82.185">  5  6 -1 -1</clus>
<clus scale="   88.083">  7  8 -1 -1</clus>
<clus scale="   99.234">  1  5  2 -1</clus>
<clus scale="  142.318">  2  9  1 -1</clus>
<clus scale="  142.318">  2  5  1 -1</clus>
</clustering>
</event>
<event>
 9    1  0.9171696E-005  0.1180714E+03  0.7546771E-02  0.1248515E+00
         -2   -1    0    0    0  501 -0.00000000000E+00  0.00000000000E+00  0.32458927557E+03  0.32458927557E+03  0.00000000000E+00 0.  1.
         21   -1    0    0  501  502  0.00000000000E+00 -0.00000000000E+00 -0.83202290981E+02  0.83202290981E+02  0.00000000000E+00 0.  1.
         23    2    1    2    0    0 -0.59406459158E+00  0.84009665314E+02  0.22563750142E+03  0.25662861018E+03  0.88814327313E+02 0.  0.
        -24    2    1    2    0    0  0.20516525025E+02 -0.53211005394E+02 -0.17884164823E+02  0.10139666095E+03  0.81909099659E+02 0.  0.
         13    1    4    4    0    0 -0.30649321770E+02 -0.26932918794E+02 -0.16059667537E+02  0.43848329058E+02  0.00000000000E+00 0. -1.
        -14    1    4    4    0    0  0.51165846795E+02 -0.26278086600E+02 -0.18244972859E+01  0.57548331896E+02  0.00000000000E+00 0.  1.
        -11    1    3    3    0    0  0.41264221078E+02  0.26848881084E+02  0.69505349076E+02  0.85173892167E+02  0.00000000000E+00 0.  1.
         11    1    3    3    0    0 -0.41858285669E+02  0.57160784229E+02  0.15613215234E+03  0.17145471801E+03  0.00000000000E+00 0. -1.
         -1    1    1    2    0  502 -0.19922460433E+02 -0.30798659920E+02  0.33633647995E+02  0.49766295422E+02  0.00000000000E+00 0.  1.
<scales pt_clust_5="13000.00000" pt_clust_6="13000.00000" pt_clust_7="13000.00000" pt_clust_8="13000.00000" pt_clust_9="36.68056"></scales>
<clustering>
<clus scale="   36.681">  2  9  1 -1</clus>
<clus scale="   81.909">  5  6 -1 -1</clus>
<clus scale="   88.814">  7  8 -1 -1</clus>
<clus scale="  112.969">  2  5  1 -1</clus>
<clus scale="   36.681">  2  5  1 -1</clus>
</clustering>
</event>
<event>
 9    1  0.9171696E-005  0.1114095E+03  0.7546771E-02  0.1262559E+00
         -2   -1    0    0    0  501 -0.00000000000E+00  0.00000000000E+00  0.11052546848E+03  0.11052546848E+03  0.00000000000E+00 0.  1.
         21   -1    0    0  501  502  0.00000000000E+00 -0.00000000000E+00 -0.20754976496E+03  0.20754976496E+03  0.00000000000E+00 0. -1.
        -24    2    1    2    0    0 -0.39664587876E+02  0.62646890485E+02  0.42157223351E+02  0.11591472600E+03  0.78492546170E+02 0.  0.
         23    2    1    2    0    0  0.26530971475E+02 -0.33620896304E+02 -0.59934993677E+02  0.11674966430E+03  0.90576064895E+02 0.  0.
         13    1    3    3    0    0  0.22371149378E+02  0.54647541790E+01  0.42384066451E+01  0.23415720225E+02  0.00000000000E+00 0. -1.
        -14    1    3    3    0    0 -0.62035737254E+02  0.57182136306E+02  0.37918816705E+02  0.92499005776E+02  0.00000000000E+00 0.  1.
        -11    1    4    4    0    0  0.48780879658E+02  0.23581293785E+01 -0.55938870344E+02  0.74258280412E+02  0.00000000000E+00 0. -1.
         11    1    4    4    0    0 -0.22249908183E+02 -0.35979025682E+02 -0.39961233327E+01  0.42491383890E+02  0.00000000000E+00 0.  1.
         -1    1    1    2    0  502  0.13133616401E+02 -0.29025994181E+02 -0.79246526159E+02  0.85410843142E+02  0.00000000000E+00 0.  1.
<scales pt_clust_5="13000.00000" pt_clust_6="13000.00000" pt_clust_7="13000.00000" pt_clust_8="13000.00000" pt_clust_9="31.85907"></scales>
<clustering>
<clus scale="   31.859">  2  9  1 -1</clus>
<clus scale="   78.493">  5  6 -1 -1</clus>
<clus scale="   90.576">  7  8 -1 -1</clus>
<clus scale="  101.829">  1  5  2 -1</clus>
<clus scale="   31.859">  2  5  1 -1</clus>
</clustering>
</event>
<event>
 9    1  0.9171696E-005  0.9559382E+02  0.7546771E-02  0.1295692E+00
         21   -1    0    0  501  502  0.00000000000E+00  0.00000000000E+00  0.91083724702E+02  0.91083724702E+02  0.00000000000E+00 0.  1.
          1   -1    0    0  502    0 -0.00000000000E+00 -0.00000000000E+00 -0.22016968022E+03  0.22016968022E+03  0.00000000000E+00 0. -1.
         23    2    1    2    0    0  0.19552203700E+02 -0.24641482450E+02 -0.13517644933E+03  0.16613905575E+03  0.91323721257E+02 0.  0.
        -24    2    1    2    0    0 -0.14578934789E+02  0.48348394335E+01  0.50229398485E+02  0.96480210785E+02  0.80929089882E+02 0.  0.
         13    1    4    4    0    0 -0.33530352593E+02  0.32620739519E+02  0.39354070194E+02  0.61132152200E+02  0.00000000000E+00 0. -1.
        -14    1    4    4    0    0  0.18951417804E+02 -0.27785900086E+02  0.10875328291E+02  0.35348058586E+02  0.00000000000E+00 0.  1.
        -13    1    3    3    0    0 -0.11419462643E+02  0.28849457211E+02 -0.25153068397E+02  0.39942110087E+02  0.00000000000E+00 0.  1.
         13    1    3    3    0    0  0.30971666342E+02 -0.53490939661E+02 -0.11002338094E+03  0.12619694566E+03  0.00000000000E+00 0. -1.
          2    1    1    2  501    0 -0.49732689106E+01  0.19806643016E+02 -0.44138904666E+02  0.48634138384E+02  0.00000000000E+00 0. -1.
<scales pt_clust_5="13000.00000" pt_clust_6="13000.00000" pt_clust_7="13000.00000" pt_clust_8="13000.00000" pt_clust_9="20.42148"></scales>
<clustering>
<clus scale="   20.421">  1  9  2 -1</clus>
<clus scale="   80.929">  5  6 -1 -1</clus>
<clus scale="   85.719">  1  5  2 -1</clus>
<clus scale="   91.324">  7  8 -1 -1</clus>
<clus scale="   20.421">  1  5  2 -1</clus>
</clustering>
</event>
<event>
 9    1  0.9171696E-005  0.1148998E+03  0.7546771E-02  0.1255493E+00
         -2   -1    0    0    0  501 -0.00000000000E+00  0.00000000000E+00  0.13577852232E+03  0.13577852232E+03  0.00000000000E+00 0.  1.
         21   -1    0    0  501  502  0.00000000000E+00 -0.00000000000E+00 -0.13294938992E+03  0.13294938992E+03  0.00000000000E+00 0.  1.
        -24    2    1    2    0    0 -0.63412465760E+02  0.23167457498E+02  0.23881059498E+02  0.10791965487E+03  0.80737073295E+02 0.  0.
         23    2    1    2    0    0  0.51919666606E+02 -0.59091835393E+02 -0.76154330114E+01  0.12076846800E+03  0.91321034010E+02 0.  0.
         13    1    3    3    0    0  0.68243798042E+01  0.32694224948E+02  0.91341828752E+00  0.33411357913E+02  0.00000000000E+00 0. -1.
        -14    1    3    3    0    0 -0.70236845564E+02 -0.95267674501E+01  0.22967641210E+02  0.74508296958E+02  0.00000000000E+00 0.  1.
        -11    1    4    4    0    0  0.28332694473E+01 -0.44345065848E+02 -0.40293198999E+02  0.59983782528E+02  0.00000000000E+00 0.  1.
         11    1    4    4    0    0  0.49086397159E+02 -0.14746769545E+02  0.32677765988E+02  0.60784685472E+02  0.00000000000E+00 0. -1.
         -1    1    1    2    0  502  0.11492799154E+02  0.35924377895E+02 -0.13436494082E+02  0.40039789369E+02  0.00000000000E+00 0.  1.
<scales pt_clust_5="13000.00000" pt_clust_6="13000.00000" pt_clust_7="13000.00000" pt_clust_8="13000.00000" pt_clust_9="37.71797"></scales>
<clustering>
<clus scale="   37.718">  2  9  1 -1</clus>
<clus scale="   80.737">  5  6 -1 -1</clus>
<clus scale="   91.321">  7  8 -1 -1</clus>
<clus scale="  106.681">  1  5  2 -1</clus>
<clus scale="   37.718">  2  5  1 -1</clus>
</clustering>
</event>
<event>
 9    1  0.9171696E-005  0.9252013E+02  0.7546771E-02  0.1304589E+00
         21   -1    0    0  501  502  0.00000000000E+00  0.00000000000E+00  0.41042873877E+02  0.41042873877E+02  0.00000000000E+00 0. -1.
         -2   -1    0    0    0  501 -0.00000000000E+00 -0.00000000000E+00 -0.36441154965E+03  0.36441154965E+03  0.00000000000E+00 0.  1.
         23    2    1    2    0    0  0.77414800787E+01 -0.11863363271E+02 -0.26892055787E+03  0.28453249982E+03  0.91868422805E+02 0.  0.
        -24    2    1    2    0    0 -0.97863506328E+01 -0.99320825255E+01 -0.25527744314E+02  0.84650571902E+02  0.79496129916E+02 0.  0.
         11    1    4    4    0    0 -0.26363014392E+02 -0.35344201233E+02 -0.30893606944E+02  0.53838982519E+02  0.00000000000E+00 0. -1.
        -12    1    4    4    0    0  0.16576663759E+02  0.25412118707E+02  0.53658626293E+01  0.30811589384E+02  0.00000000000E+00 0.  1.
        -13    1    3    3    0    0  0.45036847648E+02 -0.25891574743E+02 -0.12954497512E+03  0.13957289088E+03  0.00000000000E+00 0.  1.
         13    1    3    3    0    0 -0.37295367569E+02  0.14028211473E+02 -0.13937558275E+03  0.14495960894E+03  0.00000000000E+00 0. -1.
         -1    1    1    2    0  502  0.20448705541E+01  0.21795445796E+02 -0.28920373593E+02  0.36271351806E+02  0.00000000000E+00 0.  1.
<scales pt_clust_5="13000.00000" pt_clust_6="13000.00000" pt_clust_7="13000.00000" pt_clust_8="13000.00000" pt_clust_9="21.89116"></scales>
<clustering>
<clus scale="   21.891">  1  9  2 -1</clus>
<clus scale="   79.496">  5  6 -1 -1</clus>
<clus scale="   80.248">  1  5  2 -1</clus>
<clus scale="   91.868">  7  8 -1 -1</clus>
<clus scale="   21.891">  1  5  2 -1</clus>
</clustering>
</event>
<event>
 9    1  0.9171696E-005  0.1264151E+03  0.7546771E-02  0.1235205E+00
          1   -1    0    0  502    0 -0.00000000000E+00  0.00000000000E+00  0.12350109406E+03  0.12350109406E+03  0.00000000000E+00 0. -1.
         21   -1    0    0  501  502  0.00000000000E+00 -0.00000000000E+00 -0.21185513878E+03  0.21185513878E+03  0.00000000000E+00 0. -1.
        -24    2    1    2    0    0  0.52664414113E+02  0.85823995170E+02 -0.16828019341E+02  0.12984919529E+03  0.80239221216E+02 0.  0.
         23    2    1    2    0    0  0.10588634798E+02 -0.88537211897E+02 -0.28826155566E+02  0.12914219862E+03  0.88858331874E+02 0.  0.
         13    1    3    3    0    0  0.26444991307E+01  0.55532167992E+02 -0.38347879569E+02  0.67537951738E+02  0.00000000000E+00 0. -1.
        -14    1    3    3    0    0  0.50019914982E+02  0.30291827178E+02  0.21519860228E+02  0.62311243551E+02  0.00000000000E+00 0.  1.
        -13    1    4    4    0    0 -0.20297940221E+02  0.83922307319E+01 -0.14711899666E+02  0.26436261189E+02  0.00000000000E+00 0.  1.
         13    1    4    4    0    0  0.30886575020E+02 -0.96929442629E+02 -0.14114255900E+02  0.10270593744E+03  0.00000000000E+00 0. -1.
          2    1    1    2  501    0 -0.63253048911E+02  0.27132167274E+01 -0.42699869811E+02  0.76364838921E+02  0.00000000000E+00 0. -1.
<scales pt_clust_5="13000.00000" pt_clust_6="13000.00000" pt_clust_7="13000.00000" pt_clust_8="13000.00000" pt_clust_9="63.31121"></scales>
<clustering>
<clus scale="   63.311">  2  9  1 -1</clus>
<clus scale="   80.239">  5  6 -1 -1</clus>
<clus scale="   88.858">  7  8 -1 -1</clus>
<clus scale="  120.513">  1  5  2 -1</clus>
<clus scale="   63.311">  2  5  1 -1</clus>
</clustering>
</event>
<event>
 9    1  0.9171696E-005  0.2049475E+03  0.7546771E-02  0.1180430E+00
          1   -1    0    0  502    0 -0.00000000000E+00  0.00000000000E+00  0.89126919445E+03  0.89126919445E+03  0.00000000000E+00 0. -1.
         21   -1    0    0  501  502  0.00000000000E+00 -0.00000000000E+00 -0.15711645025E+03  0.15711645025E+03  0.00000000000E+00 0. -1.
        -24    2    1    2    0    0 -0.25015059642E+02 -0.34938134215E+02  0.63136982691E+03  0.63797158066E+03  0.80829777750E+02 0.  0.
         23    2    1    2    0    0  0.19531100940E+03  0.27065901273E+02  0.10586378703E+02  0.21660259822E+03  0.89026180064E+02 0.  0.
         13    1    3    3    0    0 -0.43841806954E+02 -0.21932432243E+02  0.19729318595E+03  0.20329224492E+03  0.00000000000E+00 0. -1.
        -14    1    3    3    0    0  0.18826747313E+02 -0.13005701973E+02  0.43407664096E+03  0.43467933575E+03  0.00000000000E+00 0.  1.
        -11    1    4    4    0    0  0.66657841004E+02  0.19686793269E+02 -0.37600853855E+02  0.79023172596E+02  0.00000000000E+00 0.  1.
         11    1    4    4    0    0  0.12865316839E+03  0.73791080038E+01  0.48187232558E+02  0.13757942562E+03  0.00000000000E+00 0. -1.
          2    1    1    2  501    0 -0.17029594975E+03  0.78722329426E+01  0.92196538589E+02  0.19381146582E+03  0.00000000000E+00 0. -1.
<scales pt_clust_5="13000.00000" pt_clust_6="13000.00000" pt_clust_7="13000.00000" pt_clust_8="13000.00000" pt_clust_9="184.60186"></scales>
<clustering>
<clus scale="   80.830">  5  6 -1 -1</clus>
<clus scale="   89.026">  7  8 -1 -1</clus>
<clus scale="   91.542">  1  5  2 -1</clus>
<clus scale="  184.602">  2  9  1 -1</clus>
<clus scale="  184.602">  2  5  1 -1</clus>
</clustering>
</event>
<event>
 9    1  0.9171696E-005  0.1257075E+03  0.7546771E-02  0.1236871E+00
         -2   -1    0    0    0  501 -0.00000000000E+00  0.00000000000E+00  0.79573461347E+03  0.79573461347E+03  0.00000000000E+00 0.  1.
         21   -1    0    0  501  502  0.00000000000E+00 -0.00000000000E+00 -0.48086956604E+02  0.48086956604E+02  0.00000000000E+00 0. -1.
        -24    2    1    2    0    0 -0.63860767458E+02 -0.52879797461E+02  0.56010817560E+03  0.57194663778E+03  0.80791815814E+02 0.  0.
         23    2    1    2    0    0  0.89974707755E+02  0.46973786165E+02  0.20021601689E+03  0.24225207958E+03  0.91091338882E+02 0.  0.
         13    1    3    3    0    0 -0.16617988840E+02 -0.41115471102E+02  0.10154520198E+03  0.11080644188E+03  0.00000000000E+00 0. -1.
        -14    1    3    3    0    0 -0.47242778618E+02 -0.11764326360E+02  0.45856297362E+03  0.46114019590E+03  0.00000000000E+00 0.  1.
        -13    1    4    4    0    0  0.50042678907E+02  0.72816864995E+02  0.13943937498E+03  0.16507545194E+03  0.00000000000E+00 0. -1.
         13    1    4    4    0    0  0.39932028848E+02 -0.25843078830E+02  0.60776641911E+02  0.77176627636E+02  0.00000000000E+00 0.  1.
         -1    1    1    2    0  502 -0.26113940297E+02  0.59060112967E+01 -0.12676535622E+02  0.29622852710E+02  0.00000000000E+00 0.  1.
<scales pt_clust_5="13000.00000" pt_clust_6="13000.00000" pt_clust_7="13000.00000" pt_clust_8="13000.00000" pt_clust_9="26.77347"></scales>
<clustering>
<clus scale="   26.773">  2  9  1 -1</clus>
<clus scale="   80.792">  5  6 -1 -1</clus>
<clus scale="   91.091">  7  8 -1 -1</clus>
<clus scale="  118.457">  1  5  2 -1</clus>
<clus scale="   26.773">  2  5  1 -1</clus>
</clustering>
</event>
<event>
 9    1  0.9171696E-005  0.1370569E+03  0.7546771E-02  0.1227968E+00
         21   -1    0    0  501  502  0.00000000000E+00  0.00000000000E+00  0.51028094776E+03  0.51028094776E+03  0.00000000000E+00 0. -1.
          1   -1    0    0  502    0 -0.00000000000E+00 -0.00000000000E+00 -0.40549727951E+03  0.40549727951E+03  0.00000000000E+00 0. -1.
         23    2    1    2    0    0  0.16320198427E+02 -0.61285965817E+02  0.30871672926E+02  0.11402285443E+03  0.89587011677E+02 0.  0.
        -24    2    1    2    0    0  0.71487133767E+02  0.13027162030E+03 -0.33663013844E+03  0.37629798167E+03  0.78735097372E+02 0.  0.
         13    1    4    4    0    0  0.85749613085E+02  0.12747109099E+03 -0.30682769002E+03  0.34314006840E+03  0.00000000000E+00 0. -1.
        -14    1    4    4    0    0 -0.14262479318E+02  0.28005293123E+01 -0.29802448416E+02  0.33157913269E+02  0.00000000000E+00 0.  1.
        -13    1    3    3    0    0  0.45627897502E+02 -0.59418805518E+02  0.37706875824E+02  0.83870781349E+02  0.00000000000E+00 0. -1.
         13    1    3    3    0    0 -0.29307699075E+02 -0.18671602991E+01 -0.68352028980E+01  0.30152073085E+02  0.00000000000E+00 0.  1.
          2    1    1    2  501    0 -0.87807332194E+02 -0.68985654482E+02  0.41054213375E+03  0.42545739117E+03  0.00000000000E+00 0. -1.
<scales pt_clust_5="13000.00000" pt_clust_6="13000.00000" pt_clust_7="13000.00000" pt_clust_8="13000.00000" pt_clust_9="112.18459"></scales>
<clustering>
<clus scale="   78.735">  5  6 -1 -1</clus>
<clus scale="   89.587">  7  8 -1 -1</clus>
<clus scale="  109.764">  2  7  1 -1</clus>
<clus scale="  112.185">  1  9  2 -1</clus>
<clus scale="  112.185">  1  5  2 -1</clus>
</clustering>
</event>
<event>
 9    1  0.9171696E-005  0.1344401E+03  0.7546771E-02  0.1228818E+00
         21   -1    0    0  501  502  0.00000000000E+00  0.00000000000E+00  0.50390432638E+03  0.50390432638E+03  0.00000000000E+00 0. -1.
         -4   -1    0    0    0  501 -0.00000000000E+00 -0.00000000000E+00 -0.40103869382E+02  0.40103869382E+02  0.00000000000E+00 0.  1.
        -24    2    1    2    0    0 -0.73666655266E+02 -0.13258112011E+02  0.15714962020E+03  0.19134191938E+03  0.79455480315E+02 0.  0.
         23    2    1    2    0    0  0.86119792726E+02  0.41556682926E+02  0.25806356621E+03  0.29507623721E+03  0.10644061708E+03 0.  0.
         11    1    3    3    0    0 -0.64372979088E+02  0.25546400964E+02  0.99423924659E+02  0.12116771779E+03  0.00000000000E+00 0. -1.
        -12    1    3    3    0    0 -0.92936761779E+01 -0.38804512975E+02  0.57725695540E+02  0.70174201597E+02  0.00000000000E+00 0.  1.
        -13    1    4    4    0    0  0.86884758003E+02 -0.12333000335E+02  0.13901912420E+03  0.16440006376E+03  0.00000000000E+00 0. -1.
         13    1    4    4    0    0 -0.76496527789E+00  0.53889683261E+02  0.11904444201E+03  0.13067617345E+03  0.00000000000E+00 0.  1.
         -3    1    1    2    0  502 -0.12453137460E+02 -0.28298570915E+02  0.48587270585E+02  0.57590039168E+02  0.00000000000E+00 0.  1.
<scales pt_clust_5="13000.00000" pt_clust_6="13000.00000" pt_clust_7="13000.00000" pt_clust_8="13000.00000" pt_clust_9="30.91748"></scales>
<clustering>
<clus scale="   30.917">  1  9  2 -1</clus>
<clus scale="   79.455">  5  6 -1 -1</clus>
<clus scale="  106.441">  7  8 -1 -1</clus>
<clus scale="  114.270">  2  5  1 -1</clus>
<clus scale="   30.917">  1  5  2 -1</clus>
</clustering>
</event>
<event>
 9    1  0.9171696E-005  0.1309252E+03  0.7546771E-02  0.1232164E+00
          3   -1    0    0  502    0 -0.00000000000E+00  0.00000000000E+00  0.46877949959E+02  0.46877949959E+02  0.00000000000E+00 0. -1.
         21   -1    0    0  501  502  0.00000000000E+00 -0.00000000000E+00 -0.52823465825E+03  0.52823465825E+03  0.00000000000E+00 0. -1.
        -24    2    1    2    0    0  0.91782453692E+02 -0.12072927787E+02 -0.10105768260E+03  0.15851089255E+03  0.79644669962E+02 0.  0.
         23    2    1    2    0    0 -0.62171574671E+02  0.33542537072E+02 -0.21895209579E+03  0.25116115211E+03  0.10075464052E+03 0.  0.
         13    1    3    3    0    0  0.10360355741E+03 -0.21814173253E+02 -0.81178229396E+02  0.13341461761E+03  0.00000000000E+00 0. -1.
        -14    1    3    3    0    0 -0.11821103720E+02  0.97412454662E+01 -0.19879453199E+02  0.25096274940E+02  0.00000000000E+00 0.  1.
        -13    1    4    4    0    0  0.46766567216E+01 -0.27660714460E+02 -0.84319242411E+02  0.88863495787E+02  0.00000000000E+00 0.  1.
         13    1    4    4    0    0 -0.66848231393E+02  0.61203251533E+02 -0.13463285338E+03  0.16229765632E+03  0.00000000000E+00 0. -1.
          4    1    1    2  501    0 -0.29610879020E+02 -0.21469609285E+02 -0.16134692990E+03  0.16544056355E+03  0.00000000000E+00 0. -1.
<scales pt_clust_5="13000.00000" pt_clust_6="13000.00000" pt_clust_7="13000.00000" pt_clust_8="13000.00000" pt_clust_9="36.57524"></scales>
<clustering>
<clus scale="   36.575">  2  9  1 -1</clus>
<clus scale="   79.645">  5  6 -1 -1</clus>
<clus scale="  100.755">  7  8 -1 -1</clus>
<clus scale="  115.469">  1  5  2 -1</clus>
<clus scale="   36.575">  2  5  1 -1</clus>
</clustering>
</event>
<event>
 9    1  0.9171696E-005  0.1192128E+03  0.7546771E-02  0.1246969E+00
         21   -1    0    0  501  502  0.00000000000E+00  0.00000000000E+00  0.22084068474E+03  0.22084068474E+03  0.00000000000E+00 0.  1.
         -4   -1    0    0    0  501 -0.00000000000E+00 -0.00000000000E+00 -0.15773411990E+03  0.15773411990E+03  0.00000000000E+00 0.  1.
         23    2    1    2    0    0  0.25120293711E+02 -0.70704195320E+02 -0.91628633189E+02  0.14929943487E+03  0.90908758881E+02 0.  0.
        -24    2    1    2    0    0 -0.66616987002E+02  0.68246696953E+02  0.12796150939E+03  0.17982999328E+03  0.82880902471E+02 0.  0.
         11    1    4    4    0    0 -0.51866727286E+02  0.55791900754E+02  0.33157166715E+02  0.83080029451E+02  0.00000000000E+00 0. -1.
        -12    1    4    4    0    0 -0.14750259716E+02  0.12454796199E+02  0.94804342679E+02  0.96749963829E+02  0.00000000000E+00 0.  1.
        -11    1    3    3    0    0  0.20497315177E+02 -0.98099285057E+00  0.12403666835E+02  0.23978182320E+02  0.00000000000E+00 0. -1.
         11    1    3    3    0    0  0.46229785346E+01 -0.69723202469E+02 -0.10403230002E+03  0.12532125255E+03  0.00000000000E+00 0.  1.
         -3    1    1    2    0  502  0.41496693291E+02  0.24574983666E+01  0.26773688635E+02  0.49445376482E+02  0.00000000000E+00 0.  1.
<scales pt_clust_5="13000.00000" pt_clust_6="13000.00000" pt_clust_7="13000.00000" pt_clust_8="13000.00000" pt_clust_9="41.56940"></scales>
<clustering>
<clus scale="   41.569">  1  9  2 -1</clus>
<clus scale="   82.881">  5  6 -1 -1</clus>
<clus scale="   90.909">  7  8 -1 -1</clus>
<clus scale="  113.210">  1  5  2 -1</clus>
<clus scale="   41.569">  1  5  2 -1</clus>
</clustering>
</event>
<event>
 9    1  0.9171696E-005  0.3289176E+03  0.7546771E-02  0.1071968E+00
         -2   -1    0    0    0  501 -0.00000000000E+00  0.00000000000E+00  0.62367725498E+03  0.62367725498E+03  0.00000000000E+00 0.  1.
         21   -1    0    0  501  502  0.00000000000E+00 -0.00000000000E+00 -0.26193454133E+03  0.26193454133E+03  0.00000000000E+00 0. -1.
        -24    2    1    2    0    0  0.16486562176E+03 -0.27424369268E+03  0.34886409354E+03  0.47993226805E+03  0.78984491764E+02 0.  0.
         23    2    1    2    0    0 -0.18387562505E+03  0.24883191827E+03  0.79239875187E+02  0.33212033659E+03  0.91090016568E+02 0.  0.
         11    1    3    3    0    0  0.13920961217E+03 -0.25477018869E+03  0.27739742656E+03  0.40154264709E+03  0.00000000000E+00 0. -1.
        -12    1    3    3    0    0  0.25656009585E+02 -0.19473503992E+02  0.71466666978E+02  0.78389620962E+02  0.00000000000E+00 0.  1.
        -13    1    4    4    0    0 -0.11712631208E+03  0.14704670177E+03  0.20795167425E+01  0.18800433472E+03  0.00000000000E+00 0. -1.
         13    1    4    4    0    0 -0.66749312973E+02  0.10178521650E+03  0.77160358444E+02  0.14411600187E+03  0.00000000000E+00 0.  1.
         -1    1    1    2    0  502  0.19010003300E+02  0.25411774409E+02 -0.66361255079E+02  0.73559191674E+02  0.00000000000E+00 0.  1.
<scales pt_clust_5="13000.00000" pt_clust_6="13000.00000" pt_clust_7="13000.00000" pt_clust_8="13000.00000" pt_clust_9="31.73545"></scales>
<clustering>
<clus scale="   31.735">  2  9  1 -1</clus>
<clus scale="   78.984">  5  6 -1 -1</clus>
<clus scale="   91.090">  7  8 -1 -1</clus>
<clus scale="  325.773">  1  5  2 -1</clus>
<clus scale="   31.735">  2  5  1 -1</clus>
</clustering>
</event>
<event>
 9    1  0.9171696E-005  0.1053175E+03  0.7546771E-02  0.1273756E+00
         21   -1    0    0  501  502  0.00000000000E+00  0.00000000000E+00  0.57704929669E+03  0.57704929669E+03  0.00000000000E+00 0. -1.
         -4   -1    0    0    0  501 -0.00000000000E+00 -0.00000000000E+00 -0.34682893488E+02  0.34682893488E+02  0.00000000000E+00 0.  1.
         23    2    1    2    0    0 -0.21876480718E+02  0.41718209091E+02  0.21320816429E+03  0.23609909567E+03  0.89811314879E+02 0.  0.
        -24    2    1    2    0    0  0.73976377506E+02 -0.19767220765E+02  0.27864491861E+03  0.29981857965E+03  0.79905835796E+02 0.  0.
         13    1    4    4    0    0  0.80431660485E+02 -0.36104923430E+02  0.25833898884E+03  0.27296858914E+03  0.00000000000E+00 0. -1.
        -14    1    4    4    0    0 -0.64552829786E+01  0.16337702665E+02  0.20305929769E+02  0.26849990512E+02  0.00000000000E+00 0.  1.
        -11    1    3    3    0    0  0.22045474170E+02 -0.14857023182E+02  0.34367723954E+02  0.43449678008E+02  0.00000000000E+00 0.  1.
         11    1    3    3    0    0 -0.43921954888E+02  0.56575232273E+02  0.17884044034E+03  0.19264941767E+03  0.00000000000E+00 0. -1.
         -3    1    1    2    0  502 -0.52099896788E+02 -0.21950988326E+02  0.50513320310E+02  0.75814514854E+02  0.00000000000E+00 0.  1.
<scales pt_clust_5="13000.00000" pt_clust_6="13000.00000" pt_clust_7="13000.00000" pt_clust_8="13000.00000" pt_clust_9="56.53537"></scales>
<clustering>
<clus scale="   56.535">  1  9  2 -1</clus>
<clus scale="   79.906">  5  6 -1 -1</clus>
<clus scale="   89.811">  7  8 -1 -1</clus>
<clus scale="   97.008">  1  5  2 -1</clus>
<clus scale="   56.535">  1  5  2 -1</clus>
</clustering>
</event>
<event>
 9    1  0.9171696E-005  0.1464593E+03  0.7546771E-02  0.1207098E+00
         21   -1    0    0  501  502  0.00000000000E+00  0.00000000000E+00  0.17520826035E+03  0.17520826035E+03  0.00000000000E+00 0. -1.
          1   -1    0    0  502    0 -0.00000000000E+00 -0.00000000000E+00 -0.61439642708E+03  0.61439642708E+03  0.00000000000E+00 0. -1.
         23    2    1    2    0    0 -0.57259553132E+02 -0.12040407516E+03 -0.49521891759E+03  0.52042603102E+03  0.88462871788E+02 0.  0.
        -24    2    1    2    0    0  0.16043046903E+02  0.77025423943E+02 -0.69565870269E+02  0.13005633970E+03  0.76713401061E+02 0.  0.
         13    1    4    4    0    0 -0.25553189416E+02  0.57511199947E+02 -0.48795315762E+02  0.79633450566E+02  0.00000000000E+00 0. -1.
        -14    1    4    4    0    0  0.41596236319E+02  0.19514223996E+02 -0.20770554507E+02  0.50422889134E+02  0.00000000000E+00 0.  1.
        -13    1    3    3    0    0 -0.48564062136E+02 -0.10111702061E+03 -0.48329150417E+03  0.49613888982E+03  0.00000000000E+00 0. -1.
         13    1    3    3    0    0 -0.86954909958E+01 -0.19287054547E+02 -0.11927413417E+02  0.24287141198E+02  0.00000000000E+00 0.  1.
          2    1    1    2  501    0  0.41216506229E+02  0.43378651213E+02  0.12559662113E+03  0.13912231671E+03  0.00000000000E+00 0. -1.
<scales pt_clust_5="13000.00000" pt_clust_6="13000.00000" pt_clust_7="13000.00000" pt_clust_8="13000.00000" pt_clust_9="59.83734"></scales>
<clustering>
<clus scale="   59.837">  1  9  2 -1</clus>
<clus scale="   76.713">  5  6 -1 -1</clus>
<clus scale="   88.463">  7  8 -1 -1</clus>
<clus scale="  139.677">  1  5  2 -1</clus>
<clus scale="   59.837">  1  5  2 -1</clus>
</clustering>
</event>
<event>
 9    1  0.9171696E-005  0.2402609E+03  0.7546771E-02  0.1120420E+00
         21   -1    0    0  501  502  0.00000000000E+00  0.00000000000E+00  0.28073931961E+03  0.28073931961E+03  0.00000000000E+00 0.  1.
         -4   -1    0    0    0  501 -0.00000000000E+00 -0.00000000000E+00 -0.48359657405E+03  0.48359657405E+03  0.00000000000E+00 0.  1.
         23    2    1    2    0    0 -0.15689062237E+02 -0.23287018546E+03 -0.26171534612E+03  0.36228254433E+03  0.90989282787E+02 0.  0.
        -24    2    1    2    0    0 -0.55649885438E+02  0.17759365107E+03  0.16657451953E+03  0.26152730357E+03  0.77543828293E+02 0.  0.
         13    1    4    4    0    0  0.41464944934E+01  0.10889661983E+03  0.10682242414E+03  0.15259979530E+03  0.00000000000E+00 0. -1.
        -14    1    4    4    0    0 -0.59796379932E+02  0.68697031240E+02  0.59752095390E+02  0.10892750827E+03  0.00000000000E+00 0.  1.
        -11    1    3    3    0    0  0.17166200609E+02 -0.18670554957E+03 -0.16290299982E+03  0.24837678642E+03  0.00000000000E+00 0.  1.
         11    1    3    3    0    0 -0.32855262846E+02 -0.46164635894E+02 -0.98812346297E+02  0.11390575791E+03  0.00000000000E+00 0. -1.
         -3    1    1    2    0  502  0.71338947676E+02  0.55276534398E+02 -0.10771642785E+03  0.14052604577E+03  0.00000000000E+00 0.  1.
<scales pt_clust_5="13000.00000" pt_clust_6="13000.00000" pt_clust_7="13000.00000" pt_clust_8="13000.00000" pt_clust_9="90.24826"></scales>
<clustering>
<clus scale="   77.544">  5  6 -1 -1</clus>
<clus scale="   90.248">  1  9  2 -1</clus>
<clus scale="   90.989">  7  8 -1 -1</clus>
<clus scale="  235.498">  1  5  2 -1</clus>
<clus scale="   90.248">  1  5  2 -1</clus>
</clustering>
</event>
<event>
 9    1  0.9171696E-005  0.1216957E+03  0.7546771E-02  0.1256298E+00
         21   -1    0    0  501  502  0.00000000000E+00  0.00000000000E+00  0.21972739819E+03  0.21972739819E+03  0.00000000000E+00 0. -1.
          1   -1    0    0  502    0 -0.00000000000E+00 -0.00000000000E+00 -0.10662234583E+03  0.10662234583E+03  0.00000000000E+00 0. -1.
        -24    2    1    2    0    0  0.35869489706E+02 -0.29366044210E+01 -0.95858019767E+01  0.88887197404E+02  0.80708130480E+02 0.  0.
         23    2    1    2    0    0  0.56518008398E+02 -0.11063621612E+01  0.49941107807E+02  0.11980065388E+03  0.93072945101E+02 0.  0.
         11    1    3    3    0    0  0.73179603975E+01  0.20813806110E+02 -0.36757216735E+02  0.42870270016E+02  0.00000000000E+00 0. -1.
        -12    1    3    3    0    0  0.28551529308E+02 -0.23750410531E+02  0.27171414758E+02  0.46016927388E+02  0.00000000000E+00 0.  1.
        -13    1    4    4    0    0 -0.77587758431E+01  0.32298659939E+02  0.27178841276E+01  0.33328500275E+02  0.00000000000E+00 0.  1.
         13    1    4    4    0    0  0.64276784241E+02 -0.33405022100E+02  0.47223223680E+02  0.86472153602E+02  0.00000000000E+00 0. -1.
          2    1    1    2  501    0 -0.92387498103E+02  0.40429665821E+01  0.72749746530E+02  0.11766189275E+03  0.00000000000E+00 0. -1.
<scales pt_clust_5="13000.00000" pt_clust_6="13000.00000" pt_clust_7="13000.00000" pt_clust_8="13000.00000" pt_clust_9="78.40457"></scales>
<clustering>
<clus scale="   80.708">  5  6 -1 -1</clus>
<clus scale="   88.369">  2  5  1 -1</clus>
<clus scale="   78.405">  1  9  2 -1</clus>
<clus scale="   93.073">  7  8 -1 -1</clus>
<clus scale="   78.405">  1  5  2 -1</clus>
</clustering>
</event>
<event>
 9    1  0.9171696E-005  0.2351407E+03  0.7546771E-02  0.1158912E+00
         21   -1    0    0  501  502  0.00000000000E+00  0.00000000000E+00  0.44940133715E+03  0.44940133715E+03  0.00000000000E+00 0. -1.
          1   -1    0    0  502    0 -0.00000000000E+00 -0.00000000000E+00 -0.26159346452E+03  0.26159346452E+03  0.00000000000E+00 0. -1.
        -24    2    1    2    0    0  0.32916173628E+02 -0.50642278119E+02  0.15251435262E+03  0.18193195169E+03  0.78679682707E+02 0.  0.
         23    2    1    2    0    0 -0.15270858287E+03  0.17294726001E+03  0.17779398428E+03  0.30631835011E+03  0.94813315202E+02 0.  0.
         11    1    3    3    0    0  0.44988467714E+02 -0.65155617650E+02  0.13297389968E+03  0.15476199383E+03  0.00000000000E+00 0. -1.
        -12    1    3    3    0    0 -0.12072294086E+02  0.14513339531E+02  0.19540452940E+02  0.27169957857E+02  0.00000000000E+00 0.  1.
        -13    1    4    4    0    0 -0.96827722788E+02  0.15328242786E+03  0.16620023722E+03  0.24595452718E+03  0.00000000000E+00 0. -1.
         13    1    4    4    0    0 -0.55880860081E+02  0.19664832153E+02  0.11593747058E+02  0.60363822923E+02  0.00000000000E+00 0.  1.
          2    1    1    2  501    0  0.11979240924E+03 -0.12230498189E+03 -0.14250046427E+03  0.22274449988E+03  0.00000000000E+00 0. -1.
<scales pt_clust_5="13000.00000" pt_clust_6="13000.00000" pt_clust_7="13000.00000" pt_clust_8="13000.00000" pt_clust_9="215.17808"></scales>
<clustering>
<clus scale="   78.680">  5  6 -1 -1</clus>
<clus scale="   94.813">  7  8 -1 -1</clus>
<clus scale="   99.190">  2  5  1 -1</clus>
<clus scale="  215.178">  1  9  2 -1</clus>
<clus scale="  215.178">  1  5  2 -1</clus>
</clustering>
</event>
<event>
 9    1  0.9171696E-005  0.9293688E+02  0.7546771E-02  0.1302038E+00
         21   -1    0    0  501  502  0.00000000000E+00  0.00000000000E+00  0.78642308667E+02  0.78642308667E+02  0.00000000000E+00 0. -1.
          1   -1    0    0  502    0 -0.00000000000E+00 -0.00000000000E+00 -0.38168535260E+03  0.38168535260E+03  0.00000000000E+00 0. -1.
        -24    2    1    2    0    0  0.20263379220E+02 -0.96805878496E+01 -0.25363944326E+03  0.26719002042E+03  0.80951970421E+02 0.  0.
         23    2    1    2    0    0  0.59192645215E+01  0.19879731164E+02 -0.98986257638E+02  0.13614647286E+03  0.91144618422E+02 0.  0.
         13    1    3    3    0    0  0.73533518654E+01 -0.37131668954E+02 -0.21375203818E+03  0.21707778894E+03  0.00000000000E+00 0. -1.
        -14    1    3    3    0    0  0.12910027354E+02  0.27451081104E+02 -0.39887405078E+02  0.50112231480E+02  0.00000000000E+00 0.  1.
        -11    1    4    4    0    0 -0.31251457948E+02  0.38515704899E+02 -0.68570259140E+02  0.84628562473E+02  0.00000000000E+00 0.  1.
         11    1    4    4    0    0  0.37170722469E+02 -0.18635973735E+02 -0.30415998498E+02  0.51517910386E+02  0.00000000000E+00 0. -1.
          2    1    1    2  501    0 -0.26182643741E+02 -0.10199143314E+02  0.49582656963E+02  0.56991167992E+02  0.00000000000E+00 0. -1.
<scales pt_clust_5="13000.00000" pt_clust_6="13000.00000" pt_clust_7="13000.00000" pt_clust_8="13000.00000" pt_clust_9="28.09899"></scales>
<clustering>
<clus scale="   28.099">  1  9  2 -1</clus>
<clus scale="   80.952">  5  6 -1 -1</clus>
<clus scale="   82.965">  2  5  1 -1</clus>
<clus scale="   91.145">  7  8 -1 -1</clus>
<clus scale="   28.099">  1  5  2 -1</clus>
</clustering>
</event>
<event>
 9    1  0.9171696E-005  0.2278586E+03  0.7546771E-02  0.1129072E+00
         21   -1    0    0  501  502  0.00000000000E+00  0.00000000000E+00  0.29850023692E+03  0.29850023692E+03  0.00000000000E+00 0.  1.
         -4   -1    0    0    0  501 -0.00000000000E+00 -0.00000000000E+00 -0.39320935960E+03  0.39320935960E+03  0.00000000000E+00 0.  1.
         23    2    1    2    0    0 -0.10489867770E+03 -0.14533257321E+03 -0.96158778300E+02  0.22369036064E+03  0.93089083035E+02 0.  0.
        -24    2    1    2    0    0  0.17851148605E+03  0.24060292878E+03  0.84975045865E+02  0.32148672407E+03  0.79855089661E+02 0.  0.
         11    1    4    4    0    0  0.11640400595E+03  0.19370740974E+03  0.34203278241E+02  0.22856578360E+03  0.00000000000E+00 0. -1.
        -12    1    4    4    0    0  0.62107480104E+02  0.46895519037E+02  0.50771767625E+02  0.92920940473E+02  0.00000000000E+00 0.  1.
        -11    1    3    3    0    0  0.16359493645E+02 -0.22670248712E+02 -0.23534258889E+02  0.36543597940E+02  0.00000000000E+00 0. -1.
         11    1    3    3    0    0 -0.12125817135E+03 -0.12266232449E+03 -0.72624519411E+02  0.18714676270E+03  0.00000000000E+00 0.  1.
         -3    1    1    2    0  502 -0.73612808347E+02 -0.95270355572E+02 -0.83525390242E+02  0.14653251181E+03  0.00000000000E+00 0.  1.
<scales pt_clust_5="13000.00000" pt_clust_6="13000.00000" pt_clust_7="13000.00000" pt_clust_8="13000.00000" pt_clust_9="120.39643"></scales>
<clustering>
<clus scale="   79.855">  5  6 -1 -1</clus>
<clus scale="   93.089">  7  8 -1 -1</clus>
<clus scale="  120.396">  1  9  2 -1</clus>
<clus scale="  222.780">  1  5  2 -1</clus>
<clus scale="  120.396">  1  5  2 -1</clus>
</clustering>
</event>
<event>
 9    1  0.9171696E-005  0.9635486E+02  0.7546771E-02  0.1292989E+00
         21   -1    0    0  501  502  0.00000000000E+00  0.00000000000E+00  0.58050257590E+02  0.58050257590E+02  0.00000000000E+00 0.  1.
          1   -1    0    0  502    0 -0.00000000000E+00 -0.00000000000E+00 -0.23889748077E+03  0.23889748077E+03  0.00000000000E+00 0. -1.
        -24    2    1    2    0    0  0.79121353906E+01 -0.42095304056E+02 -0.13177540495E+03  0.16014095692E+03  0.80285442177E+02 0.  0.
         23    2    1    2    0    0  0.19304895160E+02  0.22570510597E+02 -0.37921331607E+02  0.10150355689E+03  0.89346727667E+02 0.  0.
         11    1    3    3    0    0  0.20151462722E+02 -0.27314306700E+02 -0.13626766561E+03  0.14043158295E+03  0.00000000000E+00 0. -1.
        -12    1    3    3    0    0 -0.12239327331E+02 -0.14780997356E+02  0.44922606642E+01  0.19709373969E+02  0.00000000000E+00 0.  1.
        -13    1    4    4    0    0  0.44597386168E+02 -0.13973253542E+02 -0.32062920362E+02  0.56676357767E+02  0.00000000000E+00 0. -1.
         13    1    4    4    0    0 -0.25292491008E+02  0.36543764140E+02 -0.58584112444E+01  0.44827199123E+02  0.00000000000E+00 0.  1.
          2    1    1    2  501    0 -0.27217030550E+02  0.19524793459E+02 -0.11150486630E+02  0.35303224550E+02  0.00000000000E+00 0. -1.
<scales pt_clust_5="13000.00000" pt_clust_6="13000.00000" pt_clust_7="13000.00000" pt_clust_8="13000.00000" pt_clust_9="33.49603"></scales>
<clustering>
<clus scale="   33.496">  1  9  2 -1</clus>
<clus scale="   80.285">  5  6 -1 -1</clus>
<clus scale="   88.018">  2  5  1 -1</clus>
<clus scale="   89.347">  7  8 -1 -1</clus>
<clus scale="   33.496">  1  5  2 -1</clus>
</clustering>
</event>
<event>
 9    1  0.9171696E-005  0.9158300E+02  0.7546771E-02  0.1303576E+00
          1   -1    0    0  502    0 -0.00000000000E+00  0.00000000000E+00  0.65973501783E+03  0.65973501783E+03  0.00000000000E+00 0. -1.
         21   -1    0    0  501  502  0.00000000000E+00 -0.00000000000E+00 -0.37895971524E+02  0.37895971524E+02  0.00000000000E+00 0. -1.
         23    2    1    2    0    0 -0.18241456080E+01  0.27650762501E+02  0.52458486998E+03  0.53275999898E+03  0.88747047999E+02 0.  0.
        -24    2    1    2    0    0  0.25208660737E+02  0.11653352294E+02  0.51002067882E+02  0.99825571448E+02  0.81195175908E+02 0.  0.
         11    1    4    4    0    0  0.54748495219E+02  0.62957768362E+01  0.38904264925E+02  0.67457959976E+02  0.00000000000E+00 0. -1.
        -12    1    4    4    0    0 -0.29539834482E+02  0.53575754581E+01  0.12097802957E+02  0.32367611472E+02  0.00000000000E+00 0.  1.
        -11    1    3    3    0    0 -0.53784506273E+01  0.60047774131E+02  0.32897008268E+03  0.33444876769E+03  0.00000000000E+00 0. -1.
         11    1    3    3    0    0  0.35543050193E+01 -0.32397011631E+02  0.19561478730E+03  0.19831123130E+03  0.00000000000E+00 0.  1.
          2    1    1    2  501    0 -0.23384515129E+02 -0.39304114795E+02  0.46252108444E+02  0.65045418925E+02  0.00000000000E+00 0. -1.
<scales pt_clust_5="13000.00000" pt_clust_6="13000.00000" pt_clust_7="13000.00000" pt_clust_8="13000.00000" pt_clust_9="45.73455"></scales>
<clustering>
<clus scale="   45.735">  2  9  1 -1</clus>
<clus scale="   81.195">  5  6 -1 -1</clus>
<clus scale="   84.286">  2  5  1 -1</clus>
<clus scale="   88.747">  7  8 -1 -1</clus>
<clus scale="   45.735">  2  5  1 -1</clus>
</clustering>
</event>
<event>
 9    1  0.9171696E-005  0.1033340E+03  0.7546771E-02  0.1277613E+00
         21   -1    0    0  501  502  0.00000000000E+00  0.00000000000E+00  0.22450553268E+03  0.22450553268E+03  0.00000000000E+00 0. -1.
          1   -1    0    0  502    0 -0.00000000000E+00 -0.00000000000E+00 -0.15767450023E+03  0.15767450023E+03  0.00000000000E+00 0. -1.
         23    2    1    2    0    0  0.67636310899E+01  0.52440552868E+02 -0.11165366260E+03  0.15289540213E+03  0.90081659227E+02 0.  0.
        -24    2    1    2    0    0  0.32011285317E+02 -0.35370282748E+02  0.15400002958E+03  0.18035215581E+03  0.80840037755E+02 0.  0.
         11    1    4    4    0    0  0.39552241452E+02  0.70944112617E+01  0.11637737297E+03  0.12311946806E+03  0.00000000000E+00 0. -1.
        -12    1    4    4    0    0 -0.75409561355E+01 -0.42464694010E+02  0.37622656612E+02  0.57232687752E+02  0.00000000000E+00 0.  1.
        -11    1    3    3    0    0  0.77800553404E+01 -0.24934531354E+02 -0.19709543039E+02  0.32721952903E+02  0.00000000000E+00 0.  1.
         11    1    3    3    0    0 -0.10164242506E+01  0.77375084222E+02 -0.91944119563E+02  0.12017344923E+03  0.00000000000E+00 0. -1.
          2    1    1    2  501    0 -0.38774916407E+02 -0.17070270120E+02  0.24484665467E+02  0.48932474977E+02  0.00000000000E+00 0. -1.
<scales pt_clust_5="13000.00000" pt_clust_6="13000.00000" pt_clust_7="13000.00000" pt_clust_8="13000.00000" pt_clust_9="42.36612"></scales>
<clustering>
<clus scale="   42.366">  1  9  2 -1</clus>
<clus scale="   80.840">  5  6 -1 -1</clus>
<clus scale="   90.082">  7  8 -1 -1</clus>
<clus scale="   95.385">  1  5  2 -1</clus>
<clus scale="   42.366">  1  5  2 -1</clus>
</clustering>
</event>
<event>
 9    1  0.9171696E-005  0.1792508E+03  0.7546771E-02  0.1190233E+00
         21   -1    0    0  501  502  0.00000000000E+00  0.00000000000E+00  0.54598917097E+03  0.54598917097E+03  0.00000000000E+00 0.  1.
         -4   -1    0    0    0  501 -0.00000000000E+00 -0.00000000000E+00 -0.10185876681E+03  0.10185876681E+03  0.00000000000E+00 0.  1.
        -24    2    1    2    0    0 -0.75918949323E+02 -0.23570707935E+02  0.14810544925E+03  0.18447905628E+03  0.76013373622E+02 0.  0.
         23    2    1    2    0    0  0.85202702152E+02  0.16562078016E+03  0.13328696070E+03  0.24715587114E+03  0.92902462131E+02 0.  0.
         13    1    3    3    0    0 -0.62531878049E+02 -0.61035087153E+01  0.40740292252E+02  0.74881639965E+02  0.00000000000E+00 0. -1.
        -14    1    3    3    0    0 -0.13387071273E+02 -0.17467199220E+02  0.10736515699E+03  0.10959741631E+03  0.00000000000E+00 0.  1.
        -13    1    4    4    0    0  0.36358888617E+02  0.88304292340E+01  0.51603760486E+02  0.63740829601E+02  0.00000000000E+00 0. -1.
         13    1    4    4    0    0  0.48843813535E+02  0.15679035093E+03  0.81683200212E+02  0.18341504154E+03  0.00000000000E+00 0.  1.
         -3    1    1    2    0  502 -0.92837528296E+01 -0.14205007223E+03  0.16273799421E+03  0.21621301036E+03  0.00000000000E+00 0.  1.
<scales pt_clust_5="13000.00000" pt_clust_6="13000.00000" pt_clust_7="13000.00000" pt_clust_8="13000.00000" pt_clust_9="153.29709"></scales>
<clustering>
<clus scale="   76.013">  5  6 -1 -1</clus>
<clus scale="   92.902">  7  8 -1 -1</clus>
<clus scale="  109.988">  2  5  1 -1</clus>
<clus scale="  153.297">  1  9  2 -1</clus>
<clus scale="  153.297">  1  5  2 -1</clus>
</clustering>
</event>
<event>
 9    1  0.1167461E-004  0.1342962E+03  0.7546771E-02  0.1222039E+00
         21   -1    0    0  501  502  0.00000000000E+00  0.00000000000E+00  0.44647391139E+03  0.44647391139E+03  0.00000000000E+00 0.  1.
         -2   -1    0    0    0  501 -0.00000000000E+00 -0.00000000000E+00 -0.11656951982E+04  0.11656951982E+04  0.00000000000E+00 0.  1.
        -24    2    1    2    0    0 -0.68965129196E+01  0.10777655933E+03 -0.10732573282E+04  0.10816917318E+04  0.80699204069E+02 0.  0.
         23    2    1    2    0    0 -0.41941593397E+02 -0.10141613985E+03 -0.34900304375E+02  0.13843516503E+03  0.76824039164E+02 0.  0.
         11    1    3    3    0    0  0.92320823889E+01  0.47342326943E+02 -0.18333290498E+03  0.18957183682E+03  0.00000000000E+00 0. -1.
        -12    1    3    3    0    0 -0.16128595309E+02  0.60434232389E+02 -0.88992442322E+03  0.89211989501E+03  0.00000000000E+00 0.  1.
        -11    1    4    4    0    0 -0.37077966798E+02 -0.91327183836E+01 -0.24663415442E+02  0.45458401074E+02  0.00000000000E+00 0. -1.
         11    1    4    4    0    0 -0.48636265989E+01 -0.92283421466E+02 -0.10236888933E+02  0.92976763958E+02  0.00000000000E+00 0.  1.
         -1    1    1    2    0  502  0.48838106317E+02 -0.63604194827E+01  0.38893634573E+03  0.39204221277E+03  0.00000000000E+00 0.  1.
<scales pt_clust_5="13000.00000" pt_clust_6="13000.00000" pt_clust_7="13000.00000" pt_clust_8="13000.00000" pt_clust_9="49.25054"></scales>
<clustering>
<clus scale="   49.251">  1  9  2 -1</clus>
<clus scale="   76.824">  7  8 -1 -1</clus>
<clus scale="   80.699">  5  6 -1 -1</clus>
<clus scale="  132.004">  1  7  2 -1</clus>
<clus scale="   49.251">  1  5  2 -1</clus>
</clustering>
</event>
<event>
 9    1  0.9171696E-005  0.8613160E+02  0.7546771E-02  0.1315940E+00
          1   -1    0    0  502    0 -0.00000000000E+00  0.00000000000E+00  0.32496666268E+02  0.32496666268E+02  0.00000000000E+00 0. -1.
         21   -1    0    0  501  502  0.00000000000E+00 -0.00000000000E+00 -0.58547510510E+03  0.58547510510E+03  0.00000000000E+00 0. -1.
         23    2    1    2    0    0 -0.25902411525E+01  0.67077718151E+00 -0.61079836502E+02  0.10553283212E+03  0.86019026596E+02 0.  0.
        -24    2    1    2    0    0 -0.37773177257E+02  0.12864311296E+02 -0.41365524920E+03  0.42336354156E+03  0.80831427680E+02 0.  0.
         13    1    4    4    0    0 -0.54010371243E+02 -0.10618834782E+02 -0.18748136264E+03  0.19539483409E+03  0.00000000000E+00 0. -1.
        -14    1    4    4    0    0  0.16237193986E+02  0.23483146078E+02 -0.22617388657E+03  0.22796870747E+03  0.00000000000E+00 0.  1.
        -13    1    3    3    0    0 -0.31703734261E+02  0.29707635742E+01  0.59713776481E+01  0.32397678209E+02  0.00000000000E+00 0. -1.
         13    1    3    3    0    0  0.29113493108E+02 -0.22999863927E+01 -0.67051214150E+02  0.73135153910E+02  0.00000000000E+00 0.  1.
          2    1    1    2  501    0  0.40363418410E+02 -0.13535088477E+02 -0.78243353130E+02  0.89075397697E+02  0.00000000000E+00 0. -1.
<scales pt_clust_5="13000.00000" pt_clust_6="13000.00000" pt_clust_7="13000.00000" pt_clust_8="13000.00000" pt_clust_9="42.57236"></scales>
<clustering>
<clus scale="   42.572">  2  9  1 -1</clus>
<clus scale="   80.831">  5  6 -1 -1</clus>
<clus scale="   80.951">  2  5  1 -1</clus>
<clus scale="   86.019">  7  8 -1 -1</clus>
<clus scale="   42.572">  2  5  1 -1</clus>
</clustering>
</event>
<event>
 9    1  0.9171696E-005  0.1312909E+03  0.7546771E-02  0.1227480E+00
          1   -1    0    0  502    0 -0.00000000000E+00  0.00000000000E+00  0.30742033421E+03  0.30742033421E+03  0.00000000000E+00 0. -1.
         21   -1    0    0  501  502  0.00000000000E+00 -0.00000000000E+00 -0.23598965932E+03  0.23598965932E+03  0.00000000000E+00 0. -1.
        -24    2    1    2    0    0  0.58713267915E+02  0.10033590967E+03  0.23820723315E+03  0.27673241304E+03  0.79521065781E+02 0.  0.
         23    2    1    2    0    0 -0.25628514074E+02 -0.35121793657E+02 -0.15828560706E+02  0.98949288802E+02  0.87464605968E+02 0.  0.
         11    1    3    3    0    0  0.39929148752E+02  0.86449561448E+01  0.11476147067E+03  0.12181653146E+03  0.00000000000E+00 0. -1.
        -12    1    3    3    0    0  0.18784119163E+02  0.91690953525E+02  0.12344576249E+03  0.15491588158E+03  0.00000000000E+00 0.  1.
        -11    1    4    4    0    0  0.26712209313E+02 -0.33112247712E+02 -0.18742121466E+02  0.46489033028E+02  0.00000000000E+00 0.  1.
         11    1    4    4    0    0 -0.52340723387E+02 -0.20095459455E+01  0.29135607602E+01  0.52460255774E+02  0.00000000000E+00 0. -1.
          2    1    1    2  501    0 -0.33084753841E+02 -0.65214116013E+02 -0.15094799756E+03  0.16772829168E+03  0.00000000000E+00 0. -1.
<scales pt_clust_5="13000.00000" pt_clust_6="13000.00000" pt_clust_7="13000.00000" pt_clust_8="13000.00000" pt_clust_9="73.12648"></scales>
<clustering>
<clus scale="   73.126">  2  9  1 -1</clus>
<clus scale="   79.521">  5  6 -1 -1</clus>
<clus scale="   87.465">  7  8 -1 -1</clus>
<clus scale="  126.138">  1  5  2 -1</clus>
<clus scale="   73.126">  2  5  1 -1</clus>
</clustering>
</event>
<event>
 9    1  0.9171696E-005  0.1967077E+03  0.7546771E-02  0.1153853E+00
         21   -1    0    0  501  502  0.00000000000E+00  0.00000000000E+00  0.22391406166E+03  0.22391406166E+03  0.00000000000E+00 0.  1.
         -2   -1    0    0    0  501 -0.00000000000E+00 -0.00000000000E+00 -0.22016640493E+03  0.22016640493E+03  0.00000000000E+00 0.  1.
         23    2    1    2    0    0 -0.16466028214E+03 -0.26302060304E+02 -0.54733156654E+02  0.19881956356E+03  0.93427477373E+02 0.  0.
        -24    2    1    2    0    0  0.18576292831E+03 -0.19797581123E+01  0.43556893761E+02  0.20694763763E+03  0.80114522718E+02 0.  0.
         13    1    4    4    0    0  0.12695568026E+03 -0.32695242061E+01 -0.10008209520E+02  0.12739151776E+03  0.00000000000E+00 0. -1.
        -14    1    4    4    0    0  0.58807248050E+02  0.12897660938E+01  0.53565103281E+02  0.79556119874E+02  0.00000000000E+00 0.  1.
        -13    1    3    3    0    0 -0.14102978085E+03 -0.55582651947E+02 -0.54811917497E+02  0.16119297933E+03  0.00000000000E+00 0.  1.
         13    1    3    3    0    0 -0.23630501283E+02  0.29280591643E+02  0.78760843030E-01  0.37626584234E+02  0.00000000000E+00 0. -1.
         -1    1    1    2    0  502 -0.21102646173E+02  0.28281818416E+02  0.14923919622E+02  0.38313265397E+02  0.00000000000E+00 0.  1.
<scales pt_clust_5="13000.00000" pt_clust_6="13000.00000" pt_clust_7="13000.00000" pt_clust_8="13000.00000" pt_clust_9="35.28715"></scales>
<clustering>
<clus scale="   35.287">  1  9  2 -1</clus>
<clus scale="   80.115">  5  6 -1 -1</clus>
<clus scale="   93.427">  7  8 -1 -1</clus>
<clus scale="  190.745">  1  5  2 -1</clus>
<clus scale="   35.287">  1  5  2 -1</clus>
</clustering>
</event>
<event>
 9    1  0.9171696E-005  0.9918125E+02  0.7546771E-02  0.1289527E+00
         -2   -1    0    0    0  501 -0.00000000000E+00  0.00000000000E+00  0.89328492549E+02  0.89328492549E+02  0.00000000000E+00 0.  1.
         21   -1    0    0  501  502  0.00000000000E+00 -0.00000000000E+00 -0.23991680975E+03  0.23991680975E+03  0.00000000000E+00 0.  1.
        -24    2    1    2    0    0 -0.52476647867E+01 -0.28378670877E+02 -0.19568103467E+02  0.86377052252E+02  0.79026562218E+02 0.  0.
         23    2    1    2    0    0 -0.45402518251E+02  0.49377894246E+02 -0.14631236679E+03  0.18594498266E+03  0.93105653960E+02 0.  0.
         11    1    3    3    0    0 -0.21448358165E+02  0.20838066169E+02  0.26053044847E+01  0.30017406302E+02  0.00000000000E+00 0. -1.
        -12    1    3    3    0    0  0.16200693379E+02 -0.49216737046E+02 -0.22173407952E+02  0.56359645950E+02  0.00000000000E+00 0.  1.
        -13    1    4    4    0    0 -0.69201455114E+02  0.48422953220E+02 -0.83498975613E+02  0.11876743121E+03  0.00000000000E+00 0.  1.
         13    1    4    4    0    0  0.23798936862E+02  0.95494102561E+00 -0.62813391175E+02  0.67177551452E+02  0.00000000000E+00 0. -1.
         -1    1    1    2    0  502  0.50650183038E+02 -0.20999223369E+02  0.15292153057E+02  0.56923267378E+02  0.00000000000E+00 0.  1.
<scales pt_clust_5="13000.00000" pt_clust_6="13000.00000" pt_clust_7="13000.00000" pt_clust_8="13000.00000" pt_clust_9="54.83075"></scales>
<clustering>
<clus scale="   54.831">  2  9  1 -1</clus>
<clus scale="   79.027">  5  6 -1 -1</clus>
<clus scale="   86.101">  1  5  2 -1</clus>
<clus scale="   93.106">  7  8 -1 -1</clus>
<clus scale="   54.831">  2  5  1 -1</clus>
</clustering>
</event>
<event>
 9    1  0.9171696E-005  0.1038874E+03  0.7546771E-02  0.1275971E+00
          1   -1    0    0  502    0 -0.00000000000E+00  0.00000000000E+00  0.16755658455E+03  0.16755658455E+03  0.00000000000E+00 0. -1.
         21   -1    0    0  501  502  0.00000000000E+00 -0.00000000000E+00 -0.14860482897E+03  0.14860482897E+03  0.00000000000E+00 0.  1.
        -24    2    1    2    0    0  0.49803631050E+02 -0.30043499534E+02  0.41459618871E+02  0.10926543642E+03  0.82686287075E+02 0.  0.
         23    2    1    2    0    0  0.25880925779E+02  0.72050386570E+02 -0.72271817470E+01  0.11899700140E+03  0.90812849655E+02 0.  0.
         11    1    3    3    0    0  0.39102761481E+02 -0.52791794307E+02  0.50167413754E+02  0.82660564384E+02  0.00000000000E+00 0. -1.
        -12    1    3    3    0    0  0.10700869569E+02  0.22748294772E+02 -0.87077948831E+01  0.26604872041E+02  0.00000000000E+00 0.  1.
        -11    1    4    4    0    0  0.36408148483E+02 -0.55678605588E+01 -0.16042598769E+02  0.40173614754E+02  0.00000000000E+00 0.  1.
         11    1    4    4    0    0 -0.10527222704E+02  0.77618247129E+02  0.88154170215E+01  0.78823386647E+02  0.00000000000E+00 0. -1.
          2    1    1    2  501    0 -0.75684556828E+02 -0.42006887036E+02 -0.15280681543E+02  0.87898975701E+02  0.00000000000E+00 0. -1.
<scales pt_clust_5="13000.00000" pt_clust_6="13000.00000" pt_clust_7="13000.00000" pt_clust_8="13000.00000" pt_clust_9="86.56056"></scales>
<clustering>
<clus scale="   82.686">  5  6 -1 -1</clus>
<clus scale="   86.561">  2  9  1 -1</clus>
<clus scale="   90.813">  7  8 -1 -1</clus>
<clus scale="   96.864">  1  5  2 -1</clus>
<clus scale="   86.561">  2  5  1 -1</clus>
</clustering>
</event>
<event>
 9    1  0.9171696E-005  0.1671485E+03  0.7546771E-02  0.1182013E+00
         21   -1    0    0  501  502  0.00000000000E+00  0.00000000000E+00  0.11761338302E+03  0.11761338302E+03  0.00000000000E+00 0. -1.
          1   -1    0    0  502    0 -0.00000000000E+00 -0.00000000000E+00 -0.46093686032E+03  0.46093686032E+03  0.00000000000E+00 0. -1.
        -24    2    1    2    0    0 -0.46979185747E+02 -0.14318679143E+03 -0.27510853442E+03  0.32422379487E+03  0.82017451290E+02 0.  0.
         23    2    1    2    0    0 -0.11819719749E+02  0.12956859816E+03 -0.98836250706E+02  0.18664756722E+03  0.90227393234E+02 0.  0.
         11    1    3    3    0    0  0.11944944116E+02 -0.33396641832E+02 -0.12073765687E+03  0.12583957709E+03  0.00000000000E+00 0. -1.
        -12    1    3    3    0    0 -0.58924129863E+02 -0.10979014960E+03 -0.15437087755E+03  0.19838421778E+03  0.00000000000E+00 0.  1.
        -11    1    4    4    0    0 -0.81691592778E+01  0.51088686028E+02  0.97214523594E+01  0.52643096787E+02  0.00000000000E+00 0. -1.
         11    1    4    4    0    0 -0.36505604715E+01  0.78479912133E+02 -0.10855770307E+03  0.13400447043E+03  0.00000000000E+00 0.  1.
          2    1    1    2  501    0  0.58798905496E+02  0.13618193271E+02  0.30621307820E+02  0.67678881256E+02  0.00000000000E+00 0. -1.
<scales pt_clust_5="13000.00000" pt_clust_6="13000.00000" pt_clust_7="13000.00000" pt_clust_8="13000.00000" pt_clust_9="60.35534"></scales>
<clustering>
<clus scale="   60.355">  1  9  2 -1</clus>
<clus scale="   82.017">  5  6 -1 -1</clus>
<clus scale="   90.227">  7  8 -1 -1</clus>
<clus scale="  162.863">  2  5  1 -1</clus>
<clus scale="   60.355">  1  5  2 -1</clus>
</clustering>
</event>
<event>
 9    1  0.9171696E-005  0.1087373E+03  0.7546771E-02  0.1268235E+00
         21   -1    0    0  501  502  0.00000000000E+00  0.00000000000E+00  0.11956071185E+03  0.11956071185E+03  0.00000000000E+00 0. -1.
          1   -1    0    0  502    0 -0.00000000000E+00 -0.00000000000E+00 -0.21688973364E+03  0.21688973364E+03  0.00000000000E+00 0. -1.
         23    2    1    2    0    0  0.14882718643E+01 -0.49481604869E+02 -0.24721670362E+02  0.10809973480E+03  0.92864134650E+02 0.  0.
        -24    2    1    2    0    0  0.26301236915E+02  0.67625280272E+02  0.36685643119E+02  0.11412983513E+03  0.80092754112E+02 0.  0.
         13    1    4    4    0    0  0.45832544618E+02  0.74411250504E+02  0.29344855257E+02  0.92188811023E+02  0.00000000000E+00 0. -1.
        -14    1    4    4    0    0 -0.19531307702E+02 -0.67859702320E+01  0.73407878624E+01  0.21941024110E+02  0.00000000000E+00 0.  1.
        -13    1    3    3    0    0  0.43928426377E+02 -0.59513520689E+01 -0.12869708766E+02  0.46160097911E+02  0.00000000000E+00 0.  1.
         13    1    3    3    0    0 -0.42440154513E+02 -0.43530252800E+02 -0.11851961596E+02  0.61939636886E+02  0.00000000000E+00 0. -1.
          2    1    1    2  501    0 -0.27789508780E+02 -0.18143675403E+02 -0.10929299455E+03  0.11422087555E+03  0.00000000000E+00 0. -1.
<scales pt_clust_5="13000.00000" pt_clust_6="13000.00000" pt_clust_7="13000.00000" pt_clust_8="13000.00000" pt_clust_9="33.18811"></scales>
<clustering>
<clus scale="   33.188">  1  9  2 -1</clus>
<clus scale="   80.093">  5  6 -1 -1</clus>
<clus scale="   92.864">  7  8 -1 -1</clus>
<clus scale="   98.056">  1  5  2 -1</clus>
<clus scale="   33.188">  1  5  2 -1</clus>
</clustering>
</event>
<event>
 9    1  0.9171696E-005  0.1355317E+03  0.7546771E-02  0.1222185E+00
          1   -1    0    0  502    0 -0.00000000000E+00  0.00000000000E+00  0.33300257124E+02  0.33300257124E+02  0.00000000000E+00 0. -1.
         21   -1    0    0  501  502  0.00000000000E+00 -0.00000000000E+00 -0.95976219040E+03  0.95976219040E+03  0.00000000000E+00 0. -1.
        -24    2    1    2    0    0  0.14558057573E+02 -0.82453420308E+02 -0.19340461079E+03  0.22559366266E+03  0.80477659001E+02 0.  0.
         23    2    1    2    0    0 -0.45332498213E+02  0.12689607049E+03 -0.43567250893E+03  0.46521071188E+03  0.91939237021E+02 0.  0.
         11    1    3    3    0    0  0.35470249999E+02 -0.84545719229E+02 -0.13220487078E+03  0.16088581396E+03  0.00000000000E+00 0. -1.
        -12    1    3    3    0    0 -0.20912192426E+02  0.20922989214E+01 -0.61199740007E+02  0.64707848703E+02  0.00000000000E+00 0.  1.
        -13    1    4    4    0    0 -0.25943024409E+02  0.93660262802E+02 -0.40354636802E+03  0.41508427636E+03  0.00000000000E+00 0.  1.
         13    1    4    4    0    0 -0.19389473804E+02  0.33235807689E+02 -0.32126140916E+02  0.50126435514E+02  0.00000000000E+00 0. -1.
          2    1    1    2  501    0  0.30774440640E+02 -0.44442650183E+02 -0.29738481356E+03  0.30225807299E+03  0.00000000000E+00 0. -1.
<scales pt_clust_5="13000.00000" pt_clust_6="13000.00000" pt_clust_7="13000.00000" pt_clust_8="13000.00000" pt_clust_9="54.05752"></scales>
<clustering>
<clus scale="   54.058">  2  9  1 -1</clus>
<clus scale="   80.478">  5  6 -1 -1</clus>
<clus scale="   91.939">  7  8 -1 -1</clus>
<clus scale="  128.034">  1  5  2 -1</clus>
<clus scale="   54.058">  2  5  1 -1</clus>
</clustering>
</event>
<event>
 9    1  0.9171696E-005  0.1376786E+03  0.7546771E-02  0.1224348E+00
          1   -1    0    0  502    0 -0.00000000000E+00  0.00000000000E+00  0.80614866447E+03  0.80614866447E+03  0.00000000000E+00 0. -1.
         21   -1    0    0  501  502  0.00000000000E+00 -0.00000000000E+00 -0.89858554225E+02  0.89858554225E+02  0.00000000000E+00 0.  1.
        -24    2    1    2    0    0  0.28192862588E+01 -0.83729029032E+02 -0.88156483244E+01  0.11707553378E+03  0.81304774009E+02 0.  0.
         23    2    1    2    0    0  0.32769976284E+02 -0.70413005193E+02  0.23092214523E+03  0.26004460084E+03  0.90919165330E+02 0.  0.
         13    1    3    3    0    0 -0.32981176213E+02 -0.54610332759E+02  0.14423519613E+02  0.65407066487E+02  0.00000000000E+00 0. -1.
        -14    1    3    3    0    0  0.35800462472E+02 -0.29118696273E+02 -0.23239167938E+02  0.51668467292E+02  0.00000000000E+00 0.  1.
        -11    1    4    4    0    0  0.61402541062E+02 -0.54113122160E+02  0.12756264879E+03  0.15156098246E+03  0.00000000000E+00 0.  1.
         11    1    4    4    0    0 -0.28632564778E+02 -0.16299883033E+02  0.10335949644E+03  0.10848361838E+03  0.00000000000E+00 0. -1.
          2    1    1    2  501    0 -0.35589262543E+02  0.15414203423E+03  0.49418361334E+03  0.51888708407E+03  0.00000000000E+00 0. -1.
<scales pt_clust_5="13000.00000" pt_clust_6="13000.00000" pt_clust_7="13000.00000" pt_clust_8="13000.00000" pt_clust_9="103.38814"></scales>
<clustering>
<clus scale="   81.305">  5  6 -1 -1</clus>
<clus scale="   90.919">  7  8 -1 -1</clus>
<clus scale="  116.743">  1  5  2 -1</clus>
<clus scale="  103.388">  2  9  1 -1</clus>
<clus scale="  103.388">  2  5  1 -1</clus>
</clustering>
</event>
<event>
 9    1  0.9171696E-005  0.1397909E+03  0.7546771E-02  0.1216067E+00
         -2   -1    0    0    0  501 -0.00000000000E+00  0.00000000000E+00  0.37635221659E+03  0.37635221659E+03  0.00000000000E+00 0.  1.
         21   -1    0    0  501  502  0.00000000000E+00 -0.00000000000E+00 -0.97991427284E+02  0.97991427284E+02  0.00000000000E+00 0.  1.
        -24    2    1    2    0    0 -0.86152566982E+02  0.68217021248E+02  0.23963332771E+03  0.27536299334E+03  0.79528734215E+02 0.  0.
         23    2    1    2    0    0  0.77947884761E+02 -0.46742952749E+02 -0.25271954528E+02  0.13097787344E+03  0.90861186847E+02 0.  0.
         11    1    3    3    0    0 -0.60990416432E+02  0.84825426186E+02  0.17084724539E+03  0.20025974404E+03  0.00000000000E+00 0. -1.
        -12    1    3    3    0    0 -0.25162150550E+02 -0.16608404939E+02  0.68786082316E+02  0.75103249299E+02  0.00000000000E+00 0.  1.
        -13    1    4    4    0    0  0.82390925179E+02 -0.43457482359E+01 -0.30641506373E+02  0.88011658275E+02  0.00000000000E+00 0.  1.
         13    1    4    4    0    0 -0.44430404179E+01 -0.42397204513E+02  0.53695518457E+01  0.42966215166E+02  0.00000000000E+00 0. -1.
         -1    1    1    2    0  502  0.82046822208E+01 -0.21474068498E+02  0.63999416126E+02  0.68002777096E+02  0.00000000000E+00 0.  1.
<scales pt_clust_5="13000.00000" pt_clust_6="13000.00000" pt_clust_7="13000.00000" pt_clust_8="13000.00000" pt_clust_9="22.98810"></scales>
<clustering>
<clus scale="   22.988">  2  9  1 -1</clus>
<clus scale="   79.529">  5  6 -1 -1</clus>
<clus scale="   90.861">  7  8 -1 -1</clus>
<clus scale="  132.705">  1  5  2 -1</clus>
<clus scale="   22.988">  2  5  1 -1</clus>
</clustering>
</event>
<event>
 9    1  0.9171696E-005  0.1100215E+03  0.7546771E-02  0.1266802E+00
          1   -1    0    0  502    0 -0.00000000000E+00  0.00000000000E+00  0.47038026935E+03  0.47038026935E+03  0.00000000000E+00 0. -1.
         21   -1    0    0  501  502  0.00000000000E+00 -0.00000000000E+00 -0.42891399355E+02  0.42891399355E+02  0.00000000000E+00 0.  1.
         23    2    1    2    0    0 -0.31266205377E+02 -0.73745109646E+02  0.26172382399E+03  0.28860856589E+03  0.91540305167E+02 0.  0.
        -24    2    1    2    0    0  0.10479941807E+02  0.24971151227E+02  0.43754720273E+02  0.91631199272E+02  0.75818293044E+02 0.  0.
         13    1    4    4    0    0 -0.28780245880E+02  0.87872749794E+01 -0.77162452505E+00  0.30101730165E+02  0.00000000000E+00 0. -1.
        -14    1    4    4    0    0  0.39260187687E+02  0.16183876248E+02  0.44526344798E+02  0.61529469108E+02  0.00000000000E+00 0.  1.
        -11    1    3    3    0    0 -0.41329044604E+02 -0.91841813721E+02  0.21027498015E+03  0.23314925681E+03  0.00000000000E+00 0. -1.
         11    1    3    3    0    0  0.10062839227E+02  0.18096704075E+02  0.51448843840E+02  0.55459309084E+02  0.00000000000E+00 0.  1.
          2    1    1    2  501    0  0.20786263570E+02  0.48773958419E+02  0.12201032574E+03  0.13303190354E+03  0.00000000000E+00 0. -1.
<scales pt_clust_5="13000.00000" pt_clust_6="13000.00000" pt_clust_7="13000.00000" pt_clust_8="13000.00000" pt_clust_9="53.01859"></scales>
<clustering>
<clus scale="   53.019">  2  9  1 -1</clus>
<clus scale="   75.818">  5  6 -1 -1</clus>
<clus scale="   91.540">  7  8 -1 -1</clus>
<clus scale="   97.332">  2  5  1 -1</clus>
<clus scale="   53.019">  2  5  1 -1</clus>
</clustering>
</event>
<event>
 9    1  0.9171696E-005  0.1086312E+03  0.7546771E-02  0.1268186E+00
         -2   -1    0    0    0  501 -0.00000000000E+00  0.00000000000E+00  0.23484633736E+03  0.23484633736E+03  0.00000000000E+00 0.  1.
         21   -1    0    0  501  502  0.00000000000E+00 -0.00000000000E+00 -0.21996570082E+03  0.21996570082E+03  0.00000000000E+00 0.  1.
        -24    2    1    2    0    0 -0.42603228987E+02 -0.37004008379E+02  0.17226834311E+03  0.19887147456E+03  0.81787221502E+02 0.  0.
         23    2    1    2    0    0  0.71720027708E+02 -0.32729107468E+02 -0.12046718706E+03  0.17183574703E+03  0.93809508837E+02 0.  0.
         13    1    3    3    0    0 -0.80785352804E+01  0.25761517235E+02  0.36959001449E+02  0.45769927798E+02  0.00000000000E+00 0. -1.
        -14    1    3    3    0    0 -0.34524693707E+02 -0.62765525615E+02  0.13530934166E+03  0.15310154676E+03  0.00000000000E+00 0.  1.
        -11    1    4    4    0    0  0.93148077374E+02 -0.37663222582E+02 -0.96507614770E+02  0.13931547783E+03  0.00000000000E+00 0.  1.
         11    1    4    4    0    0 -0.21428049667E+02  0.49341151145E+01 -0.23959572293E+02  0.32520269202E+02  0.00000000000E+00 0. -1.
         -1    1    1    2    0  502 -0.29116798720E+02  0.69733115847E+02 -0.36920519496E+02  0.84104816588E+02  0.00000000000E+00 0.  1.
<scales pt_clust_5="13000.00000" pt_clust_6="13000.00000" pt_clust_7="13000.00000" pt_clust_8="13000.00000" pt_clust_9="75.56782"></scales>
<clustering>
<clus scale="   75.568">  2  9  1 -1</clus>
<clus scale="   81.787">  5  6 -1 -1</clus>
<clus scale="   93.810">  7  8 -1 -1</clus>
<clus scale="   98.436">  1  5  2 -1</clus>
<clus scale="   75.568">  2  5  1 -1</clus>
</clustering>
</event>
<event>
 9    1  0.9171696E-005  0.1146588E+03  0.7546771E-02  0.1256896E+00
         21   -1    0    0  501  502  0.00000000000E+00  0.00000000000E+00  0.89622692906E+02  0.89622692906E+02  0.00000000000E+00 0. -1.
          1   -1    0    0  502    0 -0.00000000000E+00 -0.00000000000E+00 -0.41396026234E+03  0.41396026234E+03  0.00000000000E+00 0. -1.
         23    2    1    2    0    0  0.55790913925E+01 -0.65570814123E+02 -0.27284224868E+03  0.29544047043E+03  0.92257904700E+02 0.  0.
        -24    2    1    2    0    0  0.63869575197E+02  0.74038304213E+02 -0.56673892455E+02  0.13798813153E+03  0.79169446318E+02 0.  0.
         13    1    4    4    0    0  0.13173148275E+02  0.55399538772E+02 -0.61432062027E+02  0.83764783629E+02  0.00000000000E+00 0. -1.
        -14    1    4    4    0    0  0.50696426922E+02  0.18638765441E+02  0.47581695715E+01  0.54223347900E+02  0.00000000000E+00 0.  1.
        -11    1    3    3    0    0 -0.29830396135E+02 -0.44603292855E+02 -0.68598472231E+02  0.87092230764E+02  0.00000000000E+00 0. -1.
         11    1    3    3    0    0  0.35409487527E+02 -0.20967521268E+02 -0.20424377645E+03  0.20834823967E+03  0.00000000000E+00 0.  1.
          2    1    1    2  501    0 -0.69448666590E+02 -0.84674900894E+01  0.51785717024E+01  0.70154353282E+02  0.00000000000E+00 0. -1.
<scales pt_clust_5="13000.00000" pt_clust_6="13000.00000" pt_clust_7="13000.00000" pt_clust_8="13000.00000" pt_clust_9="69.96296"></scales>
<clustering>
<clus scale="   69.963">  1  9  2 -1</clus>
<clus scale="   79.169">  5  6 -1 -1</clus>
<clus scale="   92.258">  7  8 -1 -1</clus>
<clus scale="  104.417">  1  5  2 -1</clus>
<clus scale="   69.963">  1  5  2 -1</clus>
</clustering>
</event>
<event>
 9    1  0.9171696E-005  0.1050546E+03  0.7546771E-02  0.1275425E+00
         -2   -1    0    0    0  501 -0.00000000000E+00  0.00000000000E+00  0.19191700424E+03  0.19191700424E+03  0.00000000000E+00 0.  1.
         21   -1    0    0  501  502  0.00000000000E+00 -0.00000000000E+00 -0.12132665509E+03  0.12132665509E+03  0.00000000000E+00 0. -1.
        -24    2    1    2    0    0  0.56354777072E+02 -0.11120472906E+02  0.10805433450E+03  0.14534236267E+03  0.78416435573E+02 0.  0.
         23    2    1    2    0    0 -0.30616554704E+02 -0.15459902518E+01 -0.74319895702E+02  0.12119740488E+03  0.90695096580E+02 0.  0.
         13    1    3    3    0    0 -0.46167893004E+01 -0.31912841124E+02  0.29026725655E+02  0.43385423523E+02  0.00000000000E+00 0. -1.
        -14    1    3    3    0    0  0.60971566373E+02  0.20792368218E+02  0.79027608840E+02  0.10195693915E+03  0.00000000000E+00 0.  1.
        -11    1    4    4    0    0 -0.38794943011E+02 -0.27190605074E+02 -0.59839482027E+01  0.47751274785E+02  0.00000000000E+00 0.  1.
         11    1    4    4    0    0  0.81783883075E+01  0.25644614822E+02 -0.68335947500E+02  0.73446130091E+02  0.00000000000E+00 0. -1.
         -1    1    1    2    0  502 -0.25738222369E+02  0.12666463157E+02  0.36855910352E+02  0.46703891781E+02  0.00000000000E+00 0.  1.
<scales pt_clust_5="13000.00000" pt_clust_6="13000.00000" pt_clust_7="13000.00000" pt_clust_8="13000.00000" pt_clust_9="28.68617"></scales>
<clustering>
<clus scale="   28.686">  2  9  1 -1</clus>
<clus scale="   78.416">  5  6 -1 -1</clus>
<clus scale="   90.695">  7  8 -1 -1</clus>
<clus scale="   94.657">  1  5  2 -1</clus>
<clus scale="   28.686">  2  5  1 -1</clus>
</clustering>
</event>
<event>
 9    1  0.9171696E-005  0.1058773E+03  0.7546771E-02  0.1273096E+00
         21   -1    0    0  501  502  0.00000000000E+00  0.00000000000E+00  0.31378117312E+03  0.31378117312E+03  0.00000000000E+00 0.  1.
         -4   -1    0    0    0  501 -0.00000000000E+00 -0.00000000000E+00 -0.62956853288E+02  0.62956853288E+02  0.00000000000E+00 0.  1.
        -24    2    1    2    0    0 -0.36748160961E+02 -0.21689914424E+02  0.74157741477E+02  0.11716355000E+03  0.80044032294E+02 0.  0.
         23    2    1    2    0    0  0.74317297240E+02 -0.25943434831E+02  0.76693086143E+02  0.14263399964E+03  0.90920327269E+02 0.  0.
         11    1    3    3    0    0 -0.37602537467E+02 -0.18726828398E+02 -0.92465358378E+00  0.42017852278E+02  0.00000000000E+00 0. -1.
        -12    1    3    3    0    0  0.85437650604E+00 -0.29630860257E+01  0.75082395061E+02  0.75145697722E+02  0.00000000000E+00 0.  1.
        -13    1    4    4    0    0  0.33039617919E+02 -0.16058820005E+02  0.90765151098E+02  0.97917387148E+02  0.00000000000E+00 0. -1.
         13    1    4    4    0    0  0.41277679321E+02 -0.98846148254E+01 -0.14072064955E+02  0.44716612489E+02  0.00000000000E+00 0.  1.
         -3    1    1    2    0  502 -0.37569136278E+02  0.47633349254E+02  0.99973492208E+02  0.11694047677E+03  0.00000000000E+00 0.  1.
<scales pt_clust_5="13000.00000" pt_clust_6="13000.00000" pt_clust_7="13000.00000" pt_clust_8="13000.00000" pt_clust_9="60.66610"></scales>
<clustering>
<clus scale="   60.666">  1  9  2 -1</clus>
<clus scale="   80.044">  5  6 -1 -1</clus>
<clus scale="   90.920">  7  8 -1 -1</clus>
<clus scale="   96.698">  2  5  1 -1</clus>
<clus scale="   60.666">  1  5  2 -1</clus>
</clustering>
</event>
<event>
 9    1  0.1592012E-004  0.1095635E+03  0.7546771E-02  0.1266286E+00
          1   -1    0    0  502    0 -0.00000000000E+00  0.00000000000E+00  0.55279394255E+03  0.55279394255E+03  0.00000000000E+00 0. -1.
         21   -1    0    0  501  502  0.00000000000E+00 -0.00000000000E+00 -0.33133131506E+03  0.33133131506E+03  0.00000000000E+00 0. -1.
         23    2    1    2    0    0 -0.38193855121E+02 -0.46053643151E+02  0.53112569982E+03  0.54237910933E+03  0.92200220237E+02 0.  0.
        -24    2    1    2    0    0  0.52754764792E+02 -0.28740211292E+00 -0.21213090115E+03  0.23278727080E+03  0.80045277286E+02 0.  0.
         11    1    4    4    0    0  0.73697499628E+02 -0.65994325537E+01 -0.16414837672E+03  0.18005433497E+03  0.00000000000E+00 0. -1.
        -12    1    4    4    0    0 -0.20942734836E+02  0.63120304407E+01 -0.47982524429E+02  0.52732935830E+02  0.00000000000E+00 0.  1.
        -11    1    3    3    0    0 -0.53534300648E+02  0.64347281252E+01  0.22202650467E+03  0.22847996815E+03  0.00000000000E+00 0.  1.
         11    1    3    3    0    0  0.15340445527E+02 -0.52488371277E+02  0.30909919515E+03  0.31389914118E+03  0.00000000000E+00 0. -1.
          2    1    1    2  501    0 -0.14560909671E+02  0.46341045264E+02 -0.97532171182E+02  0.10895887748E+03  0.00000000000E+00 0. -1.
<scales pt_clust_5="13000.00000" pt_clust_6="13000.00000" pt_clust_7="13000.00000" pt_clust_8="13000.00000" pt_clust_9="48.57481"></scales>
<clustering>
<clus scale="   48.575">  2  9  1 -1</clus>
<clus scale="   80.045">  5  6 -1 -1</clus>
<clus scale="   92.200">  7  8 -1 -1</clus>
<clus scale="   99.552">  2  5  1 -1</clus>
<clus scale="   48.575">  2  5  1 -1</clus>
</clustering>
</event>
<event>
 9    1  0.9171696E-005  0.9433744E+02  0.7546771E-02  0.1297947E+00
          1   -1    0    0  502    0 -0.00000000000E+00  0.00000000000E+00  0.15476506330E+03  0.15476506330E+03  0.00000000000E+00 0. -1.
         21   -1    0    0  501  502  0.00000000000E+00 -0.00000000000E+00 -0.14745017915E+03  0.14745017915E+03  0.00000000000E+00 0. -1.
         23    2    1    2    0    0 -0.21080952678E+01 -0.12016026558E+02  0.74753615526E+02  0.11935759797E+03  0.92245889875E+02 0.  0.
        -24    2    1    2    0    0 -0.49252206336E+02  0.43197657211E+02 -0.61506150889E+02  0.12248074341E+03  0.83226849590E+02 0.  0.
         11    1    4    4    0    0 -0.34398593908E+02  0.50840960867E+02 -0.28046119011E+01  0.61448616035E+02  0.00000000000E+00 0. -1.
        -12    1    4    4    0    0 -0.14853612428E+02 -0.76433036556E+01 -0.58701538988E+02  0.61032127379E+02  0.00000000000E+00 0.  1.
        -11    1    3    3    0    0 -0.44100400200E+02 -0.22609823405E+02  0.43610674978E+02  0.66014698244E+02  0.00000000000E+00 0.  1.
         11    1    3    3    0    0  0.41992304932E+02  0.10593796847E+02  0.31142940547E+02  0.53342899725E+02  0.00000000000E+00 0. -1.
          2    1    1    2  501    0  0.51360301604E+02 -0.31181630653E+02 -0.59325804791E+01  0.60376901065E+02  0.00000000000E+00 0. -1.
<scales pt_clust_5="13000.00000" pt_clust_6="13000.00000" pt_clust_7="13000.00000" pt_clust_8="13000.00000" pt_clust_9="60.08473"></scales>
<clustering>
<clus scale="   60.085">  2  9  1 -1</clus>
<clus scale="   83.227">  5  6 -1 -1</clus>
<clus scale="   85.539">  2  5  1 -1</clus>
<clus scale="   92.246">  7  8 -1 -1</clus>
<clus scale="   60.085">  2  5  1 -1</clus>
</clustering>
</event>
<event>
 9    1  0.9171696E-005  0.1028748E+03  0.7546771E-02  0.1277298E+00
          1   -1    0    0  502    0 -0.00000000000E+00  0.00000000000E+00  0.39591483674E+03  0.39591483674E+03  0.00000000000E+00 0. -1.
         21   -1    0    0  501  502  0.00000000000E+00 -0.00000000000E+00 -0.55085802392E+02  0.55085802392E+02  0.00000000000E+00 0.  1.
        -24    2    1    2    0    0  0.10975718526E+02  0.59424635566E+02  0.27943205727E+03  0.29693605626E+03  0.80230874171E+02 0.  0.
         23    2    1    2    0    0 -0.64675772315E+01 -0.28026470069E+02  0.79836504248E+01  0.91942512727E+02  0.86961913460E+02 0.  0.
         13    1    3    3    0    0  0.40076098335E+02  0.13441480424E+02  0.83530375441E+02  0.93616722198E+02  0.00000000000E+00 0. -1.
        -14    1    3    3    0    0 -0.29100379808E+02  0.45983155142E+02  0.19590168183E+03  0.20331933407E+03  0.00000000000E+00 0.  1.
        -13    1    4    4    0    0 -0.31945606239E+02  0.90657038136E+01 -0.20178376894E+02  0.38857118237E+02  0.00000000000E+00 0.  1.
         13    1    4    4    0    0  0.25478029008E+02 -0.37092173882E+02  0.28162027319E+02  0.53085394490E+02  0.00000000000E+00 0. -1.
          2    1    1    2  501    0 -0.45081412949E+01 -0.31398165497E+02  0.53413326650E+02  0.62122070139E+02  0.00000000000E+00 0. -1.
<scales pt_clust_5="13000.00000" pt_clust_6="13000.00000" pt_clust_7="13000.00000" pt_clust_8="13000.00000" pt_clust_9="31.72017"></scales>
<clustering>
<clus scale="   31.720">  2  9  1 -1</clus>
<clus scale="   80.231">  5  6 -1 -1</clus>
<clus scale="   86.962">  7  8 -1 -1</clus>
<clus scale="   97.251">  1  5  2 -1</clus>
<clus scale="   31.720">  2  5  1 -1</clus>
</clustering>
</event>
<event>
 9    1  0.9171696E-005  0.3178558E+03  0.7546771E-02  0.1118562E+00
          1   -1    0    0  502    0 -0.00000000000E+00  0.00000000000E+00  0.60561845956E+03  0.60561845956E+03  0.00000000000E+00 0. -1.
         21   -1    0    0  501  502  0.00000000000E+00 -0.00000000000E+00 -0.30162657683E+03  0.30162657683E+03  0.00000000000E+00 0.  1.
        -24    2    1    2    0    0  0.45311951154E+02 -0.42720963979E+02 -0.64655969585E+02  0.12463056461E+03  0.86453048249E+02 0.  0.
         23    2    1    2    0    0 -0.94625530405E+02  0.30389089585E+03  0.60318045701E+01  0.33302359055E+03  0.97799087987E+02 0.  0.
         13    1    3    3    0    0  0.24697719940E+02  0.12623675647E+02  0.99592322670E+01  0.29470678045E+02  0.00000000000E+00 0. -1.
        -14    1    3    3    0    0  0.20614231214E+02 -0.55344639626E+02 -0.74615201852E+02  0.95159886566E+02  0.00000000000E+00 0.  1.
        -13    1    4    4    0    0 -0.47580123339E+02  0.73145110724E+02 -0.34938271109E+02  0.93993394172E+02  0.00000000000E+00 0. -1.
         13    1    4    4    0    0 -0.47045407066E+02  0.23074578512E+03  0.40970075679E+02  0.23903019638E+03  0.00000000000E+00 0.  1.
          2    1    1    2  501    0  0.49313579250E+02 -0.26116993187E+03  0.36261604775E+03  0.44959088124E+03  0.00000000000E+00 0. -1.
<scales pt_clust_5="13000.00000" pt_clust_6="13000.00000" pt_clust_7="13000.00000" pt_clust_8="13000.00000" pt_clust_9="302.43635"></scales>
<clustering>
<clus scale="   86.453">  5  6 -1 -1</clus>
<clus scale="   97.799">  7  8 -1 -1</clus>
<clus scale="  106.548">  1  5  2 -1</clus>
<clus scale="  302.436">  2  9  1 -1</clus>
<clus scale="  302.436">  2  5  1 -1</clus>
</clustering>
</event>
<event>
 9    1  0.9171696E-005  0.1671663E+03  0.7546771E-02  0.1182039E+00
          3   -1    0    0  502    0 -0.00000000000E+00  0.00000000000E+00  0.34093965224E+03  0.34093965224E+03  0.00000000000E+00 0. -1.
         21   -1    0    0  501  502  0.00000000000E+00 -0.00000000000E+00 -0.14144866255E+03  0.14144866255E+03  0.00000000000E+00 0.  1.
        -24    2    1    2    0    0 -0.12483152854E+03 -0.67918757268E+02  0.20164613819E+03  0.25985736465E+03  0.81662823907E+02 0.  0.
         23    2    1    2    0    0  0.94837110145E+02  0.10667709954E+03 -0.20728728004E+02  0.17012053050E+03  0.90206616761E+02 0.  0.
         13    1    3    3    0    0 -0.40977503168E+02 -0.68468004479E+02  0.10557137105E+03  0.13233418979E+03  0.00000000000E+00 0. -1.
        -14    1    3    3    0    0 -0.83854025376E+02  0.54924721123E+00  0.96074767145E+02  0.12752317486E+03  0.00000000000E+00 0.  1.
        -11    1    4    4    0    0  0.28411358337E+02  0.70927133555E+02 -0.47625768119E+02  0.90033756702E+02  0.00000000000E+00 0.  1.
         11    1    4    4    0    0  0.66425751808E+02  0.35749965985E+02  0.26897040115E+02  0.80086773803E+02  0.00000000000E+00 0. -1.
          4    1    1    2  501    0  0.29994418399E+02 -0.38758342272E+02  0.18573579501E+02  0.52410419634E+02  0.00000000000E+00 0. -1.
<scales pt_clust_5="13000.00000" pt_clust_6="13000.00000" pt_clust_7="13000.00000" pt_clust_8="13000.00000" pt_clust_9="49.00892"></scales>
<clustering>
<clus scale="   49.009">  2  9  1 -1</clus>
<clus scale="   81.663">  5  6 -1 -1</clus>
<clus scale="   90.207">  7  8 -1 -1</clus>
<clus scale="  162.715">  1  5  2 -1</clus>
<clus scale="   49.009">  2  5  1 -1</clus>
</clustering>
</event>
<event>
 9    1  0.9171696E-005  0.1064386E+03  0.7546771E-02  0.1273055E+00
         21   -1    0    0  501  502  0.00000000000E+00  0.00000000000E+00  0.28036034280E+03  0.28036034280E+03  0.00000000000E+00 0.  1.
         -4   -1    0    0    0  501 -0.00000000000E+00 -0.00000000000E+00 -0.69566296483E+02  0.69566296483E+02  0.00000000000E+00 0.  1.
         23    2    1    2    0    0 -0.30776467221E+02  0.49575726018E+02  0.65757935764E+02  0.12835236503E+03  0.93516201523E+02 0.  0.
        -24    2    1    2    0    0  0.31453380134E+02 -0.23316251806E+02  0.16556364697E+03  0.18823663864E+03  0.80552766616E+02 0.  0.
         13    1    4    4    0    0  0.49750002497E+02  0.29275344786E+01  0.60353387894E+02  0.78269819451E+02  0.00000000000E+00 0. -1.
        -14    1    4    4    0    0 -0.18296622362E+02 -0.26243786285E+02  0.10521025908E+03  0.10996681919E+03  0.00000000000E+00 0.  1.
        -11    1    3    3    0    0  0.10846961680E+02 -0.23037856443E+02  0.81137234984E+01  0.26725117702E+02  0.00000000000E+00 0. -1.
         11    1    3    3    0    0 -0.41623428902E+02  0.72613582461E+02  0.57644212266E+02  0.10162724733E+03  0.00000000000E+00 0.  1.
         -3    1    1    2    0  502 -0.67691291309E+00 -0.26259474212E+02 -0.20527536417E+02  0.33337635614E+02  0.00000000000E+00 0.  1.
<scales pt_clust_5="13000.00000" pt_clust_6="13000.00000" pt_clust_7="13000.00000" pt_clust_8="13000.00000" pt_clust_9="26.26821"></scales>
<clustering>
<clus scale="   26.268">  1  9  2 -1</clus>
<clus scale="   80.553">  5  6 -1 -1</clus>
<clus scale="   93.516">  7  8 -1 -1</clus>
<clus scale="   95.250">  1  5  2 -1</clus>
<clus scale="   26.268">  1  5  2 -1</clus>
</clustering>
</event>
<event>
 9    1  0.9171696E-005  0.1250233E+03  0.7546771E-02  0.1238482E+00
          1   -1    0    0  502    0 -0.00000000000E+00  0.00000000000E+00  0.24477410917E+03  0.24477410917E+03  0.00000000000E+00 0. -1.
         21   -1    0    0  501  502  0.00000000000E+00 -0.00000000000E+00 -0.13453825054E+03  0.13453825054E+03  0.00000000000E+00 0. -1.
        -24    2    1    2    0    0  0.56209533467E+02  0.42889246320E+02 -0.76095597120E+01  0.10750579314E+03  0.80626242985E+02 0.  0.
         23    2    1    2    0    0 -0.17416435535E+02 -0.11070059288E+03  0.20109527443E+02  0.14668427623E+03  0.92487460272E+02 0.  0.
         11    1    3    3    0    0  0.57625601945E+02  0.31673033145E+02  0.27009693084E+02  0.71087372638E+02  0.00000000000E+00 0. -1.
        -12    1    3    3    0    0 -0.14160684777E+01  0.11216213175E+02 -0.34619252796E+02  0.36418420505E+02  0.00000000000E+00 0.  1.
        -13    1    4    4    0    0 -0.25536782763E+02  0.56921509426E+01  0.14410392709E+02  0.29869504085E+02  0.00000000000E+00 0.  1.
         13    1    4    4    0    0  0.81203472283E+01 -0.11639274383E+03  0.56991347334E+01  0.11681477215E+03  0.00000000000E+00 0. -1.
          2    1    1    2  501    0 -0.38793097932E+02  0.67811346565E+02  0.97735890894E+02  0.12512229034E+03  0.00000000000E+00 0. -1.
<scales pt_clust_5="13000.00000" pt_clust_6="13000.00000" pt_clust_7="13000.00000" pt_clust_8="13000.00000" pt_clust_9="78.12355"></scales>
<clustering>
<clus scale="   78.124">  2  9  1 -1</clus>
<clus scale="   80.626">  5  6 -1 -1</clus>
<clus scale="   92.487">  7  8 -1 -1</clus>
<clus scale="  116.522">  1  5  2 -1</clus>
<clus scale="   78.124">  2  5  1 -1</clus>
</clustering>
</event>
<event>
 9    1  0.9171696E-005  0.1131401E+03  0.7546771E-02  0.1279146E+00
         21   -1    0    0  501  502  0.00000000000E+00  0.00000000000E+00  0.16411553091E+03  0.16411553091E+03  0.00000000000E+00 0. -1.
          1   -1    0    0  502    0 -0.00000000000E+00 -0.00000000000E+00 -0.99214999722E+02  0.99214999722E+02  0.00000000000E+00 0. -1.
        -24    2    1    2    0    0  0.14529912669E+02 -0.14170360908E+02  0.22910087121E+02  0.74201858271E+02  0.67595311883E+02 0.  0.
         23    2    1    2    0    0  0.22631738423E+02 -0.53110750546E+02  0.12362504915E+02  0.10675421607E+03  0.88942024456E+02 0.  0.
         13    1    3    3    0    0  0.26376924425E+02  0.12878620813E+02 -0.90223961403E+01  0.30708380750E+02  0.00000000000E+00 0. -1.
        -14    1    3    3    0    0 -0.11847011756E+02 -0.27048981721E+02  0.31932483261E+02  0.43493477521E+02  0.00000000000E+00 0.  1.
        -13    1    4    4    0    0  0.35064913516E+02 -0.88462273861E+01 -0.27872008325E+02  0.45657997623E+02  0.00000000000E+00 0.  1.
         13    1    4    4    0    0 -0.12433175093E+02 -0.44264523160E+02  0.40234513240E+02  0.61096218452E+02  0.00000000000E+00 0. -1.
          2    1    1    2  501    0 -0.37161651092E+02  0.67281111454E+02  0.29627939155E+02  0.82374456290E+02  0.00000000000E+00 0. -1.
<scales pt_clust_5="13000.00000" pt_clust_6="13000.00000" pt_clust_7="13000.00000" pt_clust_8="13000.00000" pt_clust_9="69.92846"></scales>
<clustering>
<clus scale="   67.595">  5  6 -1 -1</clus>
<clus scale="   70.577">  2  5  1 -1</clus>
<clus scale="   69.928">  1  9  2 -1</clus>
<clus scale="   88.942">  7  8 -1 -1</clus>
<clus scale="   69.928">  1  5  2 -1</clus>
</clustering>
</event>
<event>
 9    1  0.9171696E-005  0.1896855E+03  0.7546771E-02  0.1160218E+00
         -2   -1    0    0    0  501 -0.00000000000E+00  0.00000000000E+00  0.51877329918E+03  0.51877329918E+03  0.00000000000E+00 0.  1.
         21   -1    0    0  501  502  0.00000000000E+00 -0.00000000000E+00 -0.89783610637E+02  0.89783610637E+02  0.00000000000E+00 0.  1.
         23    2    1    2    0    0  0.11328945335E+03  0.99297806131E+02  0.21114014685E+03  0.27587392050E+03  0.93977145388E+02 0.  0.
        -24    2    1    2    0    0 -0.13573622345E+03 -0.12992105022E+03  0.14504403994E+03  0.25057159150E+03  0.80277937803E+02 0.  0.
         11    1    4    4    0    0 -0.33733584676E+02 -0.79903134461E+02  0.87581679615E+02  0.12325995390E+03  0.00000000000E+00 0. -1.
        -12    1    4    4    0    0 -0.10200263878E+03 -0.50017915760E+02  0.57462360330E+02  0.12731163760E+03  0.00000000000E+00 0.  1.
        -11    1    3    3    0    0  0.10926853250E+03  0.78988218865E+02  0.11403547242E+03  0.17658663563E+03  0.00000000000E+00 0.  1.
         11    1    3    3    0    0  0.40209208499E+01  0.20309587267E+02  0.97104674429E+02  0.99287284862E+02  0.00000000000E+00 0. -1.
         -1    1    1    2    0  502  0.22446770102E+02  0.30623244090E+02  0.72805501747E+02  0.82111397815E+02  0.00000000000E+00 0.  1.
<scales pt_clust_5="13000.00000" pt_clust_6="13000.00000" pt_clust_7="13000.00000" pt_clust_8="13000.00000" pt_clust_9="37.96896"></scales>
<clustering>
<clus scale="   37.969">  2  9  1 -1</clus>
<clus scale="   80.278">  5  6 -1 -1</clus>
<clus scale="   93.977">  7  8 -1 -1</clus>
<clus scale="  183.285">  2  5  1 -1</clus>
<clus scale="   37.969">  2  5  1 -1</clus>
</clustering>
</event>
<event>
 9    1  0.9171696E-005  0.9103744E+02  0.7546771E-02  0.1305072E+00
          1   -1    0    0  502    0 -0.00000000000E+00  0.00000000000E+00  0.59215596678E+02  0.59215596678E+02  0.00000000000E+00 0. -1.
         21   -1    0    0  501  502  0.00000000000E+00 -0.00000000000E+00 -0.27270967296E+03  0.27270967296E+03  0.00000000000E+00 0.  1.
         23    2    1    2    0    0  0.14786225500E+02 -0.70690762824E+01 -0.33671534159E+02  0.93882077707E+02  0.86089883250E+02 0.  0.
        -24    2    1    2    0    0 -0.57455428597E+02  0.28874076717E+02 -0.15217954178E+03  0.18272362573E+03  0.78067098591E+02 0.  0.
         11    1    4    4    0    0 -0.42006168275E+02  0.27532681918E+02 -0.27848325863E+02  0.57429051882E+02  0.00000000000E+00 0. -1.
        -12    1    4    4    0    0 -0.15449260322E+02  0.13413947981E+01 -0.12433121592E+03  0.12529457385E+03  0.00000000000E+00 0.  1.
        -13    1    3    3    0    0 -0.25647055585E+02 -0.27617742798E+02 -0.50361706171E+00  0.37693033940E+02  0.00000000000E+00 0.  1.
         13    1    3    3    0    0  0.40433281085E+02  0.20548666516E+02 -0.33167917097E+02  0.56189043767E+02  0.00000000000E+00 0. -1.
          2    1    1    2  501    0  0.42669203097E+02 -0.21805000434E+02 -0.27643000349E+02  0.55319566205E+02  0.00000000000E+00 0. -1.
<scales pt_clust_5="13000.00000" pt_clust_6="13000.00000" pt_clust_7="13000.00000" pt_clust_8="13000.00000" pt_clust_9="47.91786"></scales>
<clustering>
<clus scale="   47.918">  2  9  1 -1</clus>
<clus scale="   78.067">  5  6 -1 -1</clus>
<clus scale="   83.491">  2  5  1 -1</clus>
<clus scale="   86.090">  7  8 -1 -1</clus>
<clus scale="   47.918">  2  5  1 -1</clus>
</clustering>
</event>
<event>
 9    1  0.9171696E-005  0.1796158E+03  0.7546771E-02  0.1169475E+00
         21   -1    0    0  501  502  0.00000000000E+00  0.00000000000E+00  0.19548453151E+03  0.19548453151E+03  0.00000000000E+00 0.  1.
         -4   -1    0    0    0  501 -0.00000000000E+00 -0.00000000000E+00 -0.27718620372E+03  0.27718620372E+03  0.00000000000E+00 0.  1.
         23    2    1    2    0    0 -0.49865999390E+01  0.17700513993E+03 -0.28313933372E+02  0.20043995933E+03  0.89547823706E+02 0.  0.
        -24    2    1    2    0    0  0.69934217565E+02 -0.12447240717E+03  0.15936452368E+02  0.16367791074E+03  0.78436681589E+02 0.  0.
         11    1    4    4    0    0  0.65106897918E+02 -0.56392379072E+02 -0.17158803346E+02  0.87826152746E+02  0.00000000000E+00 0. -1.
        -12    1    4    4    0    0  0.48273196471E+01 -0.68080028097E+02  0.33095255714E+02  0.75851757999E+02  0.00000000000E+00 0.  1.
        -13    1    3    3    0    0 -0.42366626171E+02  0.49019902140E+02 -0.40466542871E+01  0.64917310710E+02  0.00000000000E+00 0. -1.
         13    1    3    3    0    0  0.37380026232E+02  0.12798523779E+03 -0.24267279085E+02  0.13552264862E+03  0.00000000000E+00 0.  1.
         -3    1    1    2    0  502 -0.64947617626E+02 -0.52532732764E+02 -0.69324191204E+02  0.10855286515E+03  0.00000000000E+00 0.  1.
<scales pt_clust_5="13000.00000" pt_clust_6="13000.00000" pt_clust_7="13000.00000" pt_clust_8="13000.00000" pt_clust_9="83.53375"></scales>
<clustering>
<clus scale="   78.437">  5  6 -1 -1</clus>
<clus scale="   83.534">  1  9  2 -1</clus>
<clus scale="   89.548">  7  8 -1 -1</clus>
<clus scale="  174.343">  1  5  2 -1</clus>
<clus scale="   83.534">  1  5  2 -1</clus>
</clustering>
</event>
<event>
 9    1  0.9171696E-005  0.3497124E+03  0.7546771E-02  0.1062841E+00
          3   -1    0    0  502    0 -0.00000000000E+00  0.00000000000E+00  0.61438141019E+03  0.61438141019E+03  0.00000000000E+00 0. -1.
         21   -1    0    0  501  502  0.00000000000E+00 -0.00000000000E+00 -0.47042910846E+03  0.47042910846E+03  0.00000000000E+00 0. -1.
        -24    2    1    2    0    0 -0.29019200918E+03 -0.64736996894E+02 -0.20841850567E+02  0.30882368296E+03  0.80841842248E+02 0.  0.
         23    2    1    2    0    0  0.35429135275E+03  0.23501314592E+03 -0.10913971744E+03  0.44713663004E+03  0.85241695264E+02 0.  0.
         11    1    3    3    0    0 -0.26766187769E+03 -0.76189915379E+02 -0.37624015880E+01  0.27831985132E+03  0.00000000000E+00 0. -1.
        -12    1    3    3    0    0 -0.22530131496E+02  0.11452918485E+02 -0.17079448979E+02  0.30503831636E+02  0.00000000000E+00 0.  1.
        -11    1    4    4    0    0  0.28652550193E+03  0.18940921337E+03 -0.51841595399E+02  0.34736186374E+03  0.00000000000E+00 0. -1.
         11    1    4    4    0    0  0.67765850815E+02  0.45603932552E+02 -0.57298122036E+02  0.99774766298E+02  0.00000000000E+00 0.  1.
          4    1    1    2  501    0 -0.64099343564E+02 -0.17027614903E+03  0.27393386973E+03  0.32885020565E+03  0.00000000000E+00 0. -1.
<scales pt_clust_5="13000.00000" pt_clust_6="13000.00000" pt_clust_7="13000.00000" pt_clust_8="13000.00000" pt_clust_9="181.94155"></scales>
<clustering>
<clus scale="   80.842">  5  6 -1 -1</clus>
<clus scale="   85.242">  7  8 -1 -1</clus>
<clus scale="  181.942">  2  9  1 -1</clus>
<clus scale="  348.666">  1  5  2 -1</clus>
<clus scale="  181.942">  2  5  1 -1</clus>
</clustering>
</event>
<event>
 9    1  0.9171696E-005  0.1071607E+03  0.7546771E-02  0.1271733E+00
          1   -1    0    0  502    0 -0.00000000000E+00  0.00000000000E+00  0.69690843858E+03  0.69690843858E+03  0.00000000000E+00 0. -1.
         21   -1    0    0  501  502  0.00000000000E+00 -0.00000000000E+00 -0.25871749896E+02  0.25871749896E+02  0.00000000000E+00 0. -1.
        -24    2    1    2    0    0 -0.34678769194E+02 -0.44461752943E+02  0.49399737949E+03  0.50354477453E+03  0.79652146875E+02 0.  0.
         23    2    1    2    0    0  0.14746021566E+02  0.38711714956E+02  0.11405427679E+03  0.15292182807E+03  0.93062696179E+02 0.  0.
         11    1    3    3    0    0 -0.43951429936E+02  0.76625472350E+01  0.23250783001E+03  0.23674951708E+03  0.00000000000E+00 0. -1.
        -12    1    3    3    0    0  0.92726607419E+01 -0.52124300178E+02  0.26148954949E+03  0.26679525745E+03  0.00000000000E+00 0.  1.
        -13    1    4    4    0    0 -0.27878117616E+02  0.50129644099E+02  0.57872501274E+02  0.81482495440E+02  0.00000000000E+00 0.  1.
         13    1    4    4    0    0  0.42624139183E+02 -0.11417929142E+02  0.56181775512E+02  0.71439332630E+02  0.00000000000E+00 0. -1.
          2    1    1    2  501    0  0.19932747627E+02  0.57500379870E+01  0.62985032404E+02  0.66313585876E+02  0.00000000000E+00 0. -1.
<scales pt_clust_5="13000.00000" pt_clust_6="13000.00000" pt_clust_7="13000.00000" pt_clust_8="13000.00000" pt_clust_9="20.74555"></scales>
<clustering>
<clus scale="   20.746">  2  9  1 -1</clus>
<clus scale="   79.652">  5  6 -1 -1</clus>
<clus scale="   93.063">  7  8 -1 -1</clus>
<clus scale="   95.746">  1  5  2 -1</clus>
<clus scale="   20.746">  2  5  1 -1</clus>
</clustering>
</event>
<event>
 9    1  0.9171696E-005  0.9821365E+02  0.7546771E-02  0.1288492E+00
         21   -1    0    0  501  502  0.00000000000E+00  0.00000000000E+00  0.22143654818E+03  0.22143654818E+03  0.00000000000E+00 0.  1.
          1   -1    0    0  502    0 -0.00000000000E+00 -0.00000000000E+00 -0.89945915836E+02  0.89945915836E+02  0.00000000000E+00 0. -1.
        -24    2    1    2    0    0  0.30785369648E+02  0.37149351472E+02  0.30469800074E+02  0.97979302073E+02  0.79647483444E+02 0.  0.
         23    2    1    2    0    0  0.45639263087E+01 -0.39097825807E+02  0.13381811362E+03  0.16514312732E+03  0.88405291479E+02 0.  0.
         11    1    3    3    0    0 -0.27193065770E+02  0.13950168362E+02  0.77786047005E+01  0.31536910349E+02  0.00000000000E+00 0. -1.
        -12    1    3    3    0    0  0.57978435418E+02  0.23199183110E+02  0.22691195374E+02  0.66442391723E+02  0.00000000000E+00 0.  1.
        -13    1    4    4    0    0  0.14357874572E+02 -0.64929997296E+02  0.11061734976E+03  0.12906684771E+03  0.00000000000E+00 0.  1.
         13    1    4    4    0    0 -0.97939482632E+01  0.25832171489E+02  0.23200763866E+02  0.36076279608E+02  0.00000000000E+00 0. -1.
          2    1    1    2  501    0 -0.35349295956E+02  0.19484743350E+01 -0.32797281358E+02  0.48260034618E+02  0.00000000000E+00 0. -1.
<scales pt_clust_5="13000.00000" pt_clust_6="13000.00000" pt_clust_7="13000.00000" pt_clust_8="13000.00000" pt_clust_9="35.40297"></scales>
<clustering>
<clus scale="   35.403">  1  9  2 -1</clus>
<clus scale="   79.647">  5  6 -1 -1</clus>
<clus scale="   88.405">  7  8 -1 -1</clus>
<clus scale="   90.411">  2  5  1 -1</clus>
<clus scale="   35.403">  1  5  2 -1</clus>
</clustering>
</event>
<event>
 9    1  0.9171696E-005  0.9261349E+02  0.7546771E-02  0.1303407E+00
         21   -1    0    0  501  502  0.00000000000E+00  0.00000000000E+00  0.28888711685E+03  0.28888711685E+03  0.00000000000E+00 0. -1.
          3   -1    0    0  502    0 -0.00000000000E+00 -0.00000000000E+00 -0.56694900117E+02  0.56694900117E+02  0.00000000000E+00 0. -1.
         23    2    1    2    0    0  0.69001648392E+01  0.18806384135E+02  0.21166432654E+02  0.96557185242E+02  0.92054222019E+02 0.  0.
        -24    2    1    2    0    0 -0.20743655949E+01  0.70294690257E+01  0.75792659081E+02  0.11126134693E+03  0.81122399633E+02 0.  0.
         13    1    4    4    0    0 -0.26325681846E+02  0.50192072850E+01  0.81899017559E+02  0.86172403028E+02  0.00000000000E+00 0. -1.
        -14    1    4    4    0    0  0.24251316251E+02  0.20102617407E+01 -0.61063584781E+01  0.25088943900E+02  0.00000000000E+00 0.  1.
        -11    1    3    3    0    0  0.42662862226E+02 -0.12681254066E+02  0.20253549753E+02  0.48899287271E+02  0.00000000000E+00 0.  1.
         11    1    3    3    0    0 -0.35762697387E+02  0.31487638200E+02  0.91288290082E+00  0.47657897971E+02  0.00000000000E+00 0. -1.
          4    1    1    2  501    0 -0.48257992443E+01 -0.25835853160E+02  0.13523312500E+03  0.13776348480E+03  0.00000000000E+00 0. -1.
<scales pt_clust_5="13000.00000" pt_clust_6="13000.00000" pt_clust_7="13000.00000" pt_clust_8="13000.00000" pt_clust_9="26.28269"></scales>
<clustering>
<clus scale="   26.283">  1  9  2 -1</clus>
<clus scale="   81.122">  5  6 -1 -1</clus>
<clus scale="   81.756">  1  5  2 -1</clus>
<clus scale="   92.054">  7  8 -1 -1</clus>
<clus scale="   26.283">  1  5  2 -1</clus>
</clustering>
</event>
<event>
 9    1  0.9171696E-005  0.1009776E+03  0.7546771E-02  0.1282822E+00
         -2   -1    0    0    0  501 -0.00000000000E+00  0.00000000000E+00  0.63597462405E+03  0.63597462405E+03  0.00000000000E+00 0.  1.
         21   -1    0    0  501  502  0.00000000000E+00 -0.00000000000E+00 -0.49903301217E+02  0.49903301217E+02  0.00000000000E+00 0.  1.
        -24    2    1    2    0    0 -0.14366797087E+02 -0.45359886039E+01  0.57419221071E+02  0.10151408543E+03  0.82347814430E+02 0.  0.
         23    2    1    2    0    0  0.71197555632E+02 -0.28659399512E+02  0.11633798268E+03  0.16682988708E+03  0.91690958665E+02 0.  0.
         11    1    3    3    0    0 -0.17893614428E+02 -0.32673277573E+02 -0.24656475326E+00  0.37252990469E+02  0.00000000000E+00 0. -1.
        -12    1    3    3    0    0  0.35268173409E+01  0.28137288969E+02  0.57665785824E+02  0.64261094963E+02  0.00000000000E+00 0.  1.
        -11    1    4    4    0    0  0.28696185521E+02  0.33308539267E+02  0.50158834623E+02  0.66699614258E+02  0.00000000000E+00 0. -1.
         11    1    4    4    0    0  0.42501370111E+02 -0.61967938779E+02  0.66179148057E+02  0.10013027282E+03  0.00000000000E+00 0.  1.
         -1    1    1    2    0  502 -0.56830758545E+02  0.33195388116E+02  0.41231411909E+03  0.41753395276E+03  0.00000000000E+00 0.  1.
<scales pt_clust_5="13000.00000" pt_clust_6="13000.00000" pt_clust_7="13000.00000" pt_clust_8="13000.00000" pt_clust_9="65.81545"></scales>
<clustering>
<clus scale="   65.815">  2  9  1 -1</clus>
<clus scale="   82.348">  5  6 -1 -1</clus>
<clus scale="   91.691">  7  8 -1 -1</clus>
<clus scale="   92.576">  1  5  2 -1</clus>
<clus scale="   65.815">  2  5  1 -1</clus>
</clustering>
</event>
<event>
 9    1  0.9171696E-005  0.9656595E+02  0.7546771E-02  0.1291830E+00
         21   -1    0    0  501  502  0.00000000000E+00  0.00000000000E+00  0.20580206667E+03  0.20580206667E+03  0.00000000000E+00 0. -1.
          1   -1    0    0  502    0 -0.00000000000E+00 -0.00000000000E+00 -0.56941133493E+03  0.56941133493E+03  0.00000000000E+00 0. -1.
         23    2    1    2    0    0  0.33800618999E+02 -0.16144240878E+02 -0.10930926219E+03  0.14545618466E+03  0.88350826234E+02 0.  0.
        -24    2    1    2    0    0 -0.23266275163E+02  0.70377067066E+02  0.16985725191E+03  0.20201716583E+03  0.80406455796E+02 0.  0.
         11    1    4    4    0    0 -0.37668528877E+02  0.81399944542E+02  0.15245353871E+03  0.17688117623E+03  0.00000000000E+00 0. -1.
        -12    1    4    4    0    0  0.14402253713E+02 -0.11022877476E+02  0.17403713196E+02  0.25135989595E+02  0.00000000000E+00 0.  1.
        -13    1    3    3    0    0 -0.96079571444E+01  0.26173280478E+02 -0.63884037850E+02  0.69703111434E+02  0.00000000000E+00 0.  1.
         13    1    3    3    0    0  0.43408576143E+02 -0.42317521357E+02 -0.45425224342E+02  0.75753073225E+02  0.00000000000E+00 0. -1.
          2    1    1    2  501    0 -0.10534343835E+02 -0.54232826187E+02 -0.42415725797E+03  0.42774005111E+03  0.00000000000E+00 0. -1.
<scales pt_clust_5="13000.00000" pt_clust_6="13000.00000" pt_clust_7="13000.00000" pt_clust_8="13000.00000" pt_clust_9="55.24649"></scales>
<clustering>
<clus scale="   55.246">  1  9  2 -1</clus>
<clus scale="   80.406">  5  6 -1 -1</clus>
<clus scale="   88.351">  7  8 -1 -1</clus>
<clus scale="   89.355">  1  5  2 -1</clus>
<clus scale="   55.246">  1  5  2 -1</clus>
</clustering>
</event>
<event>
 9    1  0.9171696E-005  0.1160703E+03  0.7546771E-02  0.1253036E+00
          1   -1    0    0  502    0 -0.00000000000E+00  0.00000000000E+00  0.74213712979E+03  0.74213712979E+03  0.00000000000E+00 0. -1.
         21   -1    0    0  501  502  0.00000000000E+00 -0.00000000000E+00 -0.25572255979E+02  0.25572255979E+02  0.00000000000E+00 0. -1.
        -24    2    1    2    0    0 -0.85982728638E+02 -0.14215723647E+02  0.43636720520E+03  0.45238972467E+03  0.81516923336E+02 0.  0.
         23    2    1    2    0    0  0.48295975425E+02 -0.28387432627E+01  0.19622273625E+03  0.22170910895E+03  0.91164724883E+02 0.  0.
         13    1    3    3    0    0 -0.10560796245E+01 -0.32195210568E+02  0.10412068197E+03  0.10898973943E+03  0.00000000000E+00 0. -1.
        -14    1    3    3    0    0 -0.84926649013E+02  0.17979486921E+02  0.33224652323E+03  0.34339998524E+03  0.00000000000E+00 0.  1.
        -11    1    4    4    0    0  0.59945934923E+02  0.29726231476E+02  0.14740980070E+03  0.16188518553E+03  0.00000000000E+00 0.  1.
         11    1    4    4    0    0 -0.11649959498E+02 -0.32564974739E+02  0.48812935551E+02  0.59823923418E+02  0.00000000000E+00 0. -1.
          2    1    1    2  501    0  0.37686753212E+02  0.17054466910E+02  0.83974932367E+02  0.93610552158E+02  0.00000000000E+00 0. -1.
<scales pt_clust_5="13000.00000" pt_clust_6="13000.00000" pt_clust_7="13000.00000" pt_clust_8="13000.00000" pt_clust_9="41.36600"></scales>
<clustering>
<clus scale="   41.366">  2  9  1 -1</clus>
<clus scale="   81.517">  5  6 -1 -1</clus>
<clus scale="   91.165">  7  8 -1 -1</clus>
<clus scale="  108.657">  1  5  2 -1</clus>
<clus scale="   41.366">  2  5  1 -1</clus>
</clustering>
</event>
<event>
 9    1  0.9171696E-005  0.1374983E+03  0.7546771E-02  0.1222925E+00
         21   -1    0    0  501  502  0.00000000000E+00  0.00000000000E+00  0.45756724772E+03  0.45756724772E+03  0.00000000000E+00 0. -1.
          3   -1    0    0  502    0 -0.00000000000E+00 -0.00000000000E+00 -0.96747877439E+02  0.96747877439E+02  0.00000000000E+00 0. -1.
         23    2    1    2    0    0 -0.72805113960E+01  0.77694979627E+02  0.24169800123E+02  0.12313304801E+03  0.92130627743E+02 0.  0.
        -24    2    1    2    0    0 -0.10672461494E+03 -0.18588982091E+02  0.21534629888E+03  0.25453222179E+03  0.81712482507E+02 0.  0.
         13    1    4    4    0    0 -0.11226003083E+03 -0.63795126528E+01  0.14801962877E+03  0.18588389711E+03  0.00000000000E+00 0. -1.
        -14    1    4    4    0    0  0.55354158869E+01 -0.12209469438E+02  0.67326670110E+02  0.68648324678E+02  0.00000000000E+00 0.  1.
        -13    1    3    3    0    0  0.12408734772E+02 -0.17270933944E+02  0.14342503609E+02  0.25650911635E+02  0.00000000000E+00 0.  1.
         13    1    3    3    0    0 -0.19689246168E+02  0.94965913571E+02  0.98272965139E+01  0.97482136373E+02  0.00000000000E+00 0. -1.
          4    1    1    2  501    0  0.11400512634E+03 -0.59105997536E+02  0.12130327128E+03  0.17664985536E+03  0.00000000000E+00 0. -1.
<scales pt_clust_5="13000.00000" pt_clust_6="13000.00000" pt_clust_7="13000.00000" pt_clust_8="13000.00000" pt_clust_9="110.58424"></scales>
<clustering>
<clus scale="   81.712">  5  6 -1 -1</clus>
<clus scale="   92.131">  7  8 -1 -1</clus>
<clus scale="  120.738">  2  7  1 -1</clus>
<clus scale="  110.584">  1  9  2 -1</clus>
<clus scale="  110.584">  1  5  2 -1</clus>
</clustering>
</event>
<event>
 9    1  0.9171696E-005  0.1519564E+03  0.7546771E-02  0.1206438E+00
          3   -1    0    0  502    0 -0.00000000000E+00  0.00000000000E+00  0.23137293679E+03  0.23137293679E+03  0.00000000000E+00 0. -1.
         21   -1    0    0  501  502  0.00000000000E+00 -0.00000000000E+00 -0.40632494053E+03  0.40632494053E+03  0.00000000000E+00 0. -1.
        -24    2    1    2    0    0 -0.19154748409E+02  0.95204822004E+02  0.15242523278E+03  0.19829974838E+03  0.81599485907E+02 0.  0.
         23    2    1    2    0    0 -0.10072477824E+03 -0.15957155900E+02 -0.97321895287E+02  0.16814777682E+03  0.91662488350E+02 0.  0.
         11    1    3    3    0    0 -0.50885028523E+02  0.60062753128E+02  0.10556066278E+03  0.13168095522E+03  0.00000000000E+00 0. -1.
        -12    1    3    3    0    0  0.31730280113E+02  0.35142068877E+02  0.46864570006E+02  0.66618793165E+02  0.00000000000E+00 0.  1.
        -11    1    4    4    0    0 -0.76118590526E+02  0.26588099230E+02 -0.85654346692E+02  0.11763347292E+03  0.00000000000E+00 0. -1.
         11    1    4    4    0    0 -0.24606187716E+02 -0.42545255130E+02 -0.11667548595E+02  0.50514303897E+02  0.00000000000E+00 0.  1.
          4    1    1    2  501    0  0.11987952665E+03 -0.79247666104E+02 -0.23005534123E+03  0.27125035211E+03  0.00000000000E+00 0. -1.
<scales pt_clust_5="13000.00000" pt_clust_6="13000.00000" pt_clust_7="13000.00000" pt_clust_8="13000.00000" pt_clust_9="121.19707"></scales>
<clustering>
<clus scale="   81.599">  5  6 -1 -1</clus>
<clus scale="   91.662">  7  8 -1 -1</clus>
<clus scale="  126.844">  1  5  2 -1</clus>
<clus scale="  121.197">  2  9  1 -1</clus>
<clus scale="  121.197">  2  5  1 -1</clus>
</clustering>
</event>
<event>
 9    1  0.9171696E-005  0.1344688E+03  0.7546771E-02  0.1227440E+00
         21   -1    0    0  501  502  0.00000000000E+00  0.00000000000E+00  0.60609454070E+02  0.60609454070E+02  0.00000000000E+00 0. -1.
         -2   -1    0    0    0  501 -0.00000000000E+00 -0.00000000000E+00 -0.69889186594E+03  0.69889186594E+03  0.00000000000E+00 0.  1.
        -24    2    1    2    0    0  0.63684319717E+02 -0.78515670031E+02 -0.50972917026E+03  0.52510481816E+03  0.75437656534E+02 0.  0.
         23    2    1    2    0    0 -0.47599434337E+02  0.39229186041E+02 -0.14701398910E+03  0.18810448785E+03  0.99827602258E+02 0.  0.
         13    1    3    3    0    0  0.33854885130E+02  0.66879768397E+01 -0.17784470932E+03  0.18116186937E+03  0.00000000000E+00 0. -1.
        -14    1    3    3    0    0  0.29829434587E+02 -0.85203646871E+02 -0.33188446095E+03  0.34394294880E+03  0.00000000000E+00 0.  1.
        -13    1    4    4    0    0 -0.15477143086E+02 -0.18060936069E+02  0.33510972674E+01  0.24020183652E+02  0.00000000000E+00 0. -1.
         13    1    4    4    0    0 -0.32122291251E+02  0.57290122110E+02 -0.15036508637E+03  0.16408430420E+03  0.00000000000E+00 0.  1.
         -1    1    1    2    0  502 -0.16084885380E+02  0.39286483990E+02  0.18460747490E+02  0.46292013997E+02  0.00000000000E+00 0.  1.
<scales pt_clust_5="13000.00000" pt_clust_6="13000.00000" pt_clust_7="13000.00000" pt_clust_8="13000.00000" pt_clust_9="42.45175"></scales>
<clustering>
<clus scale="   42.452">  1  9  2 -1</clus>
<clus scale="   75.438">  5  6 -1 -1</clus>
<clus scale="   99.828">  7  8 -1 -1</clus>
<clus scale="  117.504">  2  5  1 -1</clus>
<clus scale="   42.452">  1  5  2 -1</clus>
</clustering>
</event>
<event>
 9    1  0.9171696E-005  0.1375988E+03  0.7546771E-02  0.1233454E+00
          1   -1    0    0  502    0 -0.00000000000E+00  0.00000000000E+00  0.83685487132E+03  0.83685487132E+03  0.00000000000E+00 0. -1.
         21   -1    0    0  501  502  0.00000000000E+00 -0.00000000000E+00 -0.55182078508E+02  0.55182078508E+02  0.00000000000E+00 0. -1.
        -24    2    1    2    0    0  0.20752602672E+02  0.53070544474E+02  0.85156419804E+02  0.12897671113E+03  0.78334047338E+02 0.  0.
         23    2    1    2    0    0 -0.11716774057E+03 -0.77246158648E+02  0.60672008518E+03  0.62910609563E+03  0.89274684818E+02 0.  0.
         11    1    3    3    0    0  0.60091707663E+01  0.63953303245E+02  0.89479632207E+02  0.11014871633E+03  0.00000000000E+00 0. -1.
        -12    1    3    3    0    0  0.14743431905E+02 -0.10882758771E+02 -0.43232124029E+01  0.18827994803E+02  0.00000000000E+00 0.  1.
        -13    1    4    4    0    0 -0.69582434919E+02 -0.89420847110E+02  0.48020009451E+03  0.49338619145E+03  0.00000000000E+00 0. -1.
         13    1    4    4    0    0 -0.47585305646E+02  0.12174688462E+02  0.12651999067E+03  0.13571990418E+03  0.00000000000E+00 0.  1.
          2    1    1    2  501    0  0.96415137893E+02  0.24175614174E+02  0.89796287829E+02  0.13395414306E+03  0.00000000000E+00 0. -1.
<scales pt_clust_5="13000.00000" pt_clust_6="13000.00000" pt_clust_7="13000.00000" pt_clust_8="13000.00000" pt_clust_9="104.70661"></scales>
<clustering>
<clus scale="   78.334">  5  6 -1 -1</clus>
<clus scale="   89.275">  7  8 -1 -1</clus>
<clus scale="   96.868">  1  5  2 -1</clus>
<clus scale="  104.707">  2  9  1 -1</clus>
<clus scale="  104.707">  2  5  1 -1</clus>
</clustering>
</event>
<event>
 9    1  0.9171696E-005  0.1882276E+03  0.7546771E-02  0.1188671E+00
          1   -1    0    0  502    0 -0.00000000000E+00  0.00000000000E+00  0.33684577581E+03  0.33684577581E+03  0.00000000000E+00 0. -1.
         21   -1    0    0  501  502  0.00000000000E+00 -0.00000000000E+00 -0.15633908880E+03  0.15633908880E+03  0.00000000000E+00 0. -1.
        -24    2    1    2    0    0 -0.20433685022E+02 -0.53767384117E+02  0.34527633686E+02  0.10421506726E+03  0.79750584184E+02 0.  0.
         23    2    1    2    0    0 -0.12321001003E+03  0.12339043503E+03  0.49890199792E+02  0.20265300229E+03  0.90406312132E+02 0.  0.
         13    1    3    3    0    0 -0.19887501281E+02 -0.48839596402E+02 -0.14695537704E+02  0.54742832520E+02  0.00000000000E+00 0. -1.
        -14    1    3    3    0    0 -0.54618374047E+00 -0.49277877148E+01  0.49223171390E+02  0.49472234740E+02  0.00000000000E+00 0.  1.
        -13    1    4    4    0    0 -0.10031803835E+03  0.13636923208E+03  0.49321005030E+02  0.17633161320E+03  0.00000000000E+00 0. -1.
         13    1    4    4    0    0 -0.22891971686E+02 -0.12978797060E+02  0.56919476129E+00  0.26321389087E+02  0.00000000000E+00 0.  1.
          2    1    1    2  501    0  0.14364369506E+03 -0.69623050908E+02  0.96088853533E+02  0.18631679506E+03  0.00000000000E+00 0. -1.
<scales pt_clust_5="13000.00000" pt_clust_6="13000.00000" pt_clust_7="13000.00000" pt_clust_8="13000.00000" pt_clust_9="165.09496"></scales>
<clustering>
<clus scale="   79.751">  5  6 -1 -1</clus>
<clus scale="   90.406">  7  8 -1 -1</clus>
<clus scale="   98.329">  1  5  2 -1</clus>
<clus scale="  165.095">  2  9  1 -1</clus>
<clus scale="  165.095">  2  5  1 -1</clus>
</clustering>
</event>
<event>
 9    1  0.9171696E-005  0.9385427E+02  0.7546771E-02  0.1294075E+00
         21   -1    0    0  501  502  0.00000000000E+00  0.00000000000E+00  0.77768311278E+02  0.77768311278E+02  0.00000000000E+00 0. -1.
         -2   -1    0    0    0  501 -0.00000000000E+00 -0.00000000000E+00 -0.63360067310E+03  0.63360067310E+03  0.00000000000E+00 0.  1.
         23    2    1    2    0    0  0.54405907822E+01  0.35168714272E+02 -0.34950616387E+03  0.36243038854E+03  0.89077435203E+02 0.  0.
        -24    2    1    2    0    0 -0.46676851272E+02  0.49430596647E+02  0.18391446592E+02  0.10530876935E+03  0.78291629591E+02 0.  0.
         11    1    4    4    0    0 -0.61858475626E+02  0.16805676110E+02  0.24850941861E+02  0.68749335035E+02  0.00000000000E+00 0. -1.
        -12    1    4    4    0    0  0.15181624354E+02  0.32624920537E+02 -0.64594952688E+01  0.36559434312E+02  0.00000000000E+00 0.  1.
        -11    1    3    3    0    0  0.77030238697E+01  0.61854371540E+02 -0.29720540292E+03  0.30367145302E+03  0.00000000000E+00 0.  1.
         11    1    3    3    0    0 -0.22624330875E+01 -0.26685657268E+02 -0.52300760952E+02  0.58758935520E+02  0.00000000000E+00 0. -1.
         -1    1    1    2    0  502  0.41236260490E+02 -0.84599310919E+02 -0.22471764454E+03  0.24362982649E+03  0.00000000000E+00 0.  1.
<scales pt_clust_5="13000.00000" pt_clust_6="13000.00000" pt_clust_7="13000.00000" pt_clust_8="13000.00000" pt_clust_9="94.11419"></scales>
<clustering>
<clus scale="   78.292">  5  6 -1 -1</clus>
<clus scale="   89.077">  7  8 -1 -1</clus>
<clus scale="   94.114">  1  9  2 -1</clus>
<clus scale="   94.114">  1  5  2 -1</clus>
<clus scale="   93.854">  1  5  2 -1</clus>
</clustering>
</event>
<event>
 9    1  0.9171696E-005  0.1696230E+03  0.7546771E-02  0.1202145E+00
          1   -1    0    0  502    0 -0.00000000000E+00  0.00000000000E+00  0.64520988317E+02  0.64520988317E+02  0.00000000000E+00 0. -1.
         21   -1    0    0  501  502  0.00000000000E+00 -0.00000000000E+00 -0.15720537541E+04  0.15720537541E+04  0.00000000000E+00 0. -1.
         23    2    1    2    0    0  0.55059946217E+02 -0.25552640761E+00 -0.62327086490E+01  0.10023507665E+03  0.83525810160E+02 0.  0.
        -24    2    1    2    0    0 -0.45398572313E+02  0.14406793451E+03 -0.66759788859E+03  0.69026954060E+03  0.89266442212E+02 0.  0.
         11    1    4    4    0    0 -0.57177164243E+01  0.12379866233E+03 -0.39292244170E+03  0.41200345419E+03  0.00000000000E+00 0. -1.
        -12    1    4    4    0    0 -0.39680855889E+02  0.20269272181E+02 -0.27467544689E+03  0.27826608641E+03  0.00000000000E+00 0.  1.
        -13    1    3    3    0    0  0.62631179733E+01  0.30611911086E+02  0.19700860192E+02  0.36938322098E+02  0.00000000000E+00 0.  1.
         13    1    3    3    0    0  0.48796828244E+02 -0.30867437493E+02 -0.25933568841E+02  0.63296754553E+02  0.00000000000E+00 0. -1.
          2    1    1    2  501    0 -0.96613739039E+01 -0.14381240810E+03 -0.83370216857E+03  0.84607012519E+03  0.00000000000E+00 0. -1.
<scales pt_clust_5="13000.00000" pt_clust_6="13000.00000" pt_clust_7="13000.00000" pt_clust_8="13000.00000" pt_clust_9="144.23409"></scales>
<clustering>
<clus scale="   83.526">  7  8 -1 -1</clus>
<clus scale="   89.266">  5  6 -1 -1</clus>
<clus scale="  100.041">  1  7  2 -1</clus>
<clus scale="  144.234">  2  9  1 -1</clus>
<clus scale="  144.234">  2  5  1 -1</clus>
</clustering>
</event>
<event>
 9    1  0.9171696E-005  0.1332917E+03  0.7546771E-02  0.1229793E+00
         21   -1    0    0  501  502  0.00000000000E+00  0.00000000000E+00  0.54770078240E+02  0.54770078240E+02  0.00000000000E+00 0.  1.
          1   -1    0    0  502    0 -0.00000000000E+00 -0.00000000000E+00 -0.79911940794E+03  0.79911940794E+03  0.00000000000E+00 0. -1.
         23    2    1    2    0    0 -0.63638643928E+02  0.25285911920E+02 -0.43682959685E+03  0.45169037032E+03  0.92275888602E+02 0.  0.
        -24    2    1    2    0    0  0.46266812171E+02  0.94332701430E+02 -0.11614495136E+03  0.17584828155E+03  0.79960564853E+02 0.  0.
         13    1    4    4    0    0  0.19447192900E+02  0.33938331604E+02 -0.10063711805E+03  0.10797144619E+03  0.00000000000E+00 0. -1.
        -14    1    4    4    0    0  0.26819619271E+02  0.60394369826E+02 -0.15507833308E+02  0.67876835359E+02  0.00000000000E+00 0.  1.
        -11    1    3    3    0    0 -0.84143040690E+01  0.48041088787E+02 -0.12472492048E+03  0.13392181493E+03  0.00000000000E+00 0.  1.
         11    1    3    3    0    0 -0.55224339859E+02 -0.22755176867E+02 -0.31210467636E+03  0.31776855539E+03  0.00000000000E+00 0. -1.
          2    1    1    2  501    0  0.17371831757E+02 -0.11961861335E+03 -0.19137478150E+03  0.22635083431E+03  0.00000000000E+00 0. -1.
<scales pt_clust_5="13000.00000" pt_clust_6="13000.00000" pt_clust_7="13000.00000" pt_clust_8="13000.00000" pt_clust_9="106.64427"></scales>
<clustering>
<clus scale="   79.961">  5  6 -1 -1</clus>
<clus scale="   92.276">  7  8 -1 -1</clus>
<clus scale="  114.909">  2  7  1 -1</clus>
<clus scale="  106.644">  1  9  2 -1</clus>
<clus scale="  106.644">  1  5  2 -1</clus>
</clustering>
</event>
<event>
 9    1  0.9171696E-005  0.1964099E+03  0.7546771E-02  0.1153884E+00
         21   -1    0    0  501  502  0.00000000000E+00  0.00000000000E+00  0.74994270499E+02  0.74994270499E+02  0.00000000000E+00 0. -1.
          3   -1    0    0  502    0 -0.00000000000E+00 -0.00000000000E+00 -0.78318366625E+03  0.78318366625E+03  0.00000000000E+00 0. -1.
         23    2    1    2    0    0  0.11196256224E+03 -0.14111937757E+03 -0.59040820298E+03  0.62403289389E+03  0.91569167482E+02 0.  0.
        -24    2    1    2    0    0 -0.10256547829E+03  0.11522259168E+03 -0.93963128606E+02  0.19772734268E+03  0.80443206901E+02 0.  0.
         13    1    4    4    0    0 -0.10510179989E+03  0.77890985212E+02 -0.50126908298E+02  0.14009318632E+03  0.00000000000E+00 0. -1.
        -14    1    4    4    0    0  0.25363216015E+01  0.37331606465E+02 -0.43836220308E+02  0.57634156361E+02  0.00000000000E+00 0.  1.
        -11    1    3    3    0    0  0.11657048555E+03 -0.10066246076E+03 -0.52370817617E+03  0.54588630950E+03  0.00000000000E+00 0. -1.
         11    1    3    3    0    0 -0.46079233165E+01 -0.40456916806E+02 -0.66700026814E+02  0.78146584389E+02  0.00000000000E+00 0.  1.
          4    1    1    2  501    0 -0.93970839456E+01  0.25896785891E+02 -0.23818064163E+02  0.36417700183E+02  0.00000000000E+00 0. -1.
<scales pt_clust_5="13000.00000" pt_clust_6="13000.00000" pt_clust_7="13000.00000" pt_clust_8="13000.00000" pt_clust_9="27.54902"></scales>
<clustering>
<clus scale="   27.549">  1  9  2 -1</clus>
<clus scale="   80.443">  5  6 -1 -1</clus>
<clus scale="   91.569">  7  8 -1 -1</clus>
<clus scale="  191.476">  1  5  2 -1</clus>
<clus scale="   27.549">  1  5  2 -1</clus>
</clustering>
</event>
<event>
 9    1  0.9171696E-005  0.1024320E+03  0.7546771E-02  0.1281015E+00
         21   -1    0    0  501  502  0.00000000000E+00  0.00000000000E+00  0.26865362232E+03  0.26865362232E+03  0.00000000000E+00 0. -1.
          1   -1    0    0  502    0 -0.00000000000E+00 -0.00000000000E+00 -0.13138929843E+03  0.13138929843E+03  0.00000000000E+00 0. -1.
        -24    2    1    2    0    0  0.40660585835E+02  0.12946814696E+02 -0.45866277797E+02  0.10072040946E+03  0.78866863709E+02 0.  0.
         23    2    1    2    0    0 -0.79858024327E+02 -0.22762413194E+02  0.21503456011E+03  0.24783806975E+03  0.91040734136E+02 0.  0.
         13    1    3    3    0    0  0.62797170021E+02  0.18572334615E+02 -0.26032694127E+02  0.70470684253E+02  0.00000000000E+00 0. -1.
        -14    1    3    3    0    0 -0.22136584186E+02 -0.56255199185E+01 -0.19833583670E+02  0.30249725205E+02  0.00000000000E+00 0.  1.
        -11    1    4    4    0    0 -0.10144198874E+02 -0.46556590468E+02  0.63920668795E+02  0.79726236497E+02  0.00000000000E+00 0.  1.
         11    1    4    4    0    0 -0.69713825453E+02  0.23794177274E+02  0.15111389131E+03  0.16811183325E+03  0.00000000000E+00 0. -1.
          2    1    1    2  501    0  0.39197438492E+02  0.98155984979E+01 -0.31903958418E+02  0.51484441542E+02  0.00000000000E+00 0. -1.
<scales pt_clust_5="13000.00000" pt_clust_6="13000.00000" pt_clust_7="13000.00000" pt_clust_8="13000.00000" pt_clust_9="40.40776"></scales>
<clustering>
<clus scale="   40.408">  1  9  2 -1</clus>
<clus scale="   78.867">  5  6 -1 -1</clus>
<clus scale="   91.041">  7  8 -1 -1</clus>
<clus scale="   91.782">  2  5  1 -1</clus>
<clus scale="   40.408">  1  5  2 -1</clus>
</clustering>
</event>
<event>
 9    1  0.9171696E-005  0.1293055E+03  0.7546771E-02  0.1230463E+00
         -2   -1    0    0    0  501 -0.00000000000E+00  0.00000000000E+00  0.17930797760E+03  0.17930797760E+03  0.00000000000E+00 0.  1.
         21   -1    0    0  501  502  0.00000000000E+00 -0.00000000000E+00 -0.31599054848E+03  0.31599054848E+03  0.00000000000E+00 0.  1.
         23    2    1    2    0    0  0.69295718897E+02 -0.33329091656E+02  0.60158089816E+02  0.13158259775E+03  0.88217114282E+02 0.  0.
        -24    2    1    2    0    0 -0.13322055823E+03  0.11874575004E+03 -0.10088406003E+03  0.22022355980E+03  0.80452174836E+02 0.  0.
         11    1    4    4    0    0 -0.86685120307E+02  0.36213434493E+02 -0.20929853527E+02  0.96248541231E+02  0.00000000000E+00 0. -1.
        -12    1    4    4    0    0 -0.46535437926E+02  0.82532315545E+02 -0.79954206504E+02  0.12397501857E+03  0.00000000000E+00 0.  1.
        -13    1    3    3    0    0  0.63076796091E+02 -0.47966755926E+01  0.75578755606E+02  0.98558807829E+02  0.00000000000E+00 0.  1.
         13    1    3    3    0    0  0.62189228062E+01 -0.28532416064E+02 -0.15420665790E+02  0.33023789920E+02  0.00000000000E+00 0. -1.
         -1    1    1    2    0  502  0.63924839337E+02 -0.85416658382E+02 -0.95956600672E+02  0.14349236853E+03  0.00000000000E+00 0.  1.
<scales pt_clust_5="13000.00000" pt_clust_6="13000.00000" pt_clust_7="13000.00000" pt_clust_8="13000.00000" pt_clust_9="106.68829"></scales>
<clustering>
<clus scale="   80.452">  5  6 -1 -1</clus>
<clus scale="   88.217">  7  8 -1 -1</clus>
<clus scale="  106.688">  2  9  1 -1</clus>
<clus scale="  124.138">  2  5  1 -1</clus>
<clus scale="  106.688">  2  5  1 -1</clus>
</clustering>
</event>
<event>
 9    1  0.9171696E-005  0.1141735E+03  0.7546771E-02  0.1253081E+00
          1   -1    0    0  502    0 -0.00000000000E+00  0.00000000000E+00  0.56434765652E+03  0.56434765652E+03  0.00000000000E+00 0. -1.
         21   -1    0    0  501  502  0.00000000000E+00 -0.00000000000E+00 -0.81958494931E+02  0.81958494931E+02  0.00000000000E+00 0.  1.
         23    2    1    2    0    0  0.69548864665E+02 -0.44000871403E+02  0.10408099209E+03  0.16345791104E+03  0.95459491446E+02 0.  0.
        -24    2    1    2    0    0  0.39884133385E+02  0.76756589712E+02  0.35387690551E+02  0.12140256949E+03  0.77485334591E+02 0.  0.
         13    1    4    4    0    0  0.21480545559E+02  0.14473192951E+02  0.48651279175E+02  0.55116550301E+02  0.00000000000E+00 0. -1.
        -14    1    4    4    0    0  0.18403587826E+02  0.62283396762E+02 -0.13263588624E+02  0.66286019191E+02  0.00000000000E+00 0.  1.
        -11    1    3    3    0    0  0.80423752761E+02 -0.42784315975E+01  0.87878626150E+02  0.11920124965E+03  0.00000000000E+00 0.  1.
         11    1    3    3    0    0 -0.10874888096E+02 -0.39722439806E+02  0.16202365944E+02  0.44256661390E+02  0.00000000000E+00 0. -1.
          2    1    1    2  501    0 -0.10943299805E+03 -0.32755718309E+02  0.34292047895E+03  0.36144567092E+03  0.00000000000E+00 0. -1.
<scales pt_clust_5="13000.00000" pt_clust_6="13000.00000" pt_clust_7="13000.00000" pt_clust_8="13000.00000" pt_clust_9="114.23017"></scales>
<clustering>
<clus scale="   77.485">  5  6 -1 -1</clus>
<clus scale="   95.459">  7  8 -1 -1</clus>
<clus scale="  114.230">  2  9  1 -1</clus>
<clus scale="  114.230">  2  5  1 -1</clus>
<clus scale="  114.173">  2  5  1 -1</clus>
</clustering>
</event>
<event>
 9    1  0.9171696E-005  0.2032221E+03  0.7546771E-02  0.1148076E+00
         21   -1    0    0  501  502  0.00000000000E+00  0.00000000000E+00  0.32639787693E+03  0.32639787693E+03  0.00000000000E+00 0. -1.
         -4   -1    0    0    0  501 -0.00000000000E+00 -0.00000000000E+00 -0.15864299151E+03  0.15864299151E+03  0.00000000000E+00 0.  1.
         23    2    1    2    0    0 -0.10253534118E+02 -0.16842215828E+03  0.58104372099E+02  0.20079811866E+03  0.92046770937E+02 0.  0.
        -24    2    1    2    0    0 -0.28192205557E+01  0.19403230795E+03  0.47031227552E+02  0.21533736804E+03  0.80633499078E+02 0.  0.
         11    1    4    4    0    0 -0.22393264734E+02  0.12009712158E+03  0.62622439355E+02  0.13728199747E+03  0.00000000000E+00 0. -1.
        -12    1    4    4    0    0  0.19574044179E+02  0.73935186372E+02 -0.15591211803E+02  0.78055370570E+02  0.00000000000E+00 0.  1.
        -11    1    3    3    0    0  0.35576994176E+02 -0.11618333422E+03  0.26055472928E+02  0.12427058113E+03  0.00000000000E+00 0.  1.
         11    1    3    3    0    0 -0.45830528294E+02 -0.52238824067E+02  0.32048899171E+02  0.76527537538E+02  0.00000000000E+00 0. -1.
         -3    1    1    2    0  502  0.13072754673E+02 -0.25610149672E+02  0.62619285778E+02  0.68905381737E+02  0.00000000000E+00 0.  1.
<scales pt_clust_5="13000.00000" pt_clust_6="13000.00000" pt_clust_7="13000.00000" pt_clust_8="13000.00000" pt_clust_9="28.75372"></scales>
<clustering>
<clus scale="   28.754">  1  9  2 -1</clus>
<clus scale="   80.633">  5  6 -1 -1</clus>
<clus scale="   92.047">  7  8 -1 -1</clus>
<clus scale="  198.314">  1  5  2 -1</clus>
<clus scale="   28.754">  1  5  2 -1</clus>
</clustering>
</event>
<event>
 9    1  0.9171696E-005  0.1029080E+03  0.7546771E-02  0.1279814E+00
         21   -1    0    0  501  502  0.00000000000E+00  0.00000000000E+00  0.80204329443E+02  0.80204329443E+02  0.00000000000E+00 0.  1.
          1   -1    0    0  502    0 -0.00000000000E+00 -0.00000000000E+00 -0.33827843834E+03  0.33827843834E+03  0.00000000000E+00 0. -1.
        -24    2    1    2    0    0 -0.45235651141E+01  0.33570543748E+02 -0.11381527853E+03  0.14321912956E+03  0.80064707553E+02 0.  0.
         23    2    1    2    0    0 -0.29185208652E+02 -0.95391496607E+02 -0.26597769843E+02  0.13814238967E+03  0.91785426046E+02 0.  0.
         13    1    3    3    0    0  0.35044682693E+02  0.27541793658E+02 -0.76279138303E+02  0.88346970085E+02  0.00000000000E+00 0. -1.
        -14    1    3    3    0    0 -0.39568247807E+02  0.60287500901E+01 -0.37536140230E+02  0.54872159475E+02  0.00000000000E+00 0.  1.
        -13    1    4    4    0    0 -0.29075962266E+02 -0.57180251054E+02 -0.59667368704E+02  0.87608147911E+02  0.00000000000E+00 0. -1.
         13    1    4    4    0    0 -0.10924638555E+00 -0.38211245553E+02  0.33069598861E+02  0.50534241761E+02  0.00000000000E+00 0.  1.
          2    1    1    2  501    0  0.33708773766E+02  0.61820952859E+02 -0.11766106052E+03  0.13712124855E+03  0.00000000000E+00 0. -1.
<scales pt_clust_5="13000.00000" pt_clust_6="13000.00000" pt_clust_7="13000.00000" pt_clust_8="13000.00000" pt_clust_9="70.41389"></scales>
<clustering>
<clus scale="   70.414">  1  9  2 -1</clus>
<clus scale="   80.065">  5  6 -1 -1</clus>
<clus scale="   91.785">  7  8 -1 -1</clus>
<clus scale="   92.606">  2  5  1 -1</clus>
<clus scale="   70.414">  1  5  2 -1</clus>
</clustering>
</event>
<event>
 9    1  0.9171696E-005  0.1130318E+03  0.7546771E-02  0.1260036E+00
         -4   -1    0    0    0  501 -0.00000000000E+00  0.00000000000E+00  0.13801834947E+03  0.13801834947E+03  0.00000000000E+00 0.  1.
         21   -1    0    0  501  502  0.00000000000E+00 -0.00000000000E+00 -0.19669912913E+03  0.19669912913E+03  0.00000000000E+00 0.  1.
         23    2    1    2    0    0 -0.16254147407E+01 -0.68214724229E+02  0.88245524581E+02  0.14578351147E+03  0.93859837163E+02 0.  0.
        -24    2    1    2    0    0  0.37230719044E+01  0.40880946118E+02 -0.10348471289E+03  0.13756561646E+03  0.80809034217E+02 0.  0.
         11    1    4    4    0    0 -0.43244862811E+01  0.64503529306E+02 -0.64830687250E+02  0.91555581391E+02  0.00000000000E+00 0. -1.
        -12    1    4    4    0    0  0.80475581855E+01 -0.23622583188E+02 -0.38654025635E+02  0.46010035069E+02  0.00000000000E+00 0.  1.
        -11    1    3    3    0    0 -0.15144643625E+02 -0.20329942534E+02 -0.16204670767E+02  0.30087508183E+02  0.00000000000E+00 0. -1.
         11    1    3    3    0    0  0.13519228884E+02 -0.47884781695E+02  0.10445019535E+03  0.11569600328E+03  0.00000000000E+00 0.  1.
         -3    1    1    2    0  502 -0.20976571637E+01  0.27333778111E+02 -0.43441591352E+02  0.51368350670E+02  0.00000000000E+00 0.  1.
<scales pt_clust_5="13000.00000" pt_clust_6="13000.00000" pt_clust_7="13000.00000" pt_clust_8="13000.00000" pt_clust_9="27.41415"></scales>
<clustering>
<clus scale="   27.414">  2  9  1 -1</clus>
<clus scale="   80.809">  5  6 -1 -1</clus>
<clus scale="   93.860">  7  8 -1 -1</clus>
<clus scale="  102.453">  2  5  1 -1</clus>
<clus scale="   27.414">  2  5  1 -1</clus>
</clustering>
</event>
<event>
 9    1  0.9171696E-005  0.1101097E+03  0.7546771E-02  0.1264014E+00
         21   -1    0    0  501  502  0.00000000000E+00  0.00000000000E+00  0.28752239139E+03  0.28752239139E+03  0.00000000000E+00 0. -1.
          1   -1    0    0  502    0 -0.00000000000E+00 -0.00000000000E+00 -0.17346293487E+03  0.17346293487E+03  0.00000000000E+00 0. -1.
         23    2    1    2    0    0  0.53816488001E+02 -0.27157412185E+02 -0.13014419243E+03  0.17093652772E+03  0.92994872267E+02 0.  0.
        -24    2    1    2    0    0 -0.19697279511E+02  0.57573712464E+02  0.20554055828E+03  0.23018139263E+03  0.83867974972E+02 0.  0.
         13    1    4    4    0    0 -0.26533691216E+02  0.51692364410E+01  0.15402366057E+03  0.15637789419E+03  0.00000000000E+00 0. -1.
        -14    1    4    4    0    0  0.68364117053E+01  0.52404476023E+02  0.51516897715E+02  0.73803498443E+02  0.00000000000E+00 0.  1.
        -11    1    3    3    0    0 -0.13408706927E+02 -0.23791975021E+02 -0.35226918144E+01  0.27536536719E+02  0.00000000000E+00 0.  1.
         11    1    3    3    0    0  0.67225194928E+02 -0.33654371633E+01 -0.12662150062E+03  0.14339999100E+03  0.00000000000E+00 0. -1.
          2    1    1    2  501    0 -0.34119208490E+02 -0.30416300280E+02  0.38663090664E+02  0.59867405910E+02  0.00000000000E+00 0. -1.
<scales pt_clust_5="13000.00000" pt_clust_6="13000.00000" pt_clust_7="13000.00000" pt_clust_8="13000.00000" pt_clust_9="45.70855"></scales>
<clustering>
<clus scale="   45.709">  1  9  2 -1</clus>
<clus scale="   83.868">  5  6 -1 -1</clus>
<clus scale="   92.995">  7  8 -1 -1</clus>
<clus scale="  102.518">  1  5  2 -1</clus>
<clus scale="   45.709">  1  5  2 -1</clus>
</clustering>
</event>
<event>
 9    1  0.9171696E-005  0.9228382E+02  0.7546771E-02  0.1301162E+00
         21   -1    0    0  501  502  0.00000000000E+00  0.00000000000E+00  0.14756020273E+03  0.14756020273E+03  0.00000000000E+00 0.  1.
         -2   -1    0    0    0  501 -0.00000000000E+00 -0.00000000000E+00 -0.12020843602E+03  0.12020843602E+03  0.00000000000E+00 0.  1.
        -24    2    1    2    0    0 -0.17014614911E+02  0.26005283460E+01 -0.19446654957E+02  0.89760459023E+02  0.85921520859E+02 0.  0.
         23    2    1    2    0    0 -0.36209331437E+02 -0.12181499301E+02  0.67162721707E+02  0.12022160529E+03  0.92102652420E+02 0.  0.
         13    1    3    3    0    0 -0.11765058926E+02  0.41430159872E+02  0.53366707498E+01  0.43397636033E+02  0.00000000000E+00 0. -1.
        -14    1    3    3    0    0 -0.52495559850E+01 -0.38829631526E+02 -0.24783325706E+02  0.46362822990E+02  0.00000000000E+00 0.  1.
        -11    1    4    4    0    0 -0.95141331763E+01  0.39956955646E+02  0.25598107299E+02  0.48397728582E+02  0.00000000000E+00 0.  1.
         11    1    4    4    0    0 -0.26695198261E+02 -0.52138454946E+02  0.41564614408E+02  0.71823876707E+02  0.00000000000E+00 0. -1.
         -1    1    1    2    0  502  0.53223946348E+02  0.95809709546E+01 -0.20364300040E+02  0.57786574439E+02  0.00000000000E+00 0.  1.
<scales pt_clust_5="13000.00000" pt_clust_6="13000.00000" pt_clust_7="13000.00000" pt_clust_8="13000.00000" pt_clust_9="54.07945"></scales>
<clustering>
<clus scale="   54.079">  1  9  2 -1</clus>
<clus scale="   85.922">  5  6 -1 -1</clus>
<clus scale="   86.116">  2  5  1 -1</clus>
<clus scale="   92.103">  7  8 -1 -1</clus>
<clus scale="   54.079">  1  5  2 -1</clus>
</clustering>
</event>
<event>
 9    1  0.9171696E-005  0.9636319E+02  0.7546771E-02  0.1292798E+00
         21   -1    0    0  501  502  0.00000000000E+00  0.00000000000E+00  0.13170603003E+03  0.13170603003E+03  0.00000000000E+00 0. -1.
         -2   -1    0    0    0  501 -0.00000000000E+00 -0.00000000000E+00 -0.17510918476E+03  0.17510918476E+03  0.00000000000E+00 0.  1.
        -24    2    1    2    0    0  0.35211486757E+02 -0.27697615727E+01 -0.83189178961E+02  0.12120292771E+03  0.80760075602E+02 0.  0.
         23    2    1    2    0    0 -0.25839271046E+02  0.57820869608E+02  0.61485487330E+02  0.12570127288E+03  0.89495385133E+02 0.  0.
         11    1    3    3    0    0 -0.21927817584E+02  0.55232895967E+01 -0.36324500707E+01  0.22902633156E+02  0.00000000000E+00 0. -1.
        -12    1    3    3    0    0  0.57139304341E+02 -0.82930511694E+01 -0.79556728891E+02  0.98300294557E+02  0.00000000000E+00 0.  1.
        -13    1    4    4    0    0 -0.22574964327E+00 -0.21181680986E+02 -0.18389889296E+01  0.21262559879E+02  0.00000000000E+00 0.  1.
         13    1    4    4    0    0 -0.25613521402E+02  0.79002550594E+02  0.63324476259E+02  0.10443871300E+03  0.00000000000E+00 0. -1.
         -1    1    1    2    0  502 -0.93722157115E+01 -0.55051108035E+02 -0.21699463100E+02  0.59911014196E+02  0.00000000000E+00 0.  1.
<scales pt_clust_5="13000.00000" pt_clust_6="13000.00000" pt_clust_7="13000.00000" pt_clust_8="13000.00000" pt_clust_9="55.84323"></scales>
<clustering>
<clus scale="   55.843">  1  9  2 -1</clus>
<clus scale="   80.760">  5  6 -1 -1</clus>
<clus scale="   88.310">  2  5  1 -1</clus>
<clus scale="   89.495">  7  8 -1 -1</clus>
<clus scale="   55.843">  1  5  2 -1</clus>
</clustering>
</event>
<event>
 9    1  0.9171696E-005  0.2056583E+03  0.7546771E-02  0.1170879E+00
          1   -1    0    0  502    0 -0.00000000000E+00  0.00000000000E+00  0.55323081523E+03  0.55323081523E+03  0.00000000000E+00 0. -1.
         21   -1    0    0  501  502  0.00000000000E+00 -0.00000000000E+00 -0.13354008365E+03  0.13354008365E+03  0.00000000000E+00 0. -1.
        -24    2    1    2    0    0  0.35450481037E+02  0.67939989175E+02  0.16136893737E+03  0.19670004931E+03  0.82331019164E+02 0.  0.
         23    2    1    2    0    0  0.94129794289E+02  0.12413898729E+03  0.80486694826E+02  0.19799088873E+03  0.91931374599E+02 0.  0.
         13    1    3    3    0    0  0.27292716401E+02  0.83449283343E+02  0.15483830017E+03  0.17799880466E+03  0.00000000000E+00 0. -1.
        -14    1    3    3    0    0  0.81577646362E+01 -0.15509294168E+02  0.65306371979E+01  0.18701244655E+02  0.00000000000E+00 0.  1.
        -13    1    4    4    0    0  0.33626377256E+02  0.12386874859E+02  0.59112549895E+02  0.69126416595E+02  0.00000000000E+00 0.  1.
         13    1    4    4    0    0  0.60503417033E+02  0.11175211243E+03  0.21374144930E+02  0.12886447213E+03  0.00000000000E+00 0. -1.
          2    1    1    2  501    0 -0.12958027533E+03 -0.19207897647E+03  0.17783509938E+03  0.29207996084E+03  0.00000000000E+00 0. -1.
<scales pt_clust_5="13000.00000" pt_clust_6="13000.00000" pt_clust_7="13000.00000" pt_clust_8="13000.00000" pt_clust_9="183.96742"></scales>
<clustering>
<clus scale="   82.331">  5  6 -1 -1</clus>
<clus scale="   91.931">  7  8 -1 -1</clus>
<clus scale="  112.477">  1  5  2 -1</clus>
<clus scale="  183.967">  2  9  1 -1</clus>
<clus scale="  183.967">  2  5  1 -1</clus>
</clustering>
</event>
<event>
 9    1  0.9171696E-005  0.1391373E+03  0.7546771E-02  0.1216799E+00
         21   -1    0    0  501  502  0.00000000000E+00  0.00000000000E+00  0.22395645375E+03  0.22395645375E+03  0.00000000000E+00 0.  1.
         -2   -1    0    0    0  501 -0.00000000000E+00 -0.00000000000E+00 -0.41171637575E+03  0.41171637575E+03  0.00000000000E+00 0.  1.
         23    2    1    2    0    0 -0.81397099224E+02 -0.71860500787E+02 -0.36988702383E+03  0.39615170623E+03  0.91270721570E+02 0.  0.
        -24    2    1    2    0    0  0.66040515519E+02  0.28484751859E+02  0.11264983057E+03  0.15618822773E+03  0.80821082488E+02 0.  0.
         13    1    4    4    0    0  0.46405783683E+02  0.22382357039E+02  0.11263952976E+02  0.52738442359E+02  0.00000000000E+00 0. -1.
        -14    1    4    4    0    0  0.19634731835E+02  0.61023948202E+01  0.10138587760E+03  0.10344978537E+03  0.00000000000E+00 0.  1.
        -13    1    3    3    0    0 -0.24744593225E+02 -0.52321238178E+02 -0.29303729589E+03  0.29869828195E+03  0.00000000000E+00 0.  1.
         13    1    3    3    0    0 -0.56652505999E+02 -0.19539262610E+02 -0.76849727943E+02  0.97453424281E+02  0.00000000000E+00 0. -1.
         -1    1    1    2    0  502  0.15356583705E+02  0.43375748928E+02  0.69477271250E+02  0.83332895537E+02  0.00000000000E+00 0.  1.
<scales pt_clust_5="13000.00000" pt_clust_6="13000.00000" pt_clust_7="13000.00000" pt_clust_8="13000.00000" pt_clust_9="46.01391"></scales>
<clustering>
<clus scale="   46.014">  1  9  2 -1</clus>
<clus scale="   80.821">  5  6 -1 -1</clus>
<clus scale="   91.271">  7  8 -1 -1</clus>
<clus scale="  132.518">  1  5  2 -1</clus>
<clus scale="   46.014">  1  5  2 -1</clus>
</clustering>
</event>
<event>
 9    1  0.9171696E-005  0.1093636E+03  0.7546771E-02  0.1268045E+00
         21   -1    0    0  501  502  0.00000000000E+00  0.00000000000E+00  0.34217327533E+03  0.34217327533E+03  0.00000000000E+00 0.  1.
         -2   -1    0    0    0  501 -0.00000000000E+00 -0.00000000000E+00 -0.17099434127E+03  0.17099434127E+03  0.00000000000E+00 0.  1.
        -24    2    1    2    0    0  0.99656501445E+01 -0.52501116595E+02 -0.99852314977E+02  0.13861384376E+03  0.79922659176E+02 0.  0.
         23    2    1    2    0    0 -0.52972653050E+02  0.45390479596E+02  0.19554311171E+02  0.11932678811E+03  0.94816209935E+02 0.  0.
         11    1    3    3    0    0  0.22721751762E+02 -0.26257115329E+01  0.35100094338E+01  0.23140711536E+02  0.00000000000E+00 0. -1.
        -12    1    3    3    0    0 -0.12756101617E+02 -0.49875405062E+02 -0.10336232441E+03  0.11547313223E+03  0.00000000000E+00 0.  1.
        -13    1    4    4    0    0 -0.64824246242E+02 -0.10959783766E+01  0.27989779918E+02  0.70617362237E+02  0.00000000000E+00 0.  1.
         13    1    4    4    0    0  0.11851593192E+02  0.46486457972E+02 -0.84354687471E+01  0.48709425874E+02  0.00000000000E+00 0. -1.
         -1    1    1    2    0  502  0.43007002906E+02  0.71106369992E+01  0.25147693786E+03  0.25522698473E+03  0.00000000000E+00 0.  1.
<scales pt_clust_5="13000.00000" pt_clust_6="13000.00000" pt_clust_7="13000.00000" pt_clust_8="13000.00000" pt_clust_9="43.59086"></scales>
<clustering>
<clus scale="   43.591">  1  9  2 -1</clus>
<clus scale="   79.923">  5  6 -1 -1</clus>
<clus scale="   94.816">  7  8 -1 -1</clus>
<clus scale="   96.736">  2  5  1 -1</clus>
<clus scale="   43.591">  1  5  2 -1</clus>
</clustering>
</event>
<event>
 9    1  0.9171696E-005  0.1339976E+03  0.7546771E-02  0.1224533E+00
         21   -1    0    0  501  502  0.00000000000E+00  0.00000000000E+00  0.52354305500E+03  0.52354305500E+03  0.00000000000E+00 0. -1.
          3   -1    0    0  502    0 -0.00000000000E+00 -0.00000000000E+00 -0.54778780105E+02  0.54778780105E+02  0.00000000000E+00 0. -1.
        -24    2    1    2    0    0 -0.34852797044E+02 -0.98716822720E+02  0.80128256654E+02  0.15420570413E+03  0.79994581823E+02 0.  0.
         23    2    1    2    0    0  0.34884187352E+02  0.66656648903E+02  0.36623140057E+03  0.38500318398E+03  0.91880343572E+02 0.  0.
         13    1    3    3    0    0 -0.35069572618E+02 -0.10993508218E+03  0.83561917364E+02  0.14247172088E+03  0.00000000000E+00 0. -1.
        -14    1    3    3    0    0  0.21677557364E+00  0.11218259459E+02 -0.34336607096E+01  0.11733983246E+02  0.00000000000E+00 0.  1.
        -11    1    4    4    0    0  0.14858378055E+02  0.88104105971E+02  0.27029792355E+03  0.28468240613E+03  0.00000000000E+00 0. -1.
         11    1    4    4    0    0  0.20025809297E+02 -0.21447457068E+02  0.95933477025E+02  0.10032077784E+03  0.00000000000E+00 0.  1.
          4    1    1    2  501    0 -0.31390308163E-01  0.32060173816E+02  0.22404617669E+02  0.39112947004E+02  0.00000000000E+00 0. -1.
<scales pt_clust_5="13000.00000" pt_clust_6="13000.00000" pt_clust_7="13000.00000" pt_clust_8="13000.00000" pt_clust_9="32.06021"></scales>
<clustering>
<clus scale="   32.060">  1  9  2 -1</clus>
<clus scale="   79.995">  5  6 -1 -1</clus>
<clus scale="   91.880">  7  8 -1 -1</clus>
<clus scale="  126.145">  2  5  1 -1</clus>
<clus scale="   32.060">  1  5  2 -1</clus>
</clustering>
</event>
<event>
 9    1  0.9171696E-005  0.9867408E+02  0.7546771E-02  0.1291266E+00
         21   -1    0    0  501  502  0.00000000000E+00  0.00000000000E+00  0.16067914823E+03  0.16067914823E+03  0.00000000000E+00 0.  1.
         -2   -1    0    0    0  501 -0.00000000000E+00 -0.00000000000E+00 -0.13106590179E+03  0.13106590179E+03  0.00000000000E+00 0.  1.
        -24    2    1    2    0    0  0.33371315667E+02  0.35328813128E+01 -0.49667270632E+02  0.10013325182E+03  0.80210375815E+02 0.  0.
         23    2    1    2    0    0  0.29359372289E+01  0.39619706002E+02  0.86939876198E+02  0.13469933746E+03  0.94905366590E+02 0.  0.
         13    1    3    3    0    0  0.57941330157E+02 -0.86412723023E+01 -0.40507575946E+02  0.71223121502E+02  0.00000000000E+00 0. -1.
        -14    1    3    3    0    0 -0.24570014490E+02  0.12174153615E+02 -0.91596946858E+01  0.28910130319E+02  0.00000000000E+00 0.  1.
        -11    1    4    4    0    0  0.28362698372E+02 -0.10070814478E+02  0.70271249223E+02  0.76445486659E+02  0.00000000000E+00 0.  1.
         11    1    4    4    0    0 -0.25426761143E+02  0.49690520480E+02  0.16668626975E+02  0.58253850800E+02  0.00000000000E+00 0. -1.
         -1    1    1    2    0  502 -0.36307252896E+02 -0.43152587315E+02 -0.76593591222E+01  0.56912460735E+02  0.00000000000E+00 0.  1.
<scales pt_clust_5="13000.00000" pt_clust_6="13000.00000" pt_clust_7="13000.00000" pt_clust_8="13000.00000" pt_clust_9="56.39473"></scales>
<clustering>
<clus scale="   56.395">  1  9  2 -1</clus>
<clus scale="   80.210">  5  6 -1 -1</clus>
<clus scale="   84.636">  2  5  1 -1</clus>
<clus scale="   94.905">  7  8 -1 -1</clus>
<clus scale="   56.395">  1  5  2 -1</clus>
</clustering>
</event>
<event>
 9    1  0.9171696E-005  0.1970294E+03  0.7546771E-02  0.1161028E+00
         21   -1    0    0  501  502  0.00000000000E+00  0.00000000000E+00  0.11855786630E+03  0.11855786630E+03  0.00000000000E+00 0. -1.
          1   -1    0    0  502    0 -0.00000000000E+00 -0.00000000000E+00 -0.80044984949E+03  0.80044984949E+03  0.00000000000E+00 0. -1.
         23    2    1    2    0    0 -0.26957953781E+02  0.13241689569E+03 -0.25354232162E+03  0.30007017534E+03  0.86587734326E+02 0.  0.
        -24    2    1    2    0    0 -0.15488758695E+03 -0.14342868381E+03 -0.35931173825E+03  0.42411635316E+03  0.78789617627E+02 0.  0.
         11    1    4    4    0    0 -0.15452045348E+03 -0.14349323232E+03 -0.36332510209E+03  0.42008571515E+03  0.00000000000E+00 0. -1.
        -12    1    4    4    0    0 -0.36713346716E+00  0.64548511533E-01  0.40133638380E+01  0.40306380127E+01  0.00000000000E+00 0.  1.
        -13    1    3    3    0    0  0.24309806485E+02  0.11396909991E+02 -0.64141497309E+02  0.69534077442E+02  0.00000000000E+00 0.  1.
         13    1    3    3    0    0 -0.51267760265E+02  0.12101998570E+03 -0.18940082432E+03  0.23053609790E+03  0.00000000000E+00 0. -1.
          2    1    1    2  501    0  0.18184554073E+03  0.11011788117E+02 -0.69037923310E+02  0.19482118729E+03  0.00000000000E+00 0. -1.
<scales pt_clust_5="13000.00000" pt_clust_6="13000.00000" pt_clust_7="13000.00000" pt_clust_8="13000.00000" pt_clust_9="180.59010"></scales>
<clustering>
<clus scale="   78.790">  5  6 -1 -1</clus>
<clus scale="   86.588">  7  8 -1 -1</clus>
<clus scale="  160.494">  2  7  1 -1</clus>
<clus scale="  180.590">  1  9  2 -1</clus>
<clus scale="  180.590">  1  5  2 -1</clus>
</clustering>
</event>
<event>
 9    1  0.9171696E-005  0.1974741E+03  0.7546771E-02  0.1182933E+00
          1   -1    0    0  502    0 -0.00000000000E+00  0.00000000000E+00  0.13478730869E+03  0.13478730869E+03  0.00000000000E+00 0. -1.
         21   -1    0    0  501  502  0.00000000000E+00 -0.00000000000E+00 -0.49778013326E+03  0.49778013326E+03  0.00000000000E+00 0.  1.
         23    2    1    2    0    0 -0.28313662645E+02 -0.11262436342E+02  0.14213428560E+02  0.97790506588E+02  0.91828403354E+02 0.  0.
        -24    2    1    2    0    0  0.14331718880E+03 -0.12075278195E+03 -0.20722715726E+03  0.29075496521E+03  0.80463060683E+02 0.  0.
         13    1    4    4    0    0  0.68117286979E+02 -0.85096840222E+02 -0.67769200457E+02  0.12835147655E+03  0.00000000000E+00 0. -1.
        -14    1    4    4    0    0  0.75199901821E+02 -0.35655941726E+02 -0.13945795680E+03  0.16240348866E+03  0.00000000000E+00 0.  1.
        -13    1    3    3    0    0  0.15437446523E+02  0.27563425842E+02  0.22397813349E+02  0.38726208724E+02  0.00000000000E+00 0.  1.
         13    1    3    3    0    0 -0.43751109168E+02 -0.38825862184E+02 -0.81843847894E+01  0.59064297864E+02  0.00000000000E+00 0. -1.
          2    1    1    2  501    0 -0.11500352615E+03  0.13201521829E+03 -0.16997909587E+03  0.24402197016E+03  0.00000000000E+00 0. -1.
<scales pt_clust_5="13000.00000" pt_clust_6="13000.00000" pt_clust_7="13000.00000" pt_clust_8="13000.00000" pt_clust_9="180.33775"></scales>
<clustering>
<clus scale="   80.463">  5  6 -1 -1</clus>
<clus scale="   91.828">  7  8 -1 -1</clus>
<clus scale="   96.752">  1  7  2 -1</clus>
<clus scale="  180.338">  2  9  1 -1</clus>
<clus scale="  180.338">  2  5  1 -1</clus>
</clustering>
</event>
<event>
 9    1  0.1116444E-004  0.3344717E+03  0.7546771E-02  0.1111181E+00
         21   -1    0    0  501  502  0.00000000000E+00  0.00000000000E+00  0.42704437616E+03  0.42704437616E+03  0.00000000000E+00 0.  1.
          1   -1    0    0  502    0 -0.00000000000E+00 -0.00000000000E+00 -0.81439809725E+03  0.81439809725E+03  0.00000000000E+00 0. -1.
        -24    2    1    2    0    0  0.82191941425E+01 -0.80407862539E+02 -0.16338617897E+03  0.19706213269E+03  0.74869627684E+02 0.  0.
         23    2    1    2    0    0  0.21844473310E+03  0.24601121740E+03  0.29733480887E+03  0.45230167349E+03  0.89046026151E+02 0.  0.
         11    1    3    3    0    0 -0.33122227636E+02 -0.43350641155E+02 -0.85169179049E+02  0.10114419960E+03  0.00000000000E+00 0. -1.
        -12    1    3    3    0    0  0.41341421779E+02 -0.37057221384E+02 -0.78216999924E+02  0.95917933092E+02  0.00000000000E+00 0.  1.
        -13    1    4    4    0    0  0.15536198198E+03  0.11670202731E+03  0.19832441463E+03  0.27764956701E+03  0.00000000000E+00 0.  1.
         13    1    4    4    0    0  0.63082751122E+02  0.12930919010E+03  0.99010394238E+02  0.17465210648E+03  0.00000000000E+00 0. -1.
          2    1    1    2  501    0 -0.22666392724E+03 -0.16560335486E+03 -0.52130235098E+03  0.59207866723E+03  0.00000000000E+00 0. -1.
<scales pt_clust_5="13000.00000" pt_clust_6="13000.00000" pt_clust_7="13000.00000" pt_clust_8="13000.00000" pt_clust_9="322.40074"></scales>
<clustering>
<clus scale="   74.870">  5  6 -1 -1</clus>
<clus scale="   89.046">  7  8 -1 -1</clus>
<clus scale="  110.175">  2  5  1 -1</clus>
<clus scale="  322.401">  1  9  2 -1</clus>
<clus scale="  322.401">  1  5  2 -1</clus>
</clustering>
</event>
<event>
 9    1  0.9171696E-005  0.7820494E+02  0.7546771E-02  0.1336659E+00
         21   -1    0    0  501  502  0.00000000000E+00  0.00000000000E+00  0.54484601396E+03  0.54484601396E+03  0.00000000000E+00 0.  1.
         -2   -1    0    0    0  501 -0.00000000000E+00 -0.00000000000E+00 -0.31166722527E+02  0.31166722527E+02  0.00000000000E+00 0.  1.
         23    2    1    2    0    0 -0.13979035727E+02 -0.21115521911E+02  0.91764302972E+02  0.12091169109E+03  0.74549788984E+02 0.  0.
        -24    2    1    2    0    0 -0.30578660269E+02 -0.33798998012E+02  0.30879883114E+03  0.32169842991E+03  0.77818602938E+02 0.  0.
         13    1    4    4    0    0  0.15627507965E+02 -0.30718069894E+02  0.20715675764E+03  0.21000414533E+03  0.00000000000E+00 0. -1.
        -14    1    4    4    0    0 -0.46206168234E+02 -0.30809281176E+01  0.10164207351E+03  0.11169428458E+03  0.00000000000E+00 0.  1.
        -11    1    3    3    0    0 -0.25030094861E+02  0.21595211024E+02  0.51412799743E+02  0.61123929564E+02  0.00000000000E+00 0.  1.
         11    1    3    3    0    0  0.11051059134E+02 -0.42710732935E+02  0.40351503229E+02  0.59787761529E+02  0.00000000000E+00 0. -1.
         -1    1    1    2    0  502  0.44557695996E+02  0.54914519922E+02  0.11311615732E+03  0.13340261548E+03  0.00000000000E+00 0.  1.
<scales pt_clust_5="13000.00000" pt_clust_6="13000.00000" pt_clust_7="13000.00000" pt_clust_8="13000.00000" pt_clust_9="70.71773"></scales>
<clustering>
<clus scale="   70.718">  1  9  2 -1</clus>
<clus scale="   74.550">  7  8 -1 -1</clus>
<clus scale="   74.953">  2  7  1 -1</clus>
<clus scale="   77.819">  5  6 -1 -1</clus>
<clus scale="   70.718">  1  5  2 -1</clus>
</clustering>
</event>
<event>
 9    1  0.9171696E-005  0.9019809E+02  0.7546771E-02  0.1306573E+00
         21   -1    0    0  501  502  0.00000000000E+00  0.00000000000E+00  0.14651236339E+03  0.14651236339E+03  0.00000000000E+00 0.  1.
         -4   -1    0    0    0  501 -0.00000000000E+00 -0.00000000000E+00 -0.13521669538E+03  0.13521669538E+03  0.00000000000E+00 0.  1.
         23    2    1    2    0    0 -0.23265866608E+02  0.33816690677E+02 -0.31935602177E+02  0.10112081226E+03  0.86721778517E+02 0.  0.
        -24    2    1    2    0    0  0.13175098542E+02  0.34720104410E+02  0.63416405470E+02  0.10845178064E+03  0.79756375096E+02 0.  0.
         11    1    4    4    0    0  0.37504313816E+02 -0.67702810452E+01  0.38934274987E+02  0.54481997293E+02  0.00000000000E+00 0. -1.
        -12    1    4    4    0    0 -0.24329215274E+02  0.41490385455E+02  0.24482130483E+02  0.53969783343E+02  0.00000000000E+00 0.  1.
        -11    1    3    3    0    0  0.13077861272E+02 -0.22512014928E+02  0.17571092416E+01  0.26094227416E+02  0.00000000000E+00 0. -1.
         11    1    3    3    0    0 -0.36343727879E+02  0.56328705605E+02 -0.33692711418E+02  0.75026584848E+02  0.00000000000E+00 0.  1.
         -3    1    1    2    0  502  0.10090768066E+02 -0.68536795087E+02 -0.20185135278E+02  0.72156465872E+02  0.00000000000E+00 0.  1.
<scales pt_clust_5="13000.00000" pt_clust_6="13000.00000" pt_clust_7="13000.00000" pt_clust_8="13000.00000" pt_clust_9="69.27569"></scales>
<clustering>
<clus scale="   69.276">  1  9  2 -1</clus>
<clus scale="   79.756">  5  6 -1 -1</clus>
<clus scale="   83.523">  1  5  2 -1</clus>
<clus scale="   86.722">  7  8 -1 -1</clus>
<clus scale="   69.276">  1  5  2 -1</clus>
</clustering>
</event>
<event>
 9    1  0.9171696E-005  0.9621617E+02  0.7546771E-02  0.1298237E+00
         21   -1    0    0  501  502  0.00000000000E+00  0.00000000000E+00  0.47861292972E+03  0.47861292972E+03  0.00000000000E+00 0. -1.
          1   -1    0    0  502    0 -0.00000000000E+00 -0.00000000000E+00 -0.33349734395E+02  0.33349734395E+02  0.00000000000E+00 0. -1.
         23    2    1    2    0    0 -0.25323974475E+02  0.43262635458E+02  0.15637993933E+03  0.18904524246E+03  0.93650728573E+02 0.  0.
        -24    2    1    2    0    0  0.27050056253E+01  0.15073142229E+02  0.19337630619E+03  0.20874098726E+03  0.77096610135E+02 0.  0.
         11    1    4    4    0    0  0.35510797469E+02  0.18632241453E+02  0.14302093854E+03  0.14853674973E+03  0.00000000000E+00 0. -1.
        -12    1    4    4    0    0 -0.32805791844E+02 -0.35590992246E+01  0.50355367656E+02  0.60204237538E+02  0.00000000000E+00 0.  1.
        -13    1    3    3    0    0  0.46024456703E+01 -0.26097667050E+02  0.20217723396E+02  0.33332072707E+02  0.00000000000E+00 0.  1.
         13    1    3    3    0    0 -0.29926420145E+02  0.69360302509E+02  0.13616221594E+03  0.15571316976E+03  0.00000000000E+00 0. -1.
          2    1    1    2  501    0  0.22618968849E+02 -0.58335777687E+02  0.95506949802E+02  0.11417643439E+03  0.00000000000E+00 0. -1.
<scales pt_clust_5="13000.00000" pt_clust_6="13000.00000" pt_clust_7="13000.00000" pt_clust_8="13000.00000" pt_clust_9="62.56744"></scales>
<clustering>
<clus scale="   62.567">  1  9  2 -1</clus>
<clus scale="   77.097">  5  6 -1 -1</clus>
<clus scale="   80.193">  1  5  2 -1</clus>
<clus scale="   93.651">  7  8 -1 -1</clus>
<clus scale="   62.567">  1  5  2 -1</clus>
</clustering>
</event>
<event>
 9    1  0.9171696E-005  0.1568005E+03  0.7546771E-02  0.1192562E+00
         21   -1    0    0  501  502  0.00000000000E+00  0.00000000000E+00  0.28492732262E+02  0.28492732262E+02  0.00000000000E+00 0. -1.
          1   -1    0    0  502    0 -0.00000000000E+00 -0.00000000000E+00 -0.11011365944E+04  0.11011365944E+04  0.00000000000E+00 0. -1.
         23    2    1    2    0    0 -0.11391993010E+03 -0.35777911892E+02 -0.44930967381E+03  0.47166353972E+03  0.79558169113E+02 0.  0.
        -24    2    1    2    0    0  0.14204004667E+03  0.59298614530E+02 -0.50743133438E+03  0.53640330934E+03  0.80933618524E+02 0.  0.
         11    1    4    4    0    0  0.12372044739E+03  0.78555231101E+02 -0.40971621176E+03  0.43513796388E+03  0.00000000000E+00 0. -1.
        -12    1    4    4    0    0  0.18319599284E+02 -0.19256616571E+02 -0.97715122629E+02  0.10126534545E+03  0.00000000000E+00 0.  1.
        -11    1    3    3    0    0 -0.86770493543E+02 -0.19146359204E+02 -0.41677477689E+03  0.42614189687E+03  0.00000000000E+00 0.  1.
         11    1    3    3    0    0 -0.27149436553E+02 -0.16631552688E+02 -0.32534896918E+02  0.45521642846E+02  0.00000000000E+00 0. -1.
          2    1    1    2  501    0 -0.28120116578E+02 -0.23520702638E+02 -0.11590285399E+03  0.12156247765E+03  0.00000000000E+00 0. -1.
<scales pt_clust_5="13000.00000" pt_clust_6="13000.00000" pt_clust_7="13000.00000" pt_clust_8="13000.00000" pt_clust_9="36.66014"></scales>
<clustering>
<clus scale="   36.660">  1  9  2 -1</clus>
<clus scale="   79.558">  7  8 -1 -1</clus>
<clus scale="   80.934">  5  6 -1 -1</clus>
<clus scale="  156.095">  2  7  1 -1</clus>
<clus scale="   36.660">  1  5  2 -1</clus>
</clustering>
</event>
<event>
 9    1  0.9171696E-005  0.1361990E+03  0.7546771E-02  0.1228659E+00
          1   -1    0    0  502    0 -0.00000000000E+00  0.00000000000E+00  0.44855907913E+03  0.44855907913E+03  0.00000000000E+00 0. -1.
         21   -1    0    0  501  502  0.00000000000E+00 -0.00000000000E+00 -0.89075485781E+02  0.89075485781E+02  0.00000000000E+00 0. -1.
         23    2    1    2    0    0 -0.21362675808E+02  0.76457344692E+02  0.34084437510E+03  0.36784851260E+03  0.11329408946E+03 0.  0.
        -24    2    1    2    0    0  0.51271167991E+02 -0.51661104358E+02  0.50497966071E+02  0.11954312991E+03  0.80267757908E+02 0.  0.
         11    1    4    4    0    0  0.71164426184E+02 -0.50848565418E+02  0.34577883678E+02  0.94050955332E+02  0.00000000000E+00 0. -1.
        -12    1    4    4    0    0 -0.19893258193E+02 -0.81253893982E+00  0.15920082393E+02  0.25492174574E+02  0.00000000000E+00 0.  1.
        -11    1    3    3    0    0 -0.35379347407E+02  0.74149897526E+01  0.24293946414E+02  0.43553141430E+02  0.00000000000E+00 0.  1.
         11    1    3    3    0    0  0.14016671599E+02  0.69042354940E+02  0.31655042869E+03  0.32429537117E+03  0.00000000000E+00 0. -1.
          2    1    1    2  501    0 -0.29908492182E+02 -0.24796240334E+02 -0.31858747824E+02  0.50242922410E+02  0.00000000000E+00 0. -1.
<scales pt_clust_5="13000.00000" pt_clust_6="13000.00000" pt_clust_7="13000.00000" pt_clust_8="13000.00000" pt_clust_9="38.85063"></scales>
<clustering>
<clus scale="   38.851">  2  9  1 -1</clus>
<clus scale="   80.268">  5  6 -1 -1</clus>
<clus scale="  110.261">  2  5  1 -1</clus>
<clus scale="  113.294">  7  8 -1 -1</clus>
<clus scale="   38.851">  2  5  1 -1</clus>
</clustering>
</event>
<event>
 9    1  0.1092787E-004  0.2286328E+03  0.7546771E-02  0.1169238E+00
         -2   -1    0    0    0  501 -0.00000000000E+00  0.00000000000E+00  0.58757067365E+03  0.58757067365E+03  0.00000000000E+00 0.  1.
         21   -1    0    0  501  502  0.00000000000E+00 -0.00000000000E+00 -0.13888384476E+03  0.13888384476E+03  0.00000000000E+00 0.  1.
        -24    2    1    2    0    0  0.43579224393E+01 -0.25775570956E+02  0.58312183120E+02  0.10307377454E+03  0.80873486087E+02 0.  0.
         23    2    1    2    0    0  0.61881888385E+02  0.20509133092E+03  0.61374926393E+02  0.24287756430E+03  0.96596105108E+02 0.  0.
         11    1    3    3    0    0  0.15775362819E+02 -0.22674431856E+02 -0.13182557476E+02  0.30606727262E+02  0.00000000000E+00 0. -1.
        -12    1    3    3    0    0 -0.11417440380E+02 -0.31011391000E+01  0.71494740595E+02  0.72467047279E+02  0.00000000000E+00 0.  1.
        -13    1    4    4    0    0 -0.40695400417E+01  0.42065787138E+02 -0.22678404764E+02  0.47962502503E+02  0.00000000000E+00 0. -1.
         13    1    4    4    0    0  0.65951428426E+02  0.16302554379E+03  0.84053331157E+02  0.19491506180E+03  0.00000000000E+00 0.  1.
         -1    1    1    2    0  502 -0.66239810824E+02 -0.17931575997E+03  0.32899971938E+03  0.38050317957E+03  0.00000000000E+00 0.  1.
<scales pt_clust_5="13000.00000" pt_clust_6="13000.00000" pt_clust_7="13000.00000" pt_clust_8="13000.00000" pt_clust_9="207.22493"></scales>
<clustering>
<clus scale="   80.873">  5  6 -1 -1</clus>
<clus scale="   84.994">  1  5  2 -1</clus>
<clus scale="   96.596">  7  8 -1 -1</clus>
<clus scale="  207.225">  2  9  1 -1</clus>
<clus scale="  207.225">  2  5  1 -1</clus>
</clustering>
</event>
<event>
 9    1  0.9171696E-005  0.9353973E+02  0.7546771E-02  0.1299977E+00
         21   -1    0    0  501  502  0.00000000000E+00  0.00000000000E+00  0.51791145395E+02  0.51791145395E+02  0.00000000000E+00 0. -1.
         -4   -1    0    0    0  501 -0.00000000000E+00 -0.00000000000E+00 -0.27944344598E+03  0.27944344598E+03  0.00000000000E+00 0.  1.
        -24    2    1    2    0    0  0.19361081732E+01  0.12312302246E+02 -0.86684186702E+02  0.11944381738E+03  0.81223986506E+02 0.  0.
         23    2    1    2    0    0  0.51358509331E+02 -0.11443735467E+02 -0.94541383736E+02  0.14110476453E+03  0.90574973204E+02 0.  0.
         11    1    3    3    0    0 -0.39416752481E+02  0.61971643447E+01 -0.35960309523E+02  0.53714328470E+02  0.00000000000E+00 0. -1.
        -12    1    3    3    0    0  0.41352860654E+02  0.61151379014E+01 -0.50723877179E+02  0.65729488907E+02  0.00000000000E+00 0.  1.
        -11    1    4    4    0    0  0.71961629485E+02  0.12481135190E+02 -0.62606787208E+02  0.96197009612E+02  0.00000000000E+00 0. -1.
         11    1    4    4    0    0 -0.20603120154E+02 -0.23924870657E+02 -0.31934596527E+02  0.44907754914E+02  0.00000000000E+00 0.  1.
         -3    1    1    2    0  502 -0.53294617504E+02 -0.86856677935E+00 -0.46426730150E+02  0.70686009475E+02  0.00000000000E+00 0.  1.
<scales pt_clust_5="13000.00000" pt_clust_6="13000.00000" pt_clust_7="13000.00000" pt_clust_8="13000.00000" pt_clust_9="53.30169"></scales>
<clustering>
<clus scale="   53.302">  1  9  2 -1</clus>
<clus scale="   81.224">  5  6 -1 -1</clus>
<clus scale="   84.517">  2  5  1 -1</clus>
<clus scale="   90.575">  7  8 -1 -1</clus>
<clus scale="   53.302">  1  5  2 -1</clus>
</clustering>
</event>
<event>
 9    1  0.9171696E-005  0.3180047E+03  0.7546771E-02  0.1108232E+00
          1   -1    0    0  502    0 -0.00000000000E+00  0.00000000000E+00  0.36509288957E+03  0.36509288957E+03  0.00000000000E+00 0. -1.
         21   -1    0    0  501  502  0.00000000000E+00 -0.00000000000E+00 -0.42909654378E+03  0.42909654378E+03  0.00000000000E+00 0. -1.
        -24    2    1    2    0    0 -0.67314886034E+02  0.10223476502E+03 -0.14306568979E+02  0.13893569954E+03  0.64149899695E+02 0.  0.
         23    2    1    2    0    0 -0.15200092636E+03 -0.29655841759E+03  0.37784362420E+02  0.34945296338E+03  0.98176060805E+02 0.  0.
         11    1    3    3    0    0 -0.37354899649E+02  0.98180923983E+02 -0.22881417963E+02  0.10751019324E+03  0.00000000000E+00 0. -1.
        -12    1    3    3    0    0 -0.29959986385E+02  0.40538410347E+01  0.85748489835E+01  0.31425506303E+02  0.00000000000E+00 0.  1.
        -13    1    4    4    0    0 -0.85973302911E+02 -0.19075301122E+03 -0.23398599839E+02  0.21053649227E+03  0.00000000000E+00 0. -1.
         13    1    4    4    0    0 -0.66027623450E+02 -0.10580540637E+03  0.61182962259E+02  0.13891647111E+03  0.00000000000E+00 0.  1.
          2    1    1    2  501    0  0.21931581239E+03  0.19432365257E+03 -0.87481447652E+02  0.30580077044E+03  0.00000000000E+00 0. -1.
<scales pt_clust_5="13000.00000" pt_clust_6="13000.00000" pt_clust_7="13000.00000" pt_clust_8="13000.00000" pt_clust_9="302.47059"></scales>
<clustering>
<clus scale="   64.150">  5  6 -1 -1</clus>
<clus scale="   98.176">  7  8 -1 -1</clus>
<clus scale="  138.197">  1  5  2 -1</clus>
<clus scale="  302.471">  2  9  1 -1</clus>
<clus scale="  302.471">  2  5  1 -1</clus>
</clustering>
</event>
<event>
 9    1  0.9171696E-005  0.1489393E+03  0.7546771E-02  0.1214485E+00
          1   -1    0    0  502    0 -0.00000000000E+00  0.00000000000E+00  0.30037189086E+03  0.30037189086E+03  0.00000000000E+00 0. -1.
         21   -1    0    0  501  502  0.00000000000E+00 -0.00000000000E+00 -0.15359114317E+03  0.15359114317E+03  0.00000000000E+00 0. -1.
         23    2    1    2    0    0 -0.66010274870E+02  0.12873221974E+02 -0.42533613982E+01  0.11353777860E+03  0.91376473197E+02 0.  0.
        -24    2    1    2    0    0 -0.56002555294E+02 -0.81586141978E+02  0.15539809267E+03  0.20032657431E+03  0.78673911846E+02 0.  0.
         11    1    4    4    0    0 -0.58185559415E+02 -0.17632976740E+02  0.91797515395E+02  0.11010569933E+03  0.00000000000E+00 0. -1.
        -12    1    4    4    0    0  0.21830041212E+01 -0.63953165238E+02  0.63600577278E+02  0.90220874974E+02  0.00000000000E+00 0.  1.
        -13    1    3    3    0    0 -0.18670647012E+02  0.45364944551E+02  0.17576674376E+02  0.52110562616E+02  0.00000000000E+00 0.  1.
         13    1    3    3    0    0 -0.47339627858E+02 -0.32491722577E+02 -0.21830035774E+02  0.61427215985E+02  0.00000000000E+00 0. -1.
          2    1    1    2  501    0  0.12201283016E+03  0.68712920003E+02 -0.43639835779E+01  0.14009868112E+03  0.00000000000E+00 0. -1.
<scales pt_clust_5="13000.00000" pt_clust_6="13000.00000" pt_clust_7="13000.00000" pt_clust_8="13000.00000" pt_clust_9="126.46479"></scales>
<clustering>
<clus scale="   78.674">  5  6 -1 -1</clus>
<clus scale="   91.376">  7  8 -1 -1</clus>
<clus scale="  113.458">  1  7  2 -1</clus>
<clus scale="  126.465">  2  9  1 -1</clus>
<clus scale="  126.465">  2  5  1 -1</clus>
</clustering>
</event>
<event>
 9    1  0.9171696E-005  0.1072695E+03  0.7546771E-02  0.1270080E+00
         21   -1    0    0  501  502  0.00000000000E+00  0.00000000000E+00  0.84870837345E+03  0.84870837345E+03  0.00000000000E+00 0. -1.
         -2   -1    0    0    0  501 -0.00000000000E+00 -0.00000000000E+00 -0.86244801212E+02  0.86244801212E+02  0.00000000000E+00 0.  1.
         23    2    1    2    0    0  0.41495748266E+02 -0.48393473911E+02 -0.33421016764E+02  0.11616767293E+03  0.91181897496E+02 0.  0.
        -24    2    1    2    0    0 -0.43799761855E+02 -0.26098200517E+02  0.24619223185E+03  0.26406394496E+03  0.80744144029E+02 0.  0.
         11    1    4    4    0    0 -0.46710770184E+02 -0.51715249006E+02  0.18234573924E+03  0.19520843130E+03  0.00000000000E+00 0. -1.
        -12    1    4    4    0    0  0.29110083297E+01  0.25617048489E+02  0.63846492605E+02  0.68855513655E+02  0.00000000000E+00 0.  1.
        -13    1    3    3    0    0  0.65500090107E+02 -0.25419314797E+02 -0.41993737893E+02  0.81852778762E+02  0.00000000000E+00 0.  1.
         13    1    3    3    0    0 -0.24004341841E+02 -0.22974159114E+02  0.85727211292E+01  0.34314894168E+02  0.00000000000E+00 0. -1.
         -1    1    1    2    0  502  0.23040135888E+01  0.74491674428E+02  0.54969235716E+03  0.55472155678E+03  0.00000000000E+00 0.  1.
<scales pt_clust_5="13000.00000" pt_clust_6="13000.00000" pt_clust_7="13000.00000" pt_clust_8="13000.00000" pt_clust_9="74.52730"></scales>
<clustering>
<clus scale="   74.527">  1  9  2 -1</clus>
<clus scale="   80.744">  5  6 -1 -1</clus>
<clus scale="   91.182">  7  8 -1 -1</clus>
<clus scale="   98.551">  1  5  2 -1</clus>
<clus scale="   74.527">  1  5  2 -1</clus>
</clustering>
</event>
<event>
 9    1  0.9171696E-005  0.1241971E+03  0.7546771E-02  0.1252072E+00
         21   -1    0    0  501  502  0.00000000000E+00  0.00000000000E+00  0.27089403294E+03  0.27089403294E+03  0.00000000000E+00 0.  1.
         -2   -1    0    0    0  501 -0.00000000000E+00 -0.00000000000E+00 -0.10596612170E+03  0.10596612170E+03  0.00000000000E+00 0.  1.
        -24    2    1    2    0    0  0.34886646509E+02  0.22377120812E+02 -0.15757681761E+02  0.91772420530E+02  0.80349604822E+02 0.  0.
         23    2    1    2    0    0 -0.42614981874E+02  0.70652691949E+02  0.13130914409E+03  0.17948325060E+03  0.90356551312E+02 0.  0.
         11    1    3    3    0    0  0.44075997963E+02 -0.12628172991E+02  0.10528109301E+02  0.47042591712E+02  0.00000000000E+00 0. -1.
        -12    1    3    3    0    0 -0.91893514540E+01  0.35005293803E+02 -0.26285791062E+02  0.44729828818E+02  0.00000000000E+00 0.  1.
        -11    1    4    4    0    0 -0.21173534609E+02 -0.19049686718E+02  0.19375125937E+02  0.34447128138E+02  0.00000000000E+00 0. -1.
         11    1    4    4    0    0 -0.21441447265E+02  0.89702378667E+02  0.11193401815E+03  0.14503612246E+03  0.00000000000E+00 0.  1.
         -1    1    1    2    0  502  0.77283353655E+01 -0.93029812761E+02  0.49376448903E+02  0.10560448350E+03  0.00000000000E+00 0.  1.
<scales pt_clust_5="13000.00000" pt_clust_6="13000.00000" pt_clust_7="13000.00000" pt_clust_8="13000.00000" pt_clust_9="85.20934"></scales>
<clustering>
<clus scale="   80.350">  5  6 -1 -1</clus>
<clus scale="   90.357">  7  8 -1 -1</clus>
<clus scale="   90.409">  2  5  1 -1</clus>
<clus scale="   85.209">  1  9  2 -1</clus>
<clus scale="   85.209">  1  5  2 -1</clus>
</clustering>
</event>
<event>
 9    1  0.1247081E-004  0.1027251E+03  0.7546771E-02  0.1276903E+00
         21   -1    0    0  501  502  0.00000000000E+00  0.00000000000E+00  0.10095297350E+03  0.10095297350E+03  0.00000000000E+00 0.  1.
         -2   -1    0    0    0  501 -0.00000000000E+00 -0.00000000000E+00 -0.39878711821E+03  0.39878711821E+03  0.00000000000E+00 0.  1.
        -24    2    1    2    0    0 -0.45356506059E+02 -0.26827688538E+02 -0.33705738314E+03  0.35168508665E+03  0.85427063200E+02 0.  0.
         23    2    1    2    0    0 -0.17444621270E+01  0.29592399960E+02  0.31934927159E+02  0.10031336376E+03  0.90355841495E+02 0.  0.
         13    1    3    3    0    0  0.18270097329E+02  0.15315586861E+02 -0.70805826402E+02  0.74711637044E+02  0.00000000000E+00 0. -1.
        -14    1    3    3    0    0 -0.63626603387E+02 -0.42143275399E+02 -0.26625155674E+03  0.27697344961E+03  0.00000000000E+00 0.  1.
        -11    1    4    4    0    0 -0.37803954453E+02  0.17477627848E+02  0.43824719556E+02  0.60458353366E+02  0.00000000000E+00 0.  1.
         11    1    4    4    0    0  0.36059492326E+02  0.12114772112E+02 -0.11889792398E+02  0.39855010392E+02  0.00000000000E+00 0. -1.
         -1    1    1    2    0  502  0.47100968186E+02 -0.27647114219E+01  0.72883112727E+01  0.47741641305E+02  0.00000000000E+00 0.  1.
<scales pt_clust_5="13000.00000" pt_clust_6="13000.00000" pt_clust_7="13000.00000" pt_clust_8="13000.00000" pt_clust_9="47.18204"></scales>
<clustering>
<clus scale="   47.182">  1  9  2 -1</clus>
<clus scale="   85.427">  5  6 -1 -1</clus>
<clus scale="   90.356">  7  8 -1 -1</clus>
<clus scale="   98.418">  2  5  1 -1</clus>
<clus scale="   47.182">  1  5  2 -1</clus>
</clustering>
</event>
<event>
 9    1  0.9171696E-005  0.1329945E+03  0.7546771E-02  0.1223938E+00
         21   -1    0    0  501  502  0.00000000000E+00  0.00000000000E+00  0.43416216449E+03  0.43416216449E+03  0.00000000000E+00 0.  1.
          1   -1    0    0  502    0 -0.00000000000E+00 -0.00000000000E+00 -0.32031866993E+03  0.32031866993E+03  0.00000000000E+00 0. -1.
         23    2    1    2    0    0 -0.19292446623E+02  0.99862052513E+02 -0.28869374901E+03  0.31768965530E+03  0.85076485251E+02 0.  0.
        -24    2    1    2    0    0  0.37439089841E+01 -0.11722898379E+03  0.37150744540E+03  0.39798118429E+03  0.81330127031E+02 0.  0.
         13    1    4    4    0    0 -0.38208889326E+02 -0.46934187750E+02  0.14436900240E+03  0.15654119604E+03  0.00000000000E+00 0. -1.
        -14    1    4    4    0    0  0.41952798310E+02 -0.70294796040E+02  0.22713844300E+03  0.24143998824E+03  0.00000000000E+00 0.  1.
        -13    1    3    3    0    0 -0.51033511346E+02  0.55063179087E+02 -0.19692606126E+03  0.21075162294E+03  0.00000000000E+00 0.  1.
         13    1    3    3    0    0  0.31741064723E+02  0.44798873426E+02 -0.91767687748E+02  0.10693803236E+03  0.00000000000E+00 0. -1.
          2    1    1    2  501    0  0.15548537639E+02  0.17366931277E+02  0.31029798170E+02  0.38809994836E+02  0.00000000000E+00 0. -1.
<scales pt_clust_5="13000.00000" pt_clust_6="13000.00000" pt_clust_7="13000.00000" pt_clust_8="13000.00000" pt_clust_9="23.31024"></scales>
<clustering>
<clus scale="   23.310">  1  9  2 -1</clus>
<clus scale="   81.330">  5  6 -1 -1</clus>
<clus scale="   85.076">  7  8 -1 -1</clus>
<clus scale="  130.630">  1  5  2 -1</clus>
<clus scale="   23.310">  1  5  2 -1</clus>
</clustering>
</event>
<event>
 9    1  0.9171696E-005  0.9926204E+02  0.7546771E-02  0.1286952E+00
          3   -1    0    0  502    0 -0.00000000000E+00  0.00000000000E+00  0.63896663947E+03  0.63896663947E+03  0.00000000000E+00 0. -1.
         21   -1    0    0  501  502  0.00000000000E+00 -0.00000000000E+00 -0.85758364456E+02  0.85758364456E+02  0.00000000000E+00 0. -1.
        -24    2    1    2    0    0  0.19226443644E+02  0.39620241277E+02  0.39988439954E+03  0.41047427015E+03  0.81499532512E+02 0.  0.
         23    2    1    2    0    0  0.49475789380E+01  0.38340758924E+02 -0.37928689197E+02  0.10630880820E+03  0.91479423399E+02 0.  0.
         13    1    3    3    0    0 -0.30872417330E+02  0.26846918080E+02  0.18114798843E+03  0.18571068056E+03  0.00000000000E+00 0. -1.
        -14    1    3    3    0    0  0.50098860974E+02  0.12773323197E+02  0.21873641111E+03  0.22476358958E+03  0.00000000000E+00 0.  1.
        -13    1    4    4    0    0  0.63596016767E+01  0.61208118456E+02  0.53353299968E+00  0.61539929768E+02  0.00000000000E+00 0.  1.
         13    1    4    4    0    0 -0.14120227388E+01 -0.22867359532E+02 -0.38462222197E+02  0.44768878437E+02  0.00000000000E+00 0. -1.
          4    1    1    2  501    0 -0.24174022582E+02 -0.77961000201E+02  0.19125256467E+03  0.20794192557E+03  0.00000000000E+00 0. -1.
<scales pt_clust_5="13000.00000" pt_clust_6="13000.00000" pt_clust_7="13000.00000" pt_clust_8="13000.00000" pt_clust_9="81.62296"></scales>
<clustering>
<clus scale="   81.500">  5  6 -1 -1</clus>
<clus scale="   81.623">  2  9  1 -1</clus>
<clus scale="   90.148">  1  5  2 -1</clus>
<clus scale="   91.479">  7  8 -1 -1</clus>
<clus scale="   81.623">  2  5  1 -1</clus>
</clustering>
</event>
<event>
 9    1  0.9171696E-005  0.1193673E+03  0.7546771E-02  0.1248640E+00
         -4   -1    0    0    0  501 -0.00000000000E+00  0.00000000000E+00  0.14509650300E+03  0.14509650300E+03  0.00000000000E+00 0.  1.
         21   -1    0    0  501  502  0.00000000000E+00 -0.00000000000E+00 -0.20894470799E+03  0.20894470799E+03  0.00000000000E+00 0. -1.
         23    2    1    2    0    0 -0.68211762535E+02 -0.38069984111E+02 -0.70217307104E+02  0.14017549237E+03  0.92825267064E+02 0.  0.
        -24    2    1    2    0    0  0.40519533797E+02  0.65443325619E+02 -0.68189111082E+02  0.12975218514E+03  0.79127828178E+02 0.  0.
         13    1    4    4    0    0  0.63806599664E+02  0.38657484498E+02 -0.41725277188E+02  0.85479132102E+02  0.00000000000E+00 0. -1.
        -14    1    4    4    0    0 -0.23287065868E+02  0.26785841122E+02 -0.26463833893E+02  0.44273053042E+02  0.00000000000E+00 0.  1.
        -11    1    3    3    0    0 -0.20851260474E+02  0.10753492528E+02 -0.68203155738E+02  0.72125467884E+02  0.00000000000E+00 0. -1.
         11    1    3    3    0    0 -0.47360502061E+02 -0.48823476639E+02 -0.20141513664E+01  0.68050024484E+02  0.00000000000E+00 0.  1.
         -3    1    1    2    0  502  0.27692228738E+02 -0.27373341508E+02  0.74558213196E+02  0.84113533470E+02  0.00000000000E+00 0.  1.
<scales pt_clust_5="13000.00000" pt_clust_6="13000.00000" pt_clust_7="13000.00000" pt_clust_8="13000.00000" pt_clust_9="38.93791"></scales>
<clustering>
<clus scale="   38.938">  2  9  1 -1</clus>
<clus scale="   79.128">  5  6 -1 -1</clus>
<clus scale="   92.825">  7  8 -1 -1</clus>
<clus scale="  109.056">  2  5  1 -1</clus>
<clus scale="   38.938">  2  5  1 -1</clus>
</clustering>
</event>
<event>
 9    1  0.9171696E-005  0.1254925E+03  0.7546771E-02  0.1237519E+00
         21   -1    0    0  501  502  0.00000000000E+00  0.00000000000E+00  0.14897100152E+03  0.14897100152E+03  0.00000000000E+00 0. -1.
          1   -1    0    0  502    0 -0.00000000000E+00 -0.00000000000E+00 -0.20173985363E+03  0.20173985363E+03  0.00000000000E+00 0. -1.
        -24    2    1    2    0    0  0.21061251997E+02 -0.82844835887E+02 -0.51863938164E+02  0.13032894776E+03  0.83599780944E+02 0.  0.
         23    2    1    2    0    0  0.24446217805E+02  0.80285821181E+02  0.63529718868E+02  0.14145599105E+03  0.94500484537E+02 0.  0.
         11    1    3    3    0    0  0.49007921252E+02 -0.36596891006E+02 -0.44836036464E+02  0.75837846373E+02  0.00000000000E+00 0. -1.
        -12    1    3    3    0    0 -0.27946669255E+02 -0.46247944881E+02 -0.70279017003E+01  0.54491101389E+02  0.00000000000E+00 0.  1.
        -11    1    4    4    0    0  0.54608271566E+02  0.28059810667E+02  0.12956176214E+02  0.62747739403E+02  0.00000000000E+00 0.  1.
         11    1    4    4    0    0 -0.30162053761E+02  0.52226010515E+02  0.50573542654E+02  0.78708251651E+02  0.00000000000E+00 0. -1.
          2    1    1    2  501    0 -0.45507469802E+02  0.25590147062E+01 -0.64434632811E+02  0.78925916336E+02  0.00000000000E+00 0. -1.
<scales pt_clust_5="13000.00000" pt_clust_6="13000.00000" pt_clust_7="13000.00000" pt_clust_8="13000.00000" pt_clust_9="45.57939"></scales>
<clustering>
<clus scale="   45.579">  1  9  2 -1</clus>
<clus scale="   83.600">  5  6 -1 -1</clus>
<clus scale="   94.500">  7  8 -1 -1</clus>
<clus scale="  117.503">  2  5  1 -1</clus>
<clus scale="   45.579">  1  5  2 -1</clus>
</clustering>
</event>
<event>
 9    1  0.9171696E-005  0.3224615E+03  0.7546771E-02  0.1074842E+00
         21   -1    0    0  501  502  0.00000000000E+00  0.00000000000E+00  0.92876338933E+03  0.92876338933E+03  0.00000000000E+00 0. -1.
          1   -1    0    0  502    0 -0.00000000000E+00 -0.00000000000E+00 -0.13471867579E+03  0.13471867579E+03  0.00000000000E+00 0. -1.
        -24    2    1    2    0    0  0.31285245533E+03 -0.24506582322E+02  0.24869125861E+03  0.40840177867E+03  0.80420391242E+02 0.  0.
         23    2    1    2    0    0 -0.30354998008E+03 -0.19875063144E+02  0.48200560378E+03  0.57717510854E+03  0.90907069562E+02 0.  0.
         11    1    3    3    0    0  0.23831778267E+03 -0.49762622643E+02  0.16874625765E+03  0.29622117348E+03  0.00000000000E+00 0. -1.
        -12    1    3    3    0    0  0.74534672666E+02  0.25256040321E+02  0.79945000966E+02  0.11218060519E+03  0.00000000000E+00 0.  1.
        -11    1    4    4    0    0 -0.15409226237E+03  0.29630080617E+02  0.20015468488E+03  0.25433101439E+03  0.00000000000E+00 0. -1.
         11    1    4    4    0    0 -0.14945771771E+03 -0.49505143762E+02  0.28185091890E+03  0.32284409415E+03  0.00000000000E+00 0.  1.
          2    1    1    2  501    0 -0.93024752587E+01  0.44381645466E+02  0.63347851150E+02  0.77905177912E+02  0.00000000000E+00 0. -1.
<scales pt_clust_5="13000.00000" pt_clust_6="13000.00000" pt_clust_7="13000.00000" pt_clust_8="13000.00000" pt_clust_9="45.34607"></scales>
<clustering>
<clus scale="   45.346">  1  9  2 -1</clus>
<clus scale="   80.420">  5  6 -1 -1</clus>
<clus scale="   90.907">  7  8 -1 -1</clus>
<clus scale="  319.664">  2  5  1 -1</clus>
<clus scale="   45.346">  1  5  2 -1</clus>
</clustering>
</event>
<event>
 9    1  0.9912402E-005  0.9782224E+02  0.7546771E-02  0.1288752E+00
         -4   -1    0    0    0  501 -0.00000000000E+00  0.00000000000E+00  0.47812625928E+03  0.47812625928E+03  0.00000000000E+00 0.  1.
         21   -1    0    0  501  502  0.00000000000E+00 -0.00000000000E+00 -0.24235324103E+03  0.24235324103E+03  0.00000000000E+00 0.  1.
         23    2    1    2    0    0  0.22351769530E+02  0.14282593011E+02  0.42783835715E+03  0.43876469471E+03  0.93622665027E+02 0.  0.
        -24    2    1    2    0    0 -0.31103040075E+02 -0.38444001332E+02 -0.12639909333E+02  0.10045851423E+03  0.86526327974E+02 0.  0.
         13    1    4    4    0    0 -0.55352801797E+02 -0.41233260092E+02 -0.24601201534E+02  0.73275736240E+02  0.00000000000E+00 0. -1.
        -14    1    4    4    0    0  0.24249761722E+02  0.27892587604E+01  0.11961292201E+02  0.27182777988E+02  0.00000000000E+00 0.  1.
        -13    1    3    3    0    0 -0.35520852452E+02  0.11154620732E+02  0.12485393571E+03  0.13028684425E+03  0.00000000000E+00 0. -1.
         13    1    3    3    0    0  0.57872621982E+02  0.31279722785E+01  0.30298442144E+03  0.30847785045E+03  0.00000000000E+00 0.  1.
         -3    1    1    2    0  502  0.87512705447E+01  0.24161408321E+02 -0.17942542957E+03  0.18125629138E+03  0.00000000000E+00 0.  1.
<scales pt_clust_5="13000.00000" pt_clust_6="13000.00000" pt_clust_7="13000.00000" pt_clust_8="13000.00000" pt_clust_9="25.69744"></scales>
<clustering>
<clus scale="   25.697">  2  9  1 -1</clus>
<clus scale="   86.526">  5  6 -1 -1</clus>
<clus scale="   91.054">  2  5  1 -1</clus>
<clus scale="   93.623">  7  8 -1 -1</clus>
<clus scale="   25.697">  2  5  1 -1</clus>
</clustering>
</event>
<event>
 9    1  0.9171696E-005  0.9143484E+02  0.7546771E-02  0.1305821E+00
          1   -1    0    0  502    0 -0.00000000000E+00  0.00000000000E+00  0.24451937774E+03  0.24451937774E+03  0.00000000000E+00 0. -1.
         21   -1    0    0  501  502  0.00000000000E+00 -0.00000000000E+00 -0.11515781147E+03  0.11515781147E+03  0.00000000000E+00 0.  1.
         23    2    1    2    0    0  0.44308330070E+01 -0.74899885255E+01  0.17283487067E+03  0.19547969393E+03  0.90910318509E+02 0.  0.
        -24    2    1    2    0    0 -0.42982360180E+02 -0.21709906102E+02 -0.61807982370E+02  0.11247695284E+03  0.80697180414E+02 0.  0.
         11    1    4    4    0    0 -0.31199526954E+02  0.11130387452E+01  0.12671503056E+02  0.33692971479E+02  0.00000000000E+00 0. -1.
        -12    1    4    4    0    0 -0.11782833226E+02 -0.22822944847E+02 -0.74479485426E+02  0.78783981365E+02  0.00000000000E+00 0.  1.
        -11    1    3    3    0    0 -0.33993262041E+02  0.20706734802E+02  0.10731803269E+03  0.11446165677E+03  0.00000000000E+00 0.  1.
         11    1    3    3    0    0  0.38424095048E+02 -0.28196723328E+02  0.65516837983E+02  0.81018037165E+02  0.00000000000E+00 0. -1.
          2    1    1    2  501    0  0.38551527173E+02  0.29199894627E+02  0.18334677967E+02  0.51720542435E+02  0.00000000000E+00 0. -1.
<scales pt_clust_5="13000.00000" pt_clust_6="13000.00000" pt_clust_7="13000.00000" pt_clust_8="13000.00000" pt_clust_9="48.36170"></scales>
<clustering>
<clus scale="   48.362">  2  9  1 -1</clus>
<clus scale="   80.697">  5  6 -1 -1</clus>
<clus scale="   81.288">  2  5  1 -1</clus>
<clus scale="   90.910">  7  8 -1 -1</clus>
<clus scale="   48.362">  2  5  1 -1</clus>
</clustering>
</event>
<event>
 9    1  0.9171696E-005  0.1145543E+03  0.7546771E-02  0.1256716E+00
         21   -1    0    0  501  502  0.00000000000E+00  0.00000000000E+00  0.88173607983E+03  0.88173607983E+03  0.00000000000E+00 0.  1.
         -4   -1    0    0    0  501 -0.00000000000E+00 -0.00000000000E+00 -0.30225297084E+02  0.30225297084E+02  0.00000000000E+00 0.  1.
         23    2    1    2    0    0 -0.70308065140E+02 -0.25976226667E+02  0.13995594705E+03  0.18393002999E+03  0.92868726937E+02 0.  0.
        -24    2    1    2    0    0  0.39365808633E+02 -0.28402606563E+01  0.62769656809E+03  0.63411637354E+03  0.80887944885E+02 0.  0.
         11    1    4    4    0    0  0.31479910676E+02 -0.16557717221E+02  0.99216764421E+02  0.10539975862E+03  0.00000000000E+00 0. -1.
        -12    1    4    4    0    0  0.78858979569E+01  0.13717456564E+02  0.52847980367E+03  0.52871661492E+03  0.00000000000E+00 0.  1.
        -13    1    3    3    0    0 -0.98839193381E+01  0.28992312317E+02  0.13704034460E+02  0.33556617760E+02  0.00000000000E+00 0. -1.
         13    1    3    3    0    0 -0.60424145802E+02 -0.54968538984E+02  0.12625191259E+03  0.15037341223E+03  0.00000000000E+00 0.  1.
         -3    1    1    2    0  502  0.30942256508E+02  0.28816487323E+02  0.83858267601E+02  0.93914973378E+02  0.00000000000E+00 0.  1.
<scales pt_clust_5="13000.00000" pt_clust_6="13000.00000" pt_clust_7="13000.00000" pt_clust_8="13000.00000" pt_clust_9="42.28256"></scales>
<clustering>
<clus scale="   42.283">  1  9  2 -1</clus>
<clus scale="   80.888">  5  6 -1 -1</clus>
<clus scale="   92.869">  7  8 -1 -1</clus>
<clus scale="  105.076">  1  5  2 -1</clus>
<clus scale="   42.283">  1  5  2 -1</clus>
</clustering>
</event>
<event>
 9    1  0.9171696E-005  0.1948153E+03  0.7546771E-02  0.1154760E+00
          1   -1    0    0  502    0 -0.00000000000E+00  0.00000000000E+00  0.58649896535E+03  0.58649896535E+03  0.00000000000E+00 0. -1.
         21   -1    0    0  501  502  0.00000000000E+00 -0.00000000000E+00 -0.11270811601E+03  0.11270811601E+03  0.00000000000E+00 0. -1.
         23    2    1    2    0    0 -0.13954463894E+03 -0.15662871976E+01  0.11726908915E+03  0.19748088518E+03  0.75970397063E+02 0.  0.
        -24    2    1    2    0    0  0.23235286334E+03  0.42417273465E+01  0.19073115438E+03  0.31170764585E+03  0.82325195888E+02 0.  0.
         13    1    4    4    0    0  0.12528482803E+03  0.42436886105E+02  0.91808145270E+02  0.16101525696E+03  0.00000000000E+00 0. -1.
        -14    1    4    4    0    0  0.10706803531E+03 -0.38195158758E+02  0.98923009108E+02  0.15069238889E+03  0.00000000000E+00 0.  1.
        -11    1    3    3    0    0 -0.51236220521E+02 -0.19802259648E+02  0.85992202349E+02  0.10203890751E+03  0.00000000000E+00 0.  1.
         11    1    3    3    0    0 -0.88308418416E+02  0.18235972450E+02  0.31276886804E+02  0.95441977675E+02  0.00000000000E+00 0. -1.
          2    1    1    2  501    0 -0.92808224404E+02 -0.26754401488E+01  0.16579060580E+03  0.19001855033E+03  0.00000000000E+00 0. -1.
<scales pt_clust_5="13000.00000" pt_clust_6="13000.00000" pt_clust_7="13000.00000" pt_clust_8="13000.00000" pt_clust_9="92.84683"></scales>
<clustering>
<clus scale="   75.970">  7  8 -1 -1</clus>
<clus scale="   82.325">  5  6 -1 -1</clus>
<clus scale="   92.847">  2  9  1 -1</clus>
<clus scale="  192.216">  1  7  2 -1</clus>
<clus scale="   92.847">  2  5  1 -1</clus>
</clustering>
</event>
<event>
 9    1  0.9171696E-005  0.1355960E+03  0.7546771E-02  0.1221675E+00
          1   -1    0    0  502    0 -0.00000000000E+00  0.00000000000E+00  0.14028476041E+04  0.14028476041E+04  0.00000000000E+00 0. -1.
         21   -1    0    0  501  502  0.00000000000E+00 -0.00000000000E+00 -0.32305637684E+02  0.32305637684E+02  0.00000000000E+00 0. -1.
        -24    2    1    2    0    0 -0.83042826832E+02 -0.51662099198E+02  0.65026659684E+03  0.66256554503E+03  0.81125648967E+02 0.  0.
         23    2    1    2    0    0  0.37357516218E+02  0.13087009538E+03  0.29282356548E+03  0.33546517492E+03  0.90932267096E+02 0.  0.
         13    1    3    3    0    0 -0.86493888251E+02 -0.14096528266E+02  0.40131313874E+03  0.41077017923E+03  0.00000000000E+00 0. -1.
        -14    1    3    3    0    0  0.34510614194E+01 -0.37565570933E+02  0.24895345810E+03  0.25179536581E+03  0.00000000000E+00 0.  1.
        -11    1    4    4    0    0  0.13123662608E+02  0.13542240716E+03  0.22096461591E+03  0.25949339176E+03  0.00000000000E+00 0. -1.
         11    1    4    4    0    0  0.24233853610E+02 -0.45523117780E+01  0.71858949574E+02  0.75971783164E+02  0.00000000000E+00 0.  1.
          2    1    1    2  501    0  0.45685310613E+02 -0.79207996185E+02  0.42745180409E+03  0.43712252183E+03  0.00000000000E+00 0. -1.
<scales pt_clust_5="13000.00000" pt_clust_6="13000.00000" pt_clust_7="13000.00000" pt_clust_8="13000.00000" pt_clust_9="91.43885"></scales>
<clustering>
<clus scale="   81.126">  5  6 -1 -1</clus>
<clus scale="   90.932">  7  8 -1 -1</clus>
<clus scale="   91.439">  2  9  1 -1</clus>
<clus scale="  129.224">  1  5  2 -1</clus>
<clus scale="   91.439">  2  5  1 -1</clus>
</clustering>
</event>
<event>
 9    1  0.9171696E-005  0.1789850E+03  0.7546771E-02  0.1169405E+00
         21   -1    0    0  501  502  0.00000000000E+00  0.00000000000E+00  0.29802014540E+03  0.29802014540E+03  0.00000000000E+00 0. -1.
          1   -1    0    0  502    0 -0.00000000000E+00 -0.00000000000E+00 -0.19987625993E+03  0.19987625993E+03  0.00000000000E+00 0. -1.
         23    2    1    2    0    0  0.75289005579E+01  0.14304419553E+03  0.36440145594E+02  0.16544867707E+03  0.74344161269E+02 0.  0.
        -24    2    1    2    0    0  0.68719808129E+02 -0.18492011959E+03  0.10256347397E+03  0.23633853795E+03  0.80117261982E+02 0.  0.
         11    1    4    4    0    0  0.30166351922E+02 -0.12394190165E+03  0.24222550810E+02  0.12983965396E+03  0.00000000000E+00 0. -1.
        -12    1    4    4    0    0  0.38553456206E+02 -0.60978217941E+02  0.78340923162E+02  0.10649888399E+03  0.00000000000E+00 0.  1.
        -13    1    3    3    0    0  0.32358036710E+02  0.11484157978E+03  0.43913423846E+02  0.12713779839E+03  0.00000000000E+00 0. -1.
         13    1    3    3    0    0 -0.24829136153E+02  0.28202615753E+02 -0.74732782524E+01  0.38310878680E+02  0.00000000000E+00 0.  1.
          2    1    1    2  501    0 -0.76248708687E+02  0.41875924057E+02 -0.40859734102E+02  0.96109190315E+02  0.00000000000E+00 0. -1.
<scales pt_clust_5="13000.00000" pt_clust_6="13000.00000" pt_clust_7="13000.00000" pt_clust_8="13000.00000" pt_clust_9="86.99118"></scales>
<clustering>
<clus scale="   74.344">  7  8 -1 -1</clus>
<clus scale="   80.117">  5  6 -1 -1</clus>
<clus scale="   86.991">  1  9  2 -1</clus>
<clus scale="  176.476">  2  7  1 -1</clus>
<clus scale="   86.991">  1  5  2 -1</clus>
</clustering>
</event>
<event>
 9    1  0.9171696E-005  0.1270606E+03  0.7546771E-02  0.1234960E+00
         -4   -1    0    0    0  501 -0.00000000000E+00  0.00000000000E+00  0.53094510912E+02  0.53094510912E+02  0.00000000000E+00 0.  1.
         21   -1    0    0  501  502  0.00000000000E+00 -0.00000000000E+00 -0.10448206662E+04  0.10448206662E+04  0.00000000000E+00 0.  1.
         23    2    1    2    0    0  0.92107831596E+02  0.12120548398E+02 -0.41779959402E+02  0.13691582521E+03  0.91485615532E+02 0.  0.
        -24    2    1    2    0    0 -0.48072217335E+02 -0.14773950139E+01 -0.75895579314E+03  0.76470939807E+03  0.80333347827E+02 0.  0.
         11    1    4    4    0    0 -0.61038081200E+02  0.31021636106E+01 -0.33491958966E+03  0.34045029346E+03  0.00000000000E+00 0. -1.
        -12    1    4    4    0    0  0.12965863865E+02 -0.45795586245E+01 -0.42403620348E+03  0.42425910461E+03  0.00000000000E+00 0.  1.
        -13    1    3    3    0    0  0.89755766837E+02 -0.23199978803E+02 -0.41362782544E+02  0.10151461213E+03  0.00000000000E+00 0.  1.
         13    1    3    3    0    0  0.23520647592E+01  0.35320527201E+02 -0.41717685768E+00  0.35401213071E+02  0.00000000000E+00 0. -1.
         -3    1    1    2    0  502 -0.44035614261E+02 -0.10643153384E+02 -0.19099040271E+03  0.19628995380E+03  0.00000000000E+00 0.  1.
<scales pt_clust_5="13000.00000" pt_clust_6="13000.00000" pt_clust_7="13000.00000" pt_clust_8="13000.00000" pt_clust_9="45.30355"></scales>
<clustering>
<clus scale="   45.304">  2  9  1 -1</clus>
<clus scale="   80.333">  5  6 -1 -1</clus>
<clus scale="   91.486">  7  8 -1 -1</clus>
<clus scale="  119.282">  2  5  1 -1</clus>
<clus scale="   45.304">  2  5  1 -1</clus>
</clustering>
</event>
<event>
 9    1  0.9171696E-005  0.2061625E+03  0.7546771E-02  0.1145999E+00
          1   -1    0    0  502    0 -0.00000000000E+00  0.00000000000E+00  0.17582461343E+03  0.17582461343E+03  0.00000000000E+00 0. -1.
         21   -1    0    0  501  502  0.00000000000E+00 -0.00000000000E+00 -0.37026055961E+03  0.37026055961E+03  0.00000000000E+00 0. -1.
         23    2    1    2    0    0 -0.11292184169E+03 -0.18580280685E+03 -0.87680785759E+02  0.25252313929E+03  0.93840238263E+02 0.  0.
        -24    2    1    2    0    0  0.85810397566E+02  0.12119604205E+03 -0.13753649257E+03  0.21703390252E+03  0.78329580088E+02 0.  0.
         13    1    4    4    0    0  0.94850720528E+02  0.78615491461E+02 -0.11241219517E+03  0.16677396771E+03  0.00000000000E+00 0. -1.
        -14    1    4    4    0    0 -0.90403229616E+01  0.42580550588E+02 -0.25124297398E+02  0.50259934813E+02  0.00000000000E+00 0.  1.
        -13    1    3    3    0    0 -0.42176173473E+02 -0.13579201040E+02  0.49168424863E+01  0.44580260764E+02  0.00000000000E+00 0.  1.
         13    1    3    3    0    0 -0.70745668221E+02 -0.17222360581E+03 -0.92597628246E+02  0.20794287852E+03  0.00000000000E+00 0. -1.
          2    1    1    2  501    0  0.27111444128E+02  0.64606764804E+02  0.30781332146E+02  0.76528131232E+02  0.00000000000E+00 0. -1.
<scales pt_clust_5="13000.00000" pt_clust_6="13000.00000" pt_clust_7="13000.00000" pt_clust_8="13000.00000" pt_clust_9="70.06475"></scales>
<clustering>
<clus scale="   70.065">  2  9  1 -1</clus>
<clus scale="   78.330">  5  6 -1 -1</clus>
<clus scale="   93.840">  7  8 -1 -1</clus>
<clus scale="  199.581">  2  5  1 -1</clus>
<clus scale="   70.065">  2  5  1 -1</clus>
</clustering>
</event>
<event>
 9    1  0.9171696E-005  0.1513625E+03  0.7546771E-02  0.1200903E+00
         21   -1    0    0  501  502  0.00000000000E+00  0.00000000000E+00  0.56277156132E+03  0.56277156132E+03  0.00000000000E+00 0.  1.
         -4   -1    0    0    0  501 -0.00000000000E+00 -0.00000000000E+00 -0.11773756726E+03  0.11773756726E+03  0.00000000000E+00 0.  1.
         23    2    1    2    0    0  0.59941871493E+02  0.11266350332E+03 -0.40353242154E+02  0.16280971159E+03  0.92695874217E+02 0.  0.
        -24    2    1    2    0    0 -0.39220052592E+02 -0.78592861620E+02  0.23040606040E+03  0.25961880474E+03  0.81239895874E+02 0.  0.
         13    1    4    4    0    0 -0.36312834780E+02 -0.39434317768E+02  0.20716848139E+03  0.21399174533E+03  0.00000000000E+00 0. -1.
        -14    1    4    4    0    0 -0.29072178125E+01 -0.39158543852E+02  0.23237579009E+02  0.45627059408E+02  0.00000000000E+00 0.  1.
        -13    1    3    3    0    0  0.25615456876E+02  0.10566811191E+03 -0.58381415607E+02  0.12341106593E+03  0.00000000000E+00 0.  1.
         13    1    3    3    0    0  0.34326414617E+02  0.69953914049E+01  0.18028173453E+02  0.39398645655E+02  0.00000000000E+00 0. -1.
         -3    1    1    2    0  502 -0.20721818901E+02 -0.34070641700E+02  0.25498117581E+03  0.25808061226E+03  0.00000000000E+00 0.  1.
<scales pt_clust_5="13000.00000" pt_clust_6="13000.00000" pt_clust_7="13000.00000" pt_clust_8="13000.00000" pt_clust_9="39.87734"></scales>
<clustering>
<clus scale="   39.877">  1  9  2 -1</clus>
<clus scale="   81.240">  5  6 -1 -1</clus>
<clus scale="   92.696">  7  8 -1 -1</clus>
<clus scale="  144.631">  1  5  2 -1</clus>
<clus scale="   39.877">  1  5  2 -1</clus>
</clustering>
</event>
<event>
 9    1  0.9171696E-005  0.1095186E+03  0.7546771E-02  0.1273385E+00
         21   -1    0    0  501  502  0.00000000000E+00  0.00000000000E+00  0.39589572259E+02  0.39589572259E+02  0.00000000000E+00 0.  1.
          1   -1    0    0  502    0 -0.00000000000E+00 -0.00000000000E+00 -0.88684910258E+03  0.88684910258E+03  0.00000000000E+00 0. -1.
        -24    2    1    2    0    0 -0.33970709398E+02 -0.29805021969E+01 -0.16998248677E+03  0.19090088980E+03  0.79913774968E+02 0.  0.
         23    2    1    2    0    0 -0.49436519450E+02 -0.24112276423E+02 -0.84299180265E+02  0.13611011565E+03  0.91620087638E+02 0.  0.
         13    1    3    3    0    0 -0.37756528304E+01  0.35387970385E+02 -0.94753467332E+02  0.10121651829E+03  0.00000000000E+00 0. -1.
        -14    1    3    3    0    0 -0.30195056567E+02 -0.38368472582E+02 -0.75229019436E+02  0.89684371518E+02  0.00000000000E+00 0.  1.
        -13    1    4    4    0    0  0.20926317252E+02 -0.36519281475E+01 -0.51728444445E+02  0.55920294149E+02  0.00000000000E+00 0. -1.
         13    1    4    4    0    0 -0.70362836702E+02 -0.20460348276E+02 -0.32570735819E+02  0.80189821500E+02  0.00000000000E+00 0.  1.
          2    1    1    2  501    0  0.83407228848E+02  0.27092778620E+02 -0.59297786329E+03  0.59942766939E+03  0.00000000000E+00 0. -1.
<scales pt_clust_5="13000.00000" pt_clust_6="13000.00000" pt_clust_7="13000.00000" pt_clust_8="13000.00000" pt_clust_9="60.00080"></scales>
<clustering>
<clus scale="   79.914">  5  6 -1 -1</clus>
<clus scale="   86.886">  2  5  1 -1</clus>
<clus scale="   60.001">  1  9  2 -1</clus>
<clus scale="   91.620">  7  8 -1 -1</clus>
<clus scale="   60.001">  1  5  2 -1</clus>
</clustering>
</event>
<event>
 9    1  0.9171696E-005  0.1116724E+03  0.7546771E-02  0.1261921E+00
         21   -1    0    0  501  502  0.00000000000E+00  0.00000000000E+00  0.22904265763E+03  0.22904265763E+03  0.00000000000E+00 0. -1.
          1   -1    0    0  502    0 -0.00000000000E+00 -0.00000000000E+00 -0.27068051193E+03  0.27068051193E+03  0.00000000000E+00 0. -1.
        -24    2    1    2    0    0 -0.57985274776E+02 -0.27285694300E+02 -0.22387137634E+03  0.24719828545E+03  0.82956603005E+02 0.  0.
         23    2    1    2    0    0  0.21579623328E+01  0.48467188313E+02  0.75053799001E+02  0.12983487826E+03  0.94182258012E+02 0.  0.
         13    1    3    3    0    0 -0.75629974676E+02 -0.33703956702E+02 -0.15399886030E+03  0.17484707244E+03  0.00000000000E+00 0. -1.
        -14    1    3    3    0    0  0.17644699900E+02  0.64182624014E+01 -0.69872516035E+02  0.72351213009E+02  0.00000000000E+00 0.  1.
        -11    1    4    4    0    0  0.12725637543E+02 -0.26928871945E+02  0.22409465064E+02  0.37273182310E+02  0.00000000000E+00 0.  1.
         11    1    4    4    0    0 -0.10567675210E+02  0.75396060257E+02  0.52644333937E+02  0.92561695951E+02  0.00000000000E+00 0. -1.
          2    1    1    2  501    0  0.55827312443E+02 -0.21181494012E+02  0.10717972304E+03  0.12269000585E+03  0.00000000000E+00 0. -1.
<scales pt_clust_5="13000.00000" pt_clust_6="13000.00000" pt_clust_7="13000.00000" pt_clust_8="13000.00000" pt_clust_9="59.71051"></scales>
<clustering>
<clus scale="   59.711">  1  9  2 -1</clus>
<clus scale="   82.957">  5  6 -1 -1</clus>
<clus scale="   94.182">  7  8 -1 -1</clus>
<clus scale="  102.383">  2  5  1 -1</clus>
<clus scale="   59.711">  1  5  2 -1</clus>
</clustering>
</event>
<event>
 9    1  0.9171696E-005  0.9503266E+02  0.7546771E-02  0.1296302E+00
         21   -1    0    0  501  502  0.00000000000E+00  0.00000000000E+00  0.13286149971E+03  0.13286149971E+03  0.00000000000E+00 0. -1.
          1   -1    0    0  502    0 -0.00000000000E+00 -0.00000000000E+00 -0.13782839443E+03  0.13782839443E+03  0.00000000000E+00 0. -1.
        -24    2    1    2    0    0 -0.23933877488E+02 -0.28790978431E+02 -0.69009793315E+02  0.11205101779E+03  0.79945782149E+02 0.  0.
         23    2    1    2    0    0  0.11525925951E+02  0.99002980314E+00  0.83234775860E+02  0.12265029262E+03  0.89337781701E+02 0.  0.
         11    1    3    3    0    0 -0.19191489699E+02 -0.52342298397E+02 -0.23320773488E+02  0.60430852670E+02  0.00000000000E+00 0. -1.
        -12    1    3    3    0    0 -0.47423877890E+01  0.23551319966E+02 -0.45689019828E+02  0.51620165119E+02  0.00000000000E+00 0.  1.
        -13    1    4    4    0    0  0.14993118890E+02 -0.38054699592E+02  0.14261735822E+02  0.43316866043E+02  0.00000000000E+00 0.  1.
         13    1    4    4    0    0 -0.34671929389E+01  0.39044729395E+02  0.68973040037E+02  0.79333426577E+02  0.00000000000E+00 0. -1.
          2    1    1    2  501    0  0.12407951537E+02  0.27800948627E+02 -0.19191877267E+02  0.35988583731E+02  0.00000000000E+00 0. -1.
<scales pt_clust_5="13000.00000" pt_clust_6="13000.00000" pt_clust_7="13000.00000" pt_clust_8="13000.00000" pt_clust_9="30.44423"></scales>
<clustering>
<clus scale="   30.444">  1  9  2 -1</clus>
<clus scale="   79.946">  5  6 -1 -1</clus>
<clus scale="   86.263">  2  5  1 -1</clus>
<clus scale="   89.338">  7  8 -1 -1</clus>
<clus scale="   30.444">  1  5  2 -1</clus>
</clustering>
</event>
<event>
 9    1  0.9171696E-005  0.1069029E+03  0.7546771E-02  0.1276999E+00
         -2   -1    0    0    0  501 -0.00000000000E+00  0.00000000000E+00  0.93260960018E+02  0.93260960018E+02  0.00000000000E+00 0.  1.
         21   -1    0    0  501  502  0.00000000000E+00 -0.00000000000E+00 -0.44750513613E+03  0.44750513613E+03  0.00000000000E+00 0.  1.
         23    2    1    2    0    0  0.50912994127E+02  0.29945419868E+02  0.51707272194E+02  0.12048176595E+03  0.91396678205E+02 0.  0.
        -24    2    1    2    0    0 -0.26491187009E+02 -0.17860164556E+02 -0.21790551356E+03  0.23027445773E+03  0.67251353724E+02 0.  0.
         13    1    4    4    0    0 -0.38713722634E+02 -0.27973133059E+02 -0.94811989807E+02  0.10616290268E+03  0.00000000000E+00 0. -1.
        -14    1    4    4    0    0  0.12222535626E+02  0.10112968503E+02 -0.12309352375E+03  0.12411155506E+03  0.00000000000E+00 0.  1.
        -11    1    3    3    0    0  0.25774925442E+02 -0.16764916195E+02 -0.15846381064E+02  0.34590706691E+02  0.00000000000E+00 0.  1.
         11    1    3    3    0    0  0.25138068686E+02  0.46710336064E+02  0.67553653258E+02  0.85891059261E+02  0.00000000000E+00 0. -1.
         -1    1    1    2    0  502 -0.24421807119E+02 -0.12085255312E+02 -0.18804593475E+03  0.19000987247E+03  0.00000000000E+00 0.  1.
<scales pt_clust_5="13000.00000" pt_clust_6="13000.00000" pt_clust_7="13000.00000" pt_clust_8="13000.00000" pt_clust_9="27.24845"></scales>
<clustering>
<clus scale="   27.248">  2  9  1 -1</clus>
<clus scale="   67.251">  5  6 -1 -1</clus>
<clus scale="   87.164">  2  5  1 -1</clus>
<clus scale="   91.397">  7  8 -1 -1</clus>
<clus scale="   27.248">  2  5  1 -1</clus>
</clustering>
</event>
<event>
 9    1  0.9171696E-005  0.1088423E+03  0.7546771E-02  0.1266147E+00
          1   -1    0    0  502    0 -0.00000000000E+00  0.00000000000E+00  0.67506304900E+02  0.67506304900E+02  0.00000000000E+00 0. -1.
         21   -1    0    0  501  502  0.00000000000E+00 -0.00000000000E+00 -0.24553588119E+03  0.24553588119E+03  0.00000000000E+00 0. -1.
        -24    2    1    2    0    0  0.47205564986E+02 -0.26696093538E+02 -0.83433547556E+02  0.12762148681E+03  0.79906446943E+02 0.  0.
         23    2    1    2    0    0 -0.60550754204E+02  0.43590321578E+02 -0.10933634705E+03  0.15932882314E+03  0.88683296772E+02 0.  0.
         11    1    3    3    0    0  0.20448182014E+02 -0.53241029044E+02 -0.62084636969E+02  0.84304433270E+02  0.00000000000E+00 0. -1.
        -12    1    3    3    0    0  0.26757382971E+02  0.26544935507E+02 -0.21348910587E+02  0.43317053545E+02  0.00000000000E+00 0.  1.
        -13    1    4    4    0    0  0.18833784340E+02 -0.87887950355E+01 -0.19250895251E+02  0.28329336715E+02  0.00000000000E+00 0.  1.
         13    1    4    4    0    0 -0.79384538545E+02  0.52379116613E+02 -0.90085451801E+02  0.13099948642E+03  0.00000000000E+00 0. -1.
          2    1    1    2  501    0  0.13345189219E+02 -0.16894228040E+02  0.14740318316E+02  0.26091876139E+02  0.00000000000E+00 0. -1.
<scales pt_clust_5="13000.00000" pt_clust_6="13000.00000" pt_clust_7="13000.00000" pt_clust_8="13000.00000" pt_clust_9="21.52927"></scales>
<clustering>
<clus scale="   21.529">  2  9  1 -1</clus>
<clus scale="   79.906">  5  6 -1 -1</clus>
<clus scale="   88.683">  7  8 -1 -1</clus>
<clus scale="  101.818">  1  5  2 -1</clus>
<clus scale="   21.529">  2  5  1 -1</clus>
</clustering>
</event>
<event>
 9    1  0.9171696E-005  0.1364339E+03  0.7546771E-02  0.1238312E+00
         21   -1    0    0  501  502  0.00000000000E+00  0.00000000000E+00  0.43046614503E+03  0.43046614503E+03  0.00000000000E+00 0. -1.
          1   -1    0    0  502    0 -0.00000000000E+00 -0.00000000000E+00 -0.77999169344E+02  0.77999169344E+02  0.00000000000E+00 0. -1.
         23    2    1    2    0    0  0.37558464583E+01 -0.30794010111E+01  0.40510505128E+02  0.98673611809E+02  0.89843149703E+02 0.  0.
        -24    2    1    2    0    0 -0.88507161953E+02 -0.67191728710E+02  0.24598591964E+03  0.28144478699E+03  0.79711036463E+02 0.  0.
         11    1    4    4    0    0 -0.80658487270E+02 -0.51580168188E+02  0.11653608766E+03  0.15082097018E+03  0.00000000000E+00 0. -1.
        -12    1    4    4    0    0 -0.78486746827E+01 -0.15611560522E+02  0.12944983198E+03  0.13062381680E+03  0.00000000000E+00 0.  1.
        -13    1    3    3    0    0 -0.38214270171E+02 -0.21773603632E+02  0.18218388217E+02  0.47605986273E+02  0.00000000000E+00 0.  1.
         13    1    3    3    0    0  0.41970116629E+02  0.18694202621E+02  0.22292116911E+02  0.51067625536E+02  0.00000000000E+00 0. -1.
          2    1    1    2  501    0  0.84751315495E+02  0.70271129721E+02  0.65970550912E+02  0.12834691558E+03  0.00000000000E+00 0. -1.
<scales pt_clust_5="13000.00000" pt_clust_6="13000.00000" pt_clust_7="13000.00000" pt_clust_8="13000.00000" pt_clust_9="110.72660"></scales>
<clustering>
<clus scale="   79.711">  5  6 -1 -1</clus>
<clus scale="   89.843">  7  8 -1 -1</clus>
<clus scale="   89.974">  2  7  1 -1</clus>
<clus scale="  110.727">  1  9  2 -1</clus>
<clus scale="  110.727">  1  5  2 -1</clus>
</clustering>
</event>
<event>
 9    1  0.9171696E-005  0.1028829E+03  0.7546771E-02  0.1277715E+00
         21   -1    0    0  501  502  0.00000000000E+00  0.00000000000E+00  0.16093983718E+03  0.16093983718E+03  0.00000000000E+00 0.  1.
          1   -1    0    0  502    0 -0.00000000000E+00 -0.00000000000E+00 -0.99307755350E+02  0.99307755350E+02  0.00000000000E+00 0. -1.
         23    2    1    2    0    0 -0.12421481448E+02  0.56265863041E+02  0.11583605178E+02  0.10621364430E+03  0.88470434500E+02 0.  0.
        -24    2    1    2    0    0 -0.33063258478E+02 -0.46564452688E+02  0.37128409601E+02  0.10576483739E+03  0.80908928510E+02 0.  0.
         13    1    4    4    0    0 -0.55472928513E+02 -0.39978663008E+02  0.86343938572E+01  0.68920911565E+02  0.00000000000E+00 0. -1.
        -14    1    4    4    0    0  0.22409670035E+02 -0.65857896804E+01  0.28494015744E+02  0.36843925822E+02  0.00000000000E+00 0.  1.
        -11    1    3    3    0    0 -0.49727627496E+02  0.43442780623E+02  0.94907760188E+01  0.66709721586E+02  0.00000000000E+00 0. -1.
         11    1    3    3    0    0  0.37306146047E+02  0.12823082418E+02  0.20928291588E+01  0.39503922710E+02  0.00000000000E+00 0.  1.
          2    1    1    2  501    0  0.45484739926E+02 -0.97014103526E+01  0.12920067047E+02  0.48269110842E+02  0.00000000000E+00 0. -1.
<scales pt_clust_5="13000.00000" pt_clust_6="13000.00000" pt_clust_7="13000.00000" pt_clust_8="13000.00000" pt_clust_9="46.50784"></scales>
<clustering>
<clus scale="   46.508">  1  9  2 -1</clus>
<clus scale="   80.909">  5  6 -1 -1</clus>
<clus scale="   88.470">  7  8 -1 -1</clus>
<clus scale="   96.458">  1  5  2 -1</clus>
<clus scale="   46.508">  1  5  2 -1</clus>
</clustering>
</event>
<event>
 9    1  0.9171696E-005  0.1483247E+03  0.7546771E-02  0.1222522E+00
          1   -1    0    0  502    0 -0.00000000000E+00  0.00000000000E+00  0.39037197866E+03  0.39037197866E+03  0.00000000000E+00 0. -1.
         21   -1    0    0  501  502  0.00000000000E+00 -0.00000000000E+00 -0.20549079087E+03  0.20549079087E+03  0.00000000000E+00 0.  1.
        -24    2    1    2    0    0  0.67266762585E+01 -0.50834349017E+02  0.23086954985E+03  0.25041739381E+03  0.82333121268E+02 0.  0.
         23    2    1    2    0    0 -0.12299273471E+03  0.49296581633E+02  0.75436081400E+02  0.17732620207E+03  0.90535152346E+02 0.  0.
         13    1    3    3    0    0  0.25809997518E+02 -0.57496442111E+02  0.21683914060E+03  0.22581233298E+03  0.00000000000E+00 0. -1.
        -14    1    3    3    0    0 -0.19083321260E+02  0.66620930947E+01  0.14030409254E+02  0.24605060832E+02  0.00000000000E+00 0.  1.
        -11    1    4    4    0    0 -0.11887252668E+03  0.17338713458E+02  0.34025593215E+02  0.12485611550E+03  0.00000000000E+00 0.  1.
         11    1    4    4    0    0 -0.41202080268E+01  0.31957868175E+02  0.41410488185E+02  0.52470086566E+02  0.00000000000E+00 0. -1.
          2    1    1    2  501    0  0.11626605845E+03  0.15377673836E+01 -0.12142444347E+03  0.16811917365E+03  0.00000000000E+00 0. -1.
<scales pt_clust_5="13000.00000" pt_clust_6="13000.00000" pt_clust_7="13000.00000" pt_clust_8="13000.00000" pt_clust_9="117.48880"></scales>
<clustering>
<clus scale="   82.333">  5  6 -1 -1</clus>
<clus scale="   90.535">  7  8 -1 -1</clus>
<clus scale="   96.995">  1  5  2 -1</clus>
<clus scale="  117.489">  2  9  1 -1</clus>
<clus scale="  117.489">  2  5  1 -1</clus>
</clustering>
</event>
<event>
 9    1  0.9171696E-005  0.1015947E+03  0.7546771E-02  0.1277487E+00
         -2   -1    0    0    0  501 -0.00000000000E+00  0.00000000000E+00  0.28206337382E+03  0.28206337382E+03  0.00000000000E+00 0.  1.
         21   -1    0    0  501  502  0.00000000000E+00 -0.00000000000E+00 -0.12545941586E+03  0.12545941586E+03  0.00000000000E+00 0.  1.
        -24    2    1    2    0    0  0.37850484089E+02  0.26263382883E+00  0.16777338748E+03  0.19435850489E+03  0.90523978891E+02 0.  0.
         23    2    1    2    0    0 -0.53575127575E+02  0.58450096501E+02  0.46116287603E+02  0.12964121910E+03  0.91615640764E+02 0.  0.
         11    1    3    3    0    0  0.65457359011E+02 -0.92907518637E+01  0.93207654851E+02  0.11427445402E+03  0.00000000000E+00 0. -1.
        -12    1    3    3    0    0 -0.27606874922E+02  0.95533856926E+01  0.74565732631E+02  0.80084050871E+02  0.00000000000E+00 0.  1.
        -13    1    4    4    0    0 -0.71169252791E+02  0.44610566764E+02  0.66364158203E+01  0.84256793345E+02  0.00000000000E+00 0.  1.
         13    1    4    4    0    0  0.17594125216E+02  0.13839529737E+02  0.39479871782E+02  0.45384425758E+02  0.00000000000E+00 0. -1.
         -1    1    1    2    0  502  0.15724643485E+02 -0.58712730330E+02 -0.57285717122E+02  0.83523065687E+02  0.00000000000E+00 0.  1.
<scales pt_clust_5="13000.00000" pt_clust_6="13000.00000" pt_clust_7="13000.00000" pt_clust_8="13000.00000" pt_clust_9="60.78198"></scales>
<clustering>
<clus scale="   60.782">  2  9  1 -1</clus>
<clus scale="   90.524">  5  6 -1 -1</clus>
<clus scale="   91.616">  7  8 -1 -1</clus>
<clus scale="  100.611">  1  5  2 -1</clus>
<clus scale="   60.782">  2  5  1 -1</clus>
</clustering>
</event>
<event>
 9    1  0.1244173E-004  0.9392745E+02  0.7546771E-02  0.1300243E+00
         21   -1    0    0  501  502  0.00000000000E+00  0.00000000000E+00  0.36021125262E+03  0.36021125262E+03  0.00000000000E+00 0. -1.
         -2   -1    0    0    0  501 -0.00000000000E+00 -0.00000000000E+00 -0.14711433204E+03  0.14711433204E+03  0.00000000000E+00 0.  1.
        -24    2    1    2    0    0 -0.44556930989E+01  0.18406224092E+02 -0.10795246536E+03  0.13608639282E+03  0.80666779079E+02 0.  0.
         23    2    1    2    0    0 -0.40787777988E+02 -0.32203219062E+02  0.10061125459E+03  0.14578343453E+03  0.91812281762E+02 0.  0.
         13    1    3    3    0    0  0.25449945100E+02  0.13708916842E+02 -0.57222636867E+01  0.29468261033E+02  0.00000000000E+00 0. -1.
        -14    1    3    3    0    0 -0.29905638199E+02  0.46973072501E+01 -0.10223020167E+03  0.10661813179E+03  0.00000000000E+00 0.  1.
        -11    1    4    4    0    0 -0.53010087239E+02  0.10786082309E+02  0.29024686438E+02  0.61390889743E+02  0.00000000000E+00 0.  1.
         11    1    4    4    0    0  0.12222309251E+02 -0.42989301371E+02  0.71586568156E+02  0.84392544790E+02  0.00000000000E+00 0. -1.
         -1    1    1    2    0  502  0.45243471087E+02  0.13796994970E+02  0.22043813135E+03  0.22545575730E+03  0.00000000000E+00 0.  1.
<scales pt_clust_5="13000.00000" pt_clust_6="13000.00000" pt_clust_7="13000.00000" pt_clust_8="13000.00000" pt_clust_9="47.30041"></scales>
<clustering>
<clus scale="   47.300">  1  9  2 -1</clus>
<clus scale="   80.667">  5  6 -1 -1</clus>
<clus scale="   83.066">  2  5  1 -1</clus>
<clus scale="   91.812">  7  8 -1 -1</clus>
<clus scale="   47.300">  1  5  2 -1</clus>
</clustering>
</event>
<event>
 9    1  0.9171696E-005  0.8569775E+02  0.7546771E-02  0.1313746E+00
         -4   -1    0    0    0  501 -0.00000000000E+00  0.00000000000E+00  0.24346526187E+03  0.24346526187E+03  0.00000000000E+00 0.  1.
         21   -1    0    0  501  502  0.00000000000E+00 -0.00000000000E+00 -0.87876795776E+02  0.87876795776E+02  0.00000000000E+00 0.  1.
         23    2    1    2    0    0 -0.63681494641E+01 -0.38649416587E+02  0.11281124777E+03  0.14410760628E+03  0.80661600747E+02 0.  0.
        -24    2    1    2    0    0  0.44678414133E+02 -0.12276626880E+02  0.71365120715E+02  0.11738886135E+03  0.80872047442E+02 0.  0.
         11    1    4    4    0    0  0.46408252822E+00  0.27112112105E+02  0.35305900150E+01  0.27344964093E+02  0.00000000000E+00 0. -1.
        -12    1    4    4    0    0  0.44214331605E+02 -0.39388738985E+02  0.67834530700E+02  0.90043897258E+02  0.00000000000E+00 0.  1.
        -11    1    3    3    0    0  0.13938294517E+02 -0.34077359740E+02  0.85612701328E+01  0.37799971524E+02  0.00000000000E+00 0. -1.
         11    1    3    3    0    0 -0.20306443981E+02 -0.45720568470E+01  0.10424997763E+03  0.10630763476E+03  0.00000000000E+00 0.  1.
         -3    1    1    2    0  502 -0.38310264669E+02  0.50926043467E+02 -0.28587902384E+02  0.69845590018E+02  0.00000000000E+00 0.  1.
<scales pt_clust_5="13000.00000" pt_clust_6="13000.00000" pt_clust_7="13000.00000" pt_clust_8="13000.00000" pt_clust_9="63.72706"></scales>
<clustering>
<clus scale="   63.727">  2  9  1 -1</clus>
<clus scale="   80.662">  7  8 -1 -1</clus>
<clus scale="   80.872">  5  6 -1 -1</clus>
<clus scale="   85.499">  1  7  2 -1</clus>
<clus scale="   63.727">  2  5  1 -1</clus>
</clustering>
</event>
<event>
 9    1  0.9171696E-005  0.1478746E+03  0.7546771E-02  0.1217483E+00
          1   -1    0    0  502    0 -0.00000000000E+00  0.00000000000E+00  0.96740691241E+02  0.96740691241E+02  0.00000000000E+00 0. -1.
         21   -1    0    0  501  502  0.00000000000E+00 -0.00000000000E+00 -0.41370790369E+03  0.41370790369E+03  0.00000000000E+00 0.  1.
        -24    2    1    2    0    0  0.54917881436E+02 -0.47529426229E+02 -0.16779089700E+03  0.19998144387E+03  0.81017113736E+02 0.  0.
         23    2    1    2    0    0  0.68223544379E+02  0.84062238335E+02 -0.66969530091E+02  0.15796661771E+03  0.93528725155E+02 0.  0.
         13    1    3    3    0    0  0.31681815187E+02 -0.41432555469E+02 -0.30118475502E+02  0.60228868765E+02  0.00000000000E+00 0. -1.
        -14    1    3    3    0    0  0.23236066249E+02 -0.60968707598E+01 -0.13767242150E+03  0.13975257511E+03  0.00000000000E+00 0.  1.
        -11    1    4    4    0    0  0.19625283068E+02  0.28390082016E+02 -0.76046177172E+02  0.83511493550E+02  0.00000000000E+00 0.  1.
         11    1    4    4    0    0  0.48598261311E+02  0.55672156319E+02  0.90766470818E+01  0.74455124161E+02  0.00000000000E+00 0. -1.
          2    1    1    2  501    0 -0.12314142581E+03 -0.36532812106E+02 -0.82206785357E+02  0.15250053335E+03  0.00000000000E+00 0. -1.
<scales pt_clust_5="13000.00000" pt_clust_6="13000.00000" pt_clust_7="13000.00000" pt_clust_8="13000.00000" pt_clust_9="114.53943"></scales>
<clustering>
<clus scale="   81.017">  5  6 -1 -1</clus>
<clus scale="   93.529">  7  8 -1 -1</clus>
<clus scale="  108.806">  1  5  2 -1</clus>
<clus scale="  114.539">  2  9  1 -1</clus>
<clus scale="  114.539">  2  5  1 -1</clus>
</clustering>
</event>
<event>
 9    1  0.9171696E-005  0.1451755E+03  0.7546771E-02  0.1233313E+00
         21   -1    0    0  501  502  0.00000000000E+00  0.00000000000E+00  0.63406686837E+02  0.63406686837E+02  0.00000000000E+00 0.  1.
          1   -1    0    0  502    0 -0.00000000000E+00 -0.00000000000E+00 -0.57798536537E+03  0.57798536537E+03  0.00000000000E+00 0. -1.
        -24    2    1    2    0    0  0.10660829632E+02 -0.16770598015E+02 -0.28248253276E+03  0.29434427021E+03  0.80294843223E+02 0.  0.
         23    2    1    2    0    0  0.74041214612E+02  0.87242440595E+02 -0.12131130434E+03  0.19079798843E+03  0.92704341469E+02 0.  0.
         13    1    3    3    0    0 -0.26088164350E+02 -0.31362971580E+02 -0.17838416517E+03  0.18298944966E+03  0.00000000000E+00 0. -1.
        -14    1    3    3    0    0  0.36748993981E+02  0.14592373565E+02 -0.10409836759E+03  0.11135482055E+03  0.00000000000E+00 0.  1.
        -11    1    4    4    0    0  0.22466210246E+02  0.81685140165E+01 -0.87200213097E+02  0.90417544692E+02  0.00000000000E+00 0. -1.
         11    1    4    4    0    0  0.51575004366E+02  0.79073926579E+02 -0.34111091245E+02  0.10038044374E+03  0.00000000000E+00 0.  1.
          2    1    1    2  501    0 -0.84702044244E+02 -0.70471842580E+02 -0.11078484143E+03  0.15624979356E+03  0.00000000000E+00 0. -1.
<scales pt_clust_5="13000.00000" pt_clust_6="13000.00000" pt_clust_7="13000.00000" pt_clust_8="13000.00000" pt_clust_9="111.72217"></scales>
<clustering>
<clus scale="   80.295">  5  6 -1 -1</clus>
<clus scale="   82.717">  2  5  1 -1</clus>
<clus scale="   92.704">  7  8 -1 -1</clus>
<clus scale="  111.722">  1  9  2 -1</clus>
<clus scale="  111.722">  1  5  2 -1</clus>
</clustering>
</event>
<event>
 9    1  0.1053844E-004  0.9356034E+02  0.7546771E-02  0.1305554E+00
          1   -1    0    0  502    0 -0.00000000000E+00  0.00000000000E+00  0.39097968290E+03  0.39097968290E+03  0.00000000000E+00 0. -1.
         21   -1    0    0  501  502  0.00000000000E+00 -0.00000000000E+00 -0.23829693044E+03  0.23829693044E+03  0.00000000000E+00 0.  1.
         23    2    1    2    0    0 -0.11814980394E+02 -0.65910832560E+01  0.32734659218E+03  0.34050500742E+03  0.92762236502E+02 0.  0.
        -24    2    1    2    0    0  0.40776477692E+00 -0.68331718362E+02 -0.18617147592E+03  0.21211668787E+03  0.75261416546E+02 0.  0.
         13    1    4    4    0    0 -0.14419089662E+02 -0.62277151662E+02 -0.69801801507E+02  0.94650120229E+02  0.00000000000E+00 0. -1.
        -14    1    4    4    0    0  0.14826854438E+02 -0.60545667003E+01 -0.11636967441E+03  0.11746656764E+03  0.00000000000E+00 0.  1.
        -11    1    3    3    0    0  0.37826106836E+02  0.10064574315E+02  0.10451398245E+03  0.11160323715E+03  0.00000000000E+00 0.  1.
         11    1    3    3    0    0 -0.49641087231E+02 -0.16655657572E+02  0.22283260974E+03  0.22890177027E+03  0.00000000000E+00 0. -1.
          2    1    1    2  501    0  0.11407215617E+02  0.74922801618E+02  0.11507636197E+02  0.76654918050E+02  0.00000000000E+00 0. -1.
<scales pt_clust_5="13000.00000" pt_clust_6="13000.00000" pt_clust_7="13000.00000" pt_clust_8="13000.00000" pt_clust_9="75.78622"></scales>
<clustering>
<clus scale="   75.261">  5  6 -1 -1</clus>
<clus scale="   75.786">  2  9  1 -1</clus>
<clus scale="   76.243">  2  5  1 -1</clus>
<clus scale="   92.762">  7  8 -1 -1</clus>
<clus scale="   75.786">  2  5  1 -1</clus>
</clustering>
</event>
<event>
 9    1  0.9171696E-005  0.3542236E+03  0.7546771E-02  0.1090006E+00
          3   -1    0    0  502    0 -0.00000000000E+00  0.00000000000E+00  0.35774627929E+03  0.35774627929E+03  0.00000000000E+00 0. -1.
         21   -1    0    0  501  502  0.00000000000E+00 -0.00000000000E+00 -0.11546282914E+04  0.11546282914E+04  0.00000000000E+00 0. -1.
        -24    2    1    2    0    0 -0.11997264391E+03 -0.65008507286E+02 -0.31734987083E+03  0.35566541834E+03  0.84660545587E+02 0.  0.
         23    2    1    2    0    0 -0.79927425051E+02 -0.23079047983E+03  0.23934348636E+03  0.35406399640E+03  0.91778920382E+02 0.  0.
         11    1    3    3    0    0 -0.11002064044E+03 -0.84377671031E+02 -0.26867913948E+03  0.30234518796E+03  0.00000000000E+00 0. -1.
        -12    1    3    3    0    0 -0.99520034688E+01  0.19369163745E+02 -0.48670731348E+02  0.53320230375E+02  0.00000000000E+00 0.  1.
        -11    1    4    4    0    0 -0.16272634715E+02 -0.10383697504E+03  0.47412389051E+02  0.11530329857E+03  0.00000000000E+00 0.  1.
         11    1    4    4    0    0 -0.63654790336E+02 -0.12695350479E+03  0.19193109731E+03  0.23876069782E+03  0.00000000000E+00 0. -1.
          4    1    1    2  501    0  0.19990006896E+03  0.29579898712E+03 -0.71887562766E+03  0.80264515596E+03  0.00000000000E+00 0. -1.
<scales pt_clust_5="13000.00000" pt_clust_6="13000.00000" pt_clust_7="13000.00000" pt_clust_8="13000.00000" pt_clust_9="342.12719"></scales>
<clustering>
<clus scale="   84.661">  5  6 -1 -1</clus>
<clus scale="   91.779">  7  8 -1 -1</clus>
<clus scale="  160.583">  1  5  2 -1</clus>
<clus scale="  342.127">  2  9  1 -1</clus>
<clus scale="  342.127">  2  5  1 -1</clus>
</clustering>
</event>
<event>
 9    1  0.9171696E-005  0.1927629E+03  0.7546771E-02  0.1156655E+00
         -2   -1    0    0    0  501 -0.00000000000E+00  0.00000000000E+00  0.13943724705E+04  0.13943724705E+04  0.00000000000E+00 0.  1.
         21   -1    0    0  501  502  0.00000000000E+00 -0.00000000000E+00 -0.54233176603E+02  0.54233176603E+02  0.00000000000E+00 0.  1.
         23    2    1    2    0    0 -0.14004950672E+03  0.53496310776E+02  0.66610342725E+03  0.68880240301E+03  0.90990411618E+02 0.  0.
        -24    2    1    2    0    0  0.16245553225E+03 -0.14684138322E+03  0.57877738655E+03  0.62456452716E+03  0.84518599242E+02 0.  0.
         11    1    4    4    0    0  0.82584892390E+01 -0.46528087754E+02  0.79593895616E+02  0.92564862739E+02  0.00000000000E+00 0. -1.
        -12    1    4    4    0    0  0.15419704301E+03 -0.10031329546E+03  0.49918349094E+03  0.53199966442E+03  0.00000000000E+00 0.  1.
        -13    1    3    3    0    0 -0.32692982913E+00  0.32113907403E+02  0.88240774036E+02  0.93903376586E+02  0.00000000000E+00 0. -1.
         13    1    3    3    0    0 -0.13972257689E+03  0.21382403374E+02  0.57786265321E+03  0.59489902643E+03  0.00000000000E+00 0.  1.
         -1    1    1    2    0  502 -0.22406025532E+02  0.93345072440E+02  0.95258480127E+02  0.13523871696E+03  0.00000000000E+00 0.  1.
<scales pt_clust_5="13000.00000" pt_clust_6="13000.00000" pt_clust_7="13000.00000" pt_clust_8="13000.00000" pt_clust_9="95.99652"></scales>
<clustering>
<clus scale="   84.519">  5  6 -1 -1</clus>
<clus scale="   90.990">  7  8 -1 -1</clus>
<clus scale="   95.997">  2  9  1 -1</clus>
<clus scale="  189.794">  2  5  1 -1</clus>
<clus scale="   95.997">  2  5  1 -1</clus>
</clustering>
</event>
<event>
 9    1  0.9171696E-005  0.9563407E+02  0.7546771E-02  0.1298623E+00
         21   -1    0    0  501  502  0.00000000000E+00  0.00000000000E+00  0.23249395147E+03  0.23249395147E+03  0.00000000000E+00 0. -1.
          1   -1    0    0  502    0 -0.00000000000E+00 -0.00000000000E+00 -0.14968769288E+03  0.14968769288E+03  0.00000000000E+00 0. -1.
         23    2    1    2    0    0 -0.23826826482E+01 -0.34150516982E+02 -0.10919256299E+03  0.14669892842E+03  0.91791202193E+02 0.  0.
        -24    2    1    2    0    0 -0.18389435698E+01 -0.32537964948E+01  0.57419770572E+02  0.95738571993E+02  0.76517156308E+02 0.  0.
         13    1    4    4    0    0  0.37269869754E+02 -0.29932511791E+01  0.25516312613E+02  0.45266819564E+02  0.00000000000E+00 0. -1.
        -14    1    4    4    0    0 -0.39108813324E+02 -0.26054531569E+00  0.31903457959E+02  0.50471752428E+02  0.00000000000E+00 0.  1.
        -13    1    3    3    0    0  0.70690015663E+01  0.21316304328E+02  0.15195961246E+01  0.22509215573E+02  0.00000000000E+00 0.  1.
         13    1    3    3    0    0 -0.94516842145E+01 -0.55466821310E+02 -0.11071215912E+03  0.12418971285E+03  0.00000000000E+00 0. -1.
          2    1    1    2  501    0  0.42216262180E+01  0.37404313477E+02  0.13457905101E+03  0.13974414394E+03  0.00000000000E+00 0. -1.
<scales pt_clust_5="13000.00000" pt_clust_6="13000.00000" pt_clust_7="13000.00000" pt_clust_8="13000.00000" pt_clust_9="37.64180"></scales>
<clustering>
<clus scale="   37.642">  1  9  2 -1</clus>
<clus scale="   76.517">  5  6 -1 -1</clus>
<clus scale="   81.087">  1  5  2 -1</clus>
<clus scale="   91.791">  7  8 -1 -1</clus>
<clus scale="   37.642">  1  5  2 -1</clus>
</clustering>
</event>
<event>
 9    1  0.9171696E-005  0.2911247E+03  0.7546771E-02  0.1090327E+00
          1   -1    0    0  502    0 -0.00000000000E+00  0.00000000000E+00  0.80297903720E+03  0.80297903720E+03  0.00000000000E+00 0. -1.
         21   -1    0    0  501  502  0.00000000000E+00 -0.00000000000E+00 -0.36669770829E+03  0.36669770829E+03  0.00000000000E+00 0.  1.
         23    2    1    2    0    0  0.14537896410E+02  0.27781685395E+03  0.48832465299E+03  0.56942932462E+03  0.91625510899E+02 0.  0.
        -24    2    1    2    0    0 -0.17707882505E+03 -0.24809602022E+03 -0.20483426274E+03  0.37519642136E+03  0.76855278793E+02 0.  0.
         13    1    4    4    0    0 -0.52439817306E+02 -0.41026456308E+02 -0.15975622527E+02  0.68471344892E+02  0.00000000000E+00 0. -1.
        -14    1    4    4    0    0 -0.12463900774E+03 -0.20706956391E+03 -0.18885864022E+03  0.30672507647E+03  0.00000000000E+00 0.  1.
        -11    1    3    3    0    0 -0.34432437558E+02  0.93877027742E+02  0.13378545909E+03  0.16702406461E+03  0.00000000000E+00 0.  1.
         11    1    3    3    0    0  0.48970333968E+02  0.18393982621E+03  0.35453919390E+03  0.40240526001E+03  0.00000000000E+00 0. -1.
          2    1    1    2  501    0  0.16254092864E+03 -0.29720833731E+02  0.15279093865E+03  0.22505099950E+03  0.00000000000E+00 0. -1.
<scales pt_clust_5="13000.00000" pt_clust_6="13000.00000" pt_clust_7="13000.00000" pt_clust_8="13000.00000" pt_clust_9="165.23592"></scales>
<clustering>
<clus scale="   76.855">  5  6 -1 -1</clus>
<clus scale="   91.626">  7  8 -1 -1</clus>
<clus scale="  165.236">  2  9  1 -1</clus>
<clus scale="  286.819">  2  5  1 -1</clus>
<clus scale="  165.236">  2  5  1 -1</clus>
</clustering>
</event>
<event>
 9    1  0.9171696E-005  0.1533350E+03  0.7546771E-02  0.1217524E+00
          1   -1    0    0  502    0 -0.00000000000E+00  0.00000000000E+00  0.97853481786E+03  0.97853481786E+03  0.00000000000E+00 0. -1.
         21   -1    0    0  501  502  0.00000000000E+00 -0.00000000000E+00 -0.74191635707E+02  0.74191635707E+02  0.00000000000E+00 0.  1.
         23    2    1    2    0    0 -0.33668821463E+02  0.75811372346E+01  0.37892640896E+02  0.10461184248E+03  0.91196064459E+02 0.  0.
        -24    2    1    2    0    0  0.15731754108E+03 -0.25198308446E+02  0.76934838425E+03  0.78991157862E+03  0.81728833428E+02 0.  0.
         11    1    4    4    0    0  0.15808662022E+03 -0.33893936914E+02  0.76044549576E+03  0.77744294355E+03  0.00000000000E+00 0. -1.
        -12    1    4    4    0    0 -0.76907913632E+00  0.86956284678E+01  0.89028884925E+01  0.12468635077E+02  0.00000000000E+00 0.  1.
        -11    1    3    3    0    0 -0.37756821535E+02  0.31919683846E+02  0.55475109761E+02  0.74309700526E+02  0.00000000000E+00 0. -1.
         11    1    3    3    0    0  0.40880000720E+01 -0.24338546611E+02 -0.17582468865E+02  0.30302141956E+02  0.00000000000E+00 0.  1.
          2    1    1    2  501    0 -0.12364871962E+03  0.17617171211E+02  0.97102157006E+02  0.15820303246E+03  0.00000000000E+00 0. -1.
<scales pt_clust_5="13000.00000" pt_clust_6="13000.00000" pt_clust_7="13000.00000" pt_clust_8="13000.00000" pt_clust_9="129.73824"></scales>
<clustering>
<clus scale="   81.729">  5  6 -1 -1</clus>
<clus scale="   91.196">  7  8 -1 -1</clus>
<clus scale="   97.508">  1  7  2 -1</clus>
<clus scale="  129.738">  2  9  1 -1</clus>
<clus scale="  129.738">  2  5  1 -1</clus>
</clustering>
</event>
<event>
 9    1  0.9171696E-005  0.2305946E+03  0.7546771E-02  0.1151640E+00
         21   -1    0    0  501  502  0.00000000000E+00  0.00000000000E+00  0.18917303265E+03  0.18917303265E+03  0.00000000000E+00 0. -1.
          1   -1    0    0  502    0 -0.00000000000E+00 -0.00000000000E+00 -0.65947223109E+03  0.65947223109E+03  0.00000000000E+00 0. -1.
         23    2    1    2    0    0  0.85297763127E+02 -0.12223684558E+02  0.58494998535E+02  0.13778142113E+03  0.90204923905E+02 0.  0.
        -24    2    1    2    0    0  0.60609933884E+02 -0.19068682543E+03 -0.17661145852E+03  0.27901385432E+03  0.81376250498E+02 0.  0.
         11    1    4    4    0    0  0.76447972925E+02 -0.13887377271E+03 -0.15157577156E+03  0.21932950516E+03  0.00000000000E+00 0. -1.
        -12    1    4    4    0    0 -0.15838039041E+02 -0.51813052729E+02 -0.25035686962E+02  0.59684349166E+02  0.00000000000E+00 0.  1.
        -11    1    3    3    0    0  0.77237649949E+02  0.19916372276E+02  0.66321268841E+02  0.10373440680E+03  0.00000000000E+00 0. -1.
         11    1    3    3    0    0  0.80601131777E+01 -0.32140056834E+02 -0.78262703056E+01  0.34047014328E+02  0.00000000000E+00 0.  1.
          2    1    1    2  501    0 -0.14590769701E+03  0.20291050999E+03 -0.35218273846E+03  0.43184998828E+03  0.00000000000E+00 0. -1.
<scales pt_clust_5="13000.00000" pt_clust_6="13000.00000" pt_clust_7="13000.00000" pt_clust_8="13000.00000" pt_clust_9="215.75868"></scales>
<clustering>
<clus scale="   81.376">  5  6 -1 -1</clus>
<clus scale="   90.205">  7  8 -1 -1</clus>
<clus scale="  124.748">  2  7  1 -1</clus>
<clus scale="  215.759">  1  9  2 -1</clus>
<clus scale="  215.759">  1  5  2 -1</clus>
</clustering>
</event>
<event>
 9    1  0.9171696E-005  0.1547378E+03  0.7546771E-02  0.1218060E+00
          1   -1    0    0  502    0 -0.00000000000E+00  0.00000000000E+00  0.44898121059E+03  0.44898121059E+03  0.00000000000E+00 0. -1.
         21   -1    0    0  501  502  0.00000000000E+00 -0.00000000000E+00 -0.11873387687E+03  0.11873387687E+03  0.00000000000E+00 0.  1.
        -24    2    1    2    0    0 -0.26562881076E+02  0.38969992152E+02  0.27355311075E+02  0.97721695039E+02  0.81098518469E+02 0.  0.
         23    2    1    2    0    0  0.12627381008E+03 -0.37136797488E+02  0.11015543715E+02  0.16154970401E+03  0.93020147401E+02 0.  0.
         11    1    3    3    0    0 -0.21279007148E+02 -0.15402097771E+02  0.33697695893E+02  0.42726519510E+02  0.00000000000E+00 0. -1.
        -12    1    3    3    0    0 -0.52838739276E+01  0.54372089923E+02 -0.63423848182E+01  0.54995175529E+02  0.00000000000E+00 0.  1.
        -13    1    4    4    0    0  0.10562129867E+03 -0.55706200374E+02  0.35445476774E+02  0.12456091408E+03  0.00000000000E+00 0.  1.
         13    1    4    4    0    0  0.20652511406E+02  0.18569402886E+02 -0.24429933059E+02  0.36988789926E+02  0.00000000000E+00 0. -1.
          2    1    1    2  501    0 -0.99710929004E+02 -0.18331946632E+01  0.29187647893E+03  0.30844368841E+03  0.00000000000E+00 0. -1.
<scales pt_clust_5="13000.00000" pt_clust_6="13000.00000" pt_clust_7="13000.00000" pt_clust_8="13000.00000" pt_clust_9="123.65699"></scales>
<clustering>
<clus scale="   81.099">  5  6 -1 -1</clus>
<clus scale="   93.020">  7  8 -1 -1</clus>
<clus scale="   93.815">  1  5  2 -1</clus>
<clus scale="  123.657">  2  9  1 -1</clus>
<clus scale="  123.657">  2  5  1 -1</clus>
</clustering>
</event>
<event>
 9    1  0.9171696E-005  0.1736965E+03  0.7546771E-02  0.1174271E+00
          1   -1    0    0  502    0 -0.00000000000E+00  0.00000000000E+00  0.36543117483E+03  0.36543117483E+03  0.00000000000E+00 0. -1.
         21   -1    0    0  501  502  0.00000000000E+00 -0.00000000000E+00 -0.24065535803E+03  0.24065535803E+03  0.00000000000E+00 0.  1.
         23    2    1    2    0    0 -0.15110751334E+03  0.14109740809E+02  0.28756097539E+03  0.33499332321E+03  0.80601778260E+02 0.  0.
        -24    2    1    2    0    0  0.17115603493E+03 -0.19061670386E+02 -0.16388512205E+03  0.25041291119E+03  0.78680094628E+02 0.  0.
         11    1    4    4    0    0  0.74329038859E+02  0.30732716611E+02 -0.67659952178E+02  0.10510554227E+03  0.00000000000E+00 0. -1.
        -12    1    4    4    0    0  0.96826996072E+02 -0.49794386997E+02 -0.96225169873E+02  0.14530736892E+03  0.00000000000E+00 0.  1.
        -11    1    3    3    0    0 -0.94347780409E+02 -0.31015565467E+02  0.16410354485E+03  0.19181616825E+03  0.00000000000E+00 0. -1.
         11    1    3    3    0    0 -0.56759732926E+02  0.45125306276E+02  0.12345743053E+03  0.14317715496E+03  0.00000000000E+00 0.  1.
          2    1    1    2  501    0 -0.20048521596E+02  0.49519295763E+01  0.10999634693E+01  0.20680298459E+02  0.00000000000E+00 0. -1.
<scales pt_clust_5="13000.00000" pt_clust_6="13000.00000" pt_clust_7="13000.00000" pt_clust_8="13000.00000" pt_clust_9="20.65102"></scales>
<clustering>
<clus scale="   20.651">  2  9  1 -1</clus>
<clus scale="   78.680">  5  6 -1 -1</clus>
<clus scale="   80.602">  7  8 -1 -1</clus>
<clus scale="  172.813">  2  5  1 -1</clus>
<clus scale="   20.651">  2  5  1 -1</clus>
</clustering>
</event>
<event>
 9    1  0.9171696E-005  0.9557005E+02  0.7546771E-02  0.1297913E+00
          1   -1    0    0  502    0 -0.00000000000E+00  0.00000000000E+00  0.24101207267E+03  0.24101207267E+03  0.00000000000E+00 0. -1.
         21   -1    0    0  501  502  0.00000000000E+00 -0.00000000000E+00 -0.81073120509E+02  0.81073120509E+02  0.00000000000E+00 0. -1.
        -24    2    1    2    0    0 -0.17565832363E+02 -0.33188413285E+02  0.10589801429E+03  0.13657278138E+03  0.77638302011E+02 0.  0.
         23    2    1    2    0    0 -0.35824720309E+01  0.17579501913E+02  0.97353958993E+02  0.13484776246E+03  0.91565565125E+02 0.  0.
         11    1    3    3    0    0 -0.11918146719E+02  0.16239100371E+02  0.75792793485E+02  0.78423836595E+02  0.00000000000E+00 0. -1.
        -12    1    3    3    0    0 -0.56476856440E+01 -0.49427513656E+02  0.30105220805E+02  0.58148944781E+02  0.00000000000E+00 0.  1.
        -11    1    4    4    0    0  0.21382576889E+02 -0.63183843971E+01  0.97775623946E+02  0.10028563812E+03  0.00000000000E+00 0. -1.
         11    1    4    4    0    0 -0.24965048920E+02  0.23897886310E+02 -0.42166495205E+00  0.34562124342E+02  0.00000000000E+00 0.  1.
          2    1    1    2  501    0  0.21148304394E+02  0.15608911372E+02 -0.43313021127E+02  0.50664649334E+02  0.00000000000E+00 0. -1.
<scales pt_clust_5="13000.00000" pt_clust_6="13000.00000" pt_clust_7="13000.00000" pt_clust_8="13000.00000" pt_clust_9="26.28477"></scales>
<clustering>
<clus scale="   26.285">  2  9  1 -1</clus>
<clus scale="   77.638">  5  6 -1 -1</clus>
<clus scale="   82.323">  1  5  2 -1</clus>
<clus scale="   91.566">  7  8 -1 -1</clus>
<clus scale="   26.285">  2  5  1 -1</clus>
</clustering>
</event>
<event>
 9    1  0.1139120E-004  0.9431045E+02  0.7546771E-02  0.1297713E+00
          1   -1    0    0  502    0 -0.00000000000E+00  0.00000000000E+00  0.58177144958E+03  0.58177144958E+03  0.00000000000E+00 0. -1.
         21   -1    0    0  501  502  0.00000000000E+00 -0.00000000000E+00 -0.15165260082E+03  0.15165260082E+03  0.00000000000E+00 0.  1.
        -24    2    1    2    0    0  0.31101550386E+02 -0.11102393252E+02  0.52966066731E+03  0.53652139913E+03  0.78893723826E+02 0.  0.
         23    2    1    2    0    0 -0.65438353490E+02  0.41854753332E+02 -0.94310003858E+02  0.15051196705E+03  0.87894692180E+02 0.  0.
         11    1    3    3    0    0  0.56007335216E+02 -0.19248759097E+02  0.35501609415E+03  0.35992188518E+03  0.00000000000E+00 0. -1.
        -12    1    3    3    0    0 -0.24905784830E+02  0.81463658457E+01  0.17464457316E+03  0.17659951395E+03  0.00000000000E+00 0.  1.
        -13    1    4    4    0    0  0.16801146633E+02  0.22546106965E+02 -0.68985496946E+01  0.28951605402E+02  0.00000000000E+00 0. -1.
         13    1    4    4    0    0 -0.82239500123E+02  0.19308646367E+02 -0.87411454163E+02  0.12156036165E+03  0.00000000000E+00 0.  1.
          2    1    1    2  501    0  0.34336803104E+02 -0.30752360080E+02 -0.52318146951E+01  0.46390684225E+02  0.00000000000E+00 0. -1.
<scales pt_clust_5="13000.00000" pt_clust_6="13000.00000" pt_clust_7="13000.00000" pt_clust_8="13000.00000" pt_clust_9="46.09473"></scales>
<clustering>
<clus scale="   46.095">  2  9  1 -1</clus>
<clus scale="   78.894">  5  6 -1 -1</clus>
<clus scale="   85.984">  1  5  2 -1</clus>
<clus scale="   87.895">  7  8 -1 -1</clus>
<clus scale="   46.095">  2  5  1 -1</clus>
</clustering>
</event>
<event>
 9    1  0.9171696E-005  0.1123239E+03  0.7546771E-02  0.1259817E+00
         21   -1    0    0  501  502  0.00000000000E+00  0.00000000000E+00  0.22888865210E+03  0.22888865210E+03  0.00000000000E+00 0.  1.
         -2   -1    0    0    0  501 -0.00000000000E+00 -0.00000000000E+00 -0.57417029791E+03  0.57417029791E+03  0.00000000000E+00 0.  1.
        -24    2    1    2    0    0  0.53542005025E+02  0.15460150781E+02 -0.35176694462E+03  0.36499753042E+03  0.79858946401E+02 0.  0.
         23    2    1    2    0    0 -0.10350938603E+03 -0.55286182290E+02 -0.18474708634E+03  0.23643632919E+03  0.89442142740E+02 0.  0.
         13    1    3    3    0    0  0.51640505040E+02  0.29501244091E+02 -0.13205898820E+03  0.14483315066E+03  0.00000000000E+00 0. -1.
        -14    1    3    3    0    0  0.19014999845E+01 -0.14041093310E+02 -0.21970795641E+03  0.22016437976E+03  0.00000000000E+00 0.  1.
        -13    1    4    4    0    0  0.70696693430E+01 -0.30380939847E+02 -0.61711611105E+02  0.69146978790E+02  0.00000000000E+00 0.  1.
         13    1    4    4    0    0 -0.11057905538E+03 -0.24905242443E+02 -0.12303547524E+03  0.16728935040E+03  0.00000000000E+00 0. -1.
         -1    1    1    2    0  502  0.49967381010E+02  0.39826031509E+02  0.19123238515E+03  0.20162509041E+03  0.00000000000E+00 0.  1.
<scales pt_clust_5="13000.00000" pt_clust_6="13000.00000" pt_clust_7="13000.00000" pt_clust_8="13000.00000" pt_clust_9="63.89720"></scales>
<clustering>
<clus scale="   63.897">  1  9  2 -1</clus>
<clus scale="   79.859">  5  6 -1 -1</clus>
<clus scale="   89.442">  7  8 -1 -1</clus>
<clus scale="  104.853">  2  5  1 -1</clus>
<clus scale="   63.897">  1  5  2 -1</clus>
</clustering>
</event>
<event>
 9    1  0.9171696E-005  0.1477957E+03  0.7546771E-02  0.1205221E+00
         21   -1    0    0  501  502  0.00000000000E+00  0.00000000000E+00  0.99818463208E+02  0.99818463208E+02  0.00000000000E+00 0.  1.
         -2   -1    0    0    0  501 -0.00000000000E+00 -0.00000000000E+00 -0.33602434597E+03  0.33602434597E+03  0.00000000000E+00 0.  1.
        -24    2    1    2    0    0 -0.58785521651E+01 -0.12777874912E+03 -0.10805551903E+03  0.18602665772E+03  0.81042927430E+02 0.  0.
         23    2    1    2    0    0 -0.22663075031E+02  0.98482262590E+02 -0.24720898961E+02  0.13859311972E+03  0.91567237446E+02 0.  0.
         13    1    3    3    0    0 -0.26278458630E+02 -0.47455205561E+01 -0.18254818500E+02  0.32346804352E+02  0.00000000000E+00 0. -1.
        -14    1    3    3    0    0  0.20399906465E+02 -0.12303322857E+03 -0.89800700531E+02  0.15367985337E+03  0.00000000000E+00 0.  1.
        -13    1    4    4    0    0 -0.29801809112E+02  0.78025855962E+02 -0.55988177256E+02  0.10055276236E+03  0.00000000000E+00 0.  1.
         13    1    4    4    0    0  0.71387340808E+01  0.20456406628E+02  0.31267278295E+02  0.38040357364E+02  0.00000000000E+00 0. -1.
         -1    1    1    2    0  502  0.28541627197E+02  0.29296486534E+02 -0.10342946477E+03  0.11122303173E+03  0.00000000000E+00 0.  1.
<scales pt_clust_5="13000.00000" pt_clust_6="13000.00000" pt_clust_7="13000.00000" pt_clust_8="13000.00000" pt_clust_9="40.90123"></scales>
<clustering>
<clus scale="   40.901">  1  9  2 -1</clus>
<clus scale="   81.043">  5  6 -1 -1</clus>
<clus scale="   91.567">  7  8 -1 -1</clus>
<clus scale="  141.517">  2  5  1 -1</clus>
<clus scale="   40.901">  1  5  2 -1</clus>
</clustering>
</event>
<event>
 9    1  0.9171696E-005  0.1265640E+03  0.7546771E-02  0.1236697E+00
         21   -1    0    0  501  502  0.00000000000E+00  0.00000000000E+00  0.28528257115E+03  0.28528257115E+03  0.00000000000E+00 0. -1.
         -2   -1    0    0    0  501 -0.00000000000E+00 -0.00000000000E+00 -0.14269323186E+03  0.14269323186E+03  0.00000000000E+00 0.  1.
        -24    2    1    2    0    0 -0.73783237731E+02  0.38917654506E+02 -0.81415600392E+02  0.13963652414E+03  0.76885036805E+02 0.  0.
         23    2    1    2    0    0  0.10116038610E+03 -0.49721996829E+02  0.15015248989E+03  0.20883816941E+03  0.91443480329E+02 0.  0.
         11    1    3    3    0    0 -0.62873831186E+02  0.52131676994E+02 -0.32669991946E+02  0.87966804920E+02  0.00000000000E+00 0. -1.
        -12    1    3    3    0    0 -0.10909406545E+02 -0.13214022488E+02 -0.48745608447E+02  0.51669719220E+02  0.00000000000E+00 0.  1.
        -13    1    4    4    0    0  0.67771942258E+02  0.15050816949E+02  0.52735616451E+02  0.87181468735E+02  0.00000000000E+00 0.  1.
         13    1    4    4    0    0  0.33388443844E+02 -0.64772813778E+02  0.97416873442E+02  0.12165670067E+03  0.00000000000E+00 0. -1.
         -1    1    1    2    0  502 -0.27377148371E+02  0.10804342323E+02  0.73852449794E+02  0.79501109467E+02  0.00000000000E+00 0.  1.
<scales pt_clust_5="13000.00000" pt_clust_6="13000.00000" pt_clust_7="13000.00000" pt_clust_8="13000.00000" pt_clust_9="29.43199"></scales>
<clustering>
<clus scale="   29.432">  1  9  2 -1</clus>
<clus scale="   76.885">  5  6 -1 -1</clus>
<clus scale="   91.443">  7  8 -1 -1</clus>
<clus scale="  116.481">  2  5  1 -1</clus>
<clus scale="   29.432">  1  5  2 -1</clus>
</clustering>
</event>
<event>
 9    1  0.9171696E-005  0.1235596E+03  0.7546771E-02  0.1250600E+00
         21   -1    0    0  501  502  0.00000000000E+00  0.00000000000E+00  0.31286883580E+03  0.31286883580E+03  0.00000000000E+00 0. -1.
         -4   -1    0    0    0  501 -0.00000000000E+00 -0.00000000000E+00 -0.95109296663E+02  0.95109296663E+02  0.00000000000E+00 0.  1.
        -24    2    1    2    0    0 -0.14103067347E+02  0.46814702419E+02  0.16793318260E+03  0.19272059720E+03  0.80926892305E+02 0.  0.
         23    2    1    2    0    0 -0.25843524222E+02  0.45254996909E+02  0.18696835817E+02  0.11017848515E+03  0.95256624080E+02 0.  0.
         11    1    3    3    0    0 -0.85517177724E+01  0.40901711215E+02  0.17623109322E+03  0.18111731026E+03  0.00000000000E+00 0. -1.
        -12    1    3    3    0    0 -0.55513495741E+01  0.59129912038E+01 -0.82979106278E+01  0.11603286942E+02  0.00000000000E+00 0.  1.
        -13    1    4    4    0    0  0.27139670458E+02 -0.11539999775E+02 -0.26970033762E+01  0.29614306249E+02  0.00000000000E+00 0.  1.
         13    1    4    4    0    0 -0.52983194680E+02  0.56794996683E+02  0.21393839194E+02  0.80564178902E+02  0.00000000000E+00 0. -1.
         -3    1    1    2    0  502  0.39946591568E+02 -0.92069699327E+02  0.31129520729E+02  0.10507905011E+03  0.00000000000E+00 0.  1.
<scales pt_clust_5="13000.00000" pt_clust_6="13000.00000" pt_clust_7="13000.00000" pt_clust_8="13000.00000" pt_clust_9="78.69653"></scales>
<clustering>
<clus scale="   80.927">  5  6 -1 -1</clus>
<clus scale="   94.550">  2  5  1 -1</clus>
<clus scale="   78.697">  1  9  2 -1</clus>
<clus scale="   95.257">  7  8 -1 -1</clus>
<clus scale="   78.697">  1  5  2 -1</clus>
</clustering>
</event>
<event>
 9    1  0.9171696E-005  0.1375536E+03  0.7546771E-02  0.1237303E+00
         21   -1    0    0  501  502  0.00000000000E+00  0.00000000000E+00  0.30673648239E+03  0.30673648239E+03  0.00000000000E+00 0. -1.
          1   -1    0    0  502    0 -0.00000000000E+00 -0.00000000000E+00 -0.23628448696E+03  0.23628448696E+03  0.00000000000E+00 0. -1.
        -24    2    1    2    0    0  0.17058980530E+02 -0.34645468826E+02  0.23040530761E+03  0.24722042502E+03  0.80870361956E+02 0.  0.
         23    2    1    2    0    0  0.87658286694E+02  0.34116633176E+02 -0.51397323713E+02  0.14496822567E+03  0.97602160246E+02 0.  0.
         11    1    3    3    0    0 -0.16004799287E+02 -0.48678299480E+02  0.16268554591E+03  0.17056470118E+03  0.00000000000E+00 0. -1.
        -12    1    3    3    0    0  0.33063779818E+02  0.14032830654E+02  0.67719761700E+02  0.76655723835E+02  0.00000000000E+00 0.  1.
        -13    1    4    4    0    0  0.85633016622E+02  0.12752087509E+02  0.28563006527E+01  0.86624406059E+02  0.00000000000E+00 0.  1.
         13    1    4    4    0    0  0.20252700722E+01  0.21364545667E+02 -0.54253624366E+02  0.58343819615E+02  0.00000000000E+00 0. -1.
          2    1    1    2  501    0 -0.10471726722E+03  0.52883565048E+00 -0.10855598847E+03  0.15083231867E+03  0.00000000000E+00 0. -1.
<scales pt_clust_5="13000.00000" pt_clust_6="13000.00000" pt_clust_7="13000.00000" pt_clust_8="13000.00000" pt_clust_9="96.92686"></scales>
<clustering>
<clus scale="   80.870">  5  6 -1 -1</clus>
<clus scale="   89.618">  2  5  1 -1</clus>
<clus scale="   96.927">  1  9  2 -1</clus>
<clus scale="   97.602">  7  8 -1 -1</clus>
<clus scale="   96.927">  1  5  2 -1</clus>
</clustering>
</event>
<event>
 9    1  0.9171696E-005  0.1158086E+03  0.7546771E-02  0.1252781E+00
         21   -1    0    0  501  502  0.00000000000E+00  0.00000000000E+00  0.14230785439E+03  0.14230785439E+03  0.00000000000E+00 0. -1.
          1   -1    0    0  502    0 -0.00000000000E+00 -0.00000000000E+00 -0.16799173161E+03  0.16799173161E+03  0.00000000000E+00 0. -1.
        -24    2    1    2    0    0  0.61168330581E+02 -0.75089006308E+02 -0.68471970982E+02  0.14336052864E+03  0.80522710017E+02 0.  0.
         23    2    1    2    0    0 -0.74940726362E+01  0.40520272011E+02  0.27349296158E+02  0.10125587968E+03  0.88355620091E+02 0.  0.
         11    1    3    3    0    0  0.77857464655E+02 -0.75201499770E+02 -0.52679222266E+02  0.12038334947E+03  0.00000000000E+00 0. -1.
        -12    1    3    3    0    0 -0.16689134074E+02  0.11249346257E+00 -0.15792748717E+02  0.22977179177E+02  0.00000000000E+00 0.  1.
        -13    1    4    4    0    0 -0.24230747036E+02  0.61266867971E+02  0.43136113126E+01  0.66025490952E+02  0.00000000000E+00 0.  1.
         13    1    4    4    0    0  0.16736674399E+02 -0.20746595960E+02  0.23035684845E+02  0.35230388732E+02  0.00000000000E+00 0. -1.
          2    1    1    2  501    0 -0.53674257944E+02  0.34568734297E+02  0.15438797606E+02  0.65683177666E+02  0.00000000000E+00 0. -1.
<scales pt_clust_5="13000.00000" pt_clust_6="13000.00000" pt_clust_7="13000.00000" pt_clust_8="13000.00000" pt_clust_9="63.84296"></scales>
<clustering>
<clus scale="   63.843">  1  9  2 -1</clus>
<clus scale="   80.523">  5  6 -1 -1</clus>
<clus scale="   88.356">  7  8 -1 -1</clus>
<clus scale="  109.949">  2  5  1 -1</clus>
<clus scale="   63.843">  1  5  2 -1</clus>
</clustering>
</event>
<event>
 9    1  0.9171696E-005  0.1361616E+03  0.7546771E-02  0.1231768E+00
         21   -1    0    0  501  502  0.00000000000E+00  0.00000000000E+00  0.48114789414E+02  0.48114789414E+02  0.00000000000E+00 0. -1.
          3   -1    0    0  502    0 -0.00000000000E+00 -0.00000000000E+00 -0.93630959620E+03  0.93630959620E+03  0.00000000000E+00 0. -1.
         23    2    1    2    0    0 -0.19009350439E+02 -0.14683058775E+02 -0.38952226068E+03  0.40833945607E+03  0.12015228752E+03 0.  0.
        -24    2    1    2    0    0  0.12058279680E+03 -0.13169691058E+00 -0.42648071730E+03  0.45059269019E+03  0.81288018767E+02 0.  0.
         11    1    4    4    0    0  0.11337339768E+03 -0.21246846159E+02 -0.39820142557E+03  0.41457126179E+03  0.00000000000E+00 0. -1.
        -12    1    4    4    0    0  0.72093991186E+01  0.21115149248E+02 -0.28279291732E+02  0.36021428404E+02  0.00000000000E+00 0.  1.
        -13    1    3    3    0    0  0.11876465936E+02  0.48230191156E+02 -0.12045922610E+03  0.13029822306E+03  0.00000000000E+00 0.  1.
         13    1    3    3    0    0 -0.30885816375E+02 -0.62913249932E+02 -0.26906303459E+03  0.27804123301E+03  0.00000000000E+00 0. -1.
          4    1    1    2  501    0 -0.10157344636E+03  0.14814755686E+02 -0.72191828800E+02  0.12549223935E+03  0.00000000000E+00 0. -1.
<scales pt_clust_5="13000.00000" pt_clust_6="13000.00000" pt_clust_7="13000.00000" pt_clust_8="13000.00000" pt_clust_9="102.64815"></scales>
<clustering>
<clus scale="   81.288">  5  6 -1 -1</clus>
<clus scale="  102.648">  1  9  2 -1</clus>
<clus scale="  103.495">  1  5  2 -1</clus>
<clus scale="  120.152">  7  8 -1 -1</clus>
<clus scale="  102.648">  1  5  2 -1</clus>
</clustering>
</event>
<event>
 9    1  0.9171696E-005  0.2474550E+03  0.7546771E-02  0.1115303E+00
         21   -1    0    0  501  502  0.00000000000E+00  0.00000000000E+00  0.36492621367E+03  0.36492621367E+03  0.00000000000E+00 0.  1.
         -4   -1    0    0    0  501 -0.00000000000E+00 -0.00000000000E+00 -0.22948100939E+03  0.22948100939E+03  0.00000000000E+00 0.  1.
         23    2    1    2    0    0 -0.18736068374E+03 -0.12314252741E+03 -0.64362113725E+01  0.24166610560E+03  0.89960957680E+02 0.  0.
        -24    2    1    2    0    0  0.17227650282E+03  0.17559486174E+03  0.14614387012E+03  0.29799672590E+03  0.83254243016E+02 0.  0.
         13    1    4    4    0    0  0.11449664971E+03  0.82887085766E+02  0.42970471537E+02  0.14773697305E+03  0.00000000000E+00 0. -1.
        -14    1    4    4    0    0  0.57779853108E+02  0.92707775970E+02  0.10317339858E+03  0.15025975285E+03  0.00000000000E+00 0.  1.
        -11    1    3    3    0    0 -0.25473096596E+02 -0.27806080833E+02  0.32520166744E+02  0.49795763139E+02  0.00000000000E+00 0.  1.
         11    1    3    3    0    0 -0.16188758715E+03 -0.95336446579E+02 -0.38956378117E+02  0.19187034246E+03  0.00000000000E+00 0. -1.
         -3    1    1    2    0  502  0.15084180924E+02 -0.52452334324E+02 -0.42624544694E+01  0.54744391569E+02  0.00000000000E+00 0.  1.
<scales pt_clust_5="13000.00000" pt_clust_6="13000.00000" pt_clust_7="13000.00000" pt_clust_8="13000.00000" pt_clust_9="54.57823"></scales>
<clustering>
<clus scale="   54.578">  1  9  2 -1</clus>
<clus scale="   83.254">  5  6 -1 -1</clus>
<clus scale="   89.961">  7  8 -1 -1</clus>
<clus scale="  245.096">  1  5  2 -1</clus>
<clus scale="   54.578">  1  5  2 -1</clus>
</clustering>
</event>
<event>
 9    1  0.9171696E-005  0.3359519E+03  0.7546771E-02  0.1117002E+00
         21   -1    0    0  501  502  0.00000000000E+00  0.00000000000E+00  0.17107827050E+03  0.17107827050E+03  0.00000000000E+00 0. -1.
          1   -1    0    0  502    0 -0.00000000000E+00 -0.00000000000E+00 -0.11390264909E+04  0.11390264909E+04  0.00000000000E+00 0. -1.
        -24    2    1    2    0    0  0.46534364589E+02 -0.17447916234E+02 -0.64046475071E+02  0.11361805164E+03  0.79606744813E+02 0.  0.
         23    2    1    2    0    0  0.62314782022E+00 -0.30871574028E+03 -0.78168301227E+03  0.84499847309E+03  0.87682901620E+02 0.  0.
         11    1    3    3    0    0  0.58399531404E+02  0.90676624237E+01 -0.60121356300E+02  0.84304835291E+02  0.00000000000E+00 0. -1.
        -12    1    3    3    0    0 -0.11865166815E+02 -0.26515578658E+02 -0.39251187711E+01  0.29313216345E+02  0.00000000000E+00 0.  1.
        -11    1    4    4    0    0 -0.13856838746E+02 -0.20089513181E+03 -0.60371379834E+03  0.63641277193E+03  0.00000000000E+00 0. -1.
         11    1    4    4    0    0  0.14479986566E+02 -0.10782060847E+03 -0.17796921393E+03  0.20858570116E+03  0.00000000000E+00 0.  1.
          2    1    1    2  501    0 -0.47157512409E+02  0.32616365652E+03 -0.12221873306E+03  0.35148823667E+03  0.00000000000E+00 0. -1.
<scales pt_clust_5="13000.00000" pt_clust_6="13000.00000" pt_clust_7="13000.00000" pt_clust_8="13000.00000" pt_clust_9="324.30756"></scales>
<clustering>
<clus scale="   79.607">  5  6 -1 -1</clus>
<clus scale="   87.683">  7  8 -1 -1</clus>
<clus scale="   93.846">  2  5  1 -1</clus>
<clus scale="  324.308">  1  9  2 -1</clus>
<clus scale="  324.308">  1  5  2 -1</clus>
</clustering>
</event>
<event>
 9    1  0.9171696E-005  0.3635212E+03  0.7546771E-02  0.1095756E+00
          1   -1    0    0  502    0 -0.00000000000E+00  0.00000000000E+00  0.18678075506E+04  0.18678075506E+04  0.00000000000E+00 0. -1.
         21   -1    0    0  501  502  0.00000000000E+00 -0.00000000000E+00 -0.21737498243E+03  0.21737498243E+03  0.00000000000E+00 0. -1.
         23    2    1    2    0    0  0.81013315356E+02 -0.39571179601E+02  0.30072409884E+03  0.32672446355E+03  0.90470193676E+02 0.  0.
        -24    2    1    2    0    0  0.15037443587E+03  0.31068228704E+03  0.13563076955E+04  0.14019681345E+04  0.82511397831E+02 0.  0.
         13    1    4    4    0    0  0.14242349316E+03  0.29564554686E+03  0.13347970908E+04  0.13745450209E+04  0.00000000000E+00 0. -1.
        -14    1    4    4    0    0  0.79509427100E+01  0.15036740175E+02  0.21510604665E+02  0.27423113575E+02  0.00000000000E+00 0.  1.
        -11    1    3    3    0    0  0.83236718729E+02 -0.62661728660E+02  0.25468619112E+03  0.27517249051E+03  0.00000000000E+00 0.  1.
         11    1    3    3    0    0 -0.22234033723E+01  0.23090549058E+02  0.46037907714E+02  0.51551973048E+02  0.00000000000E+00 0. -1.
          2    1    1    2  501    0 -0.23138775122E+03 -0.27111110744E+03 -0.65992261457E+01  0.35648993503E+03  0.00000000000E+00 0. -1.
<scales pt_clust_5="13000.00000" pt_clust_6="13000.00000" pt_clust_7="13000.00000" pt_clust_8="13000.00000" pt_clust_9="354.03319"></scales>
<clustering>
<clus scale="   82.511">  5  6 -1 -1</clus>
<clus scale="   90.470">  7  8 -1 -1</clus>
<clus scale="  127.726">  1  7  2 -1</clus>
<clus scale="  354.033">  2  9  1 -1</clus>
<clus scale="  354.033">  2  5  1 -1</clus>
</clustering>
</event>
<event>
 9    1  0.9171696E-005  0.1049180E+03  0.7546771E-02  0.1274983E+00
          3   -1    0    0  502    0 -0.00000000000E+00  0.00000000000E+00  0.78164791812E+02  0.78164791812E+02  0.00000000000E+00 0. -1.
         21   -1    0    0  501  502  0.00000000000E+00 -0.00000000000E+00 -0.40932286725E+03  0.40932286725E+03  0.00000000000E+00 0. -1.
         23    2    1    2    0    0  0.50240405355E+02 -0.39003871679E+02 -0.84076924410E+02  0.13938106747E+03  0.91174296890E+02 0.  0.
        -24    2    1    2    0    0 -0.40038937248E+02 -0.21946228545E+02 -0.26745972934E+03  0.28303531435E+03  0.80557612339E+02 0.  0.
         11    1    4    4    0    0 -0.19845209416E+02 -0.38905392360E+02 -0.24356390048E+03  0.24744865227E+03  0.00000000000E+00 0. -1.
        -12    1    4    4    0    0 -0.20193727832E+02  0.16959163815E+02 -0.23895828855E+02  0.35586662076E+02  0.00000000000E+00 0.  1.
        -13    1    3    3    0    0  0.69689141628E+02 -0.52695833376E+02 -0.66948183267E+02  0.11007037094E+03  0.00000000000E+00 0. -1.
         13    1    3    3    0    0 -0.19448736272E+02  0.13691961697E+02 -0.17128741143E+02  0.29310696526E+02  0.00000000000E+00 0.  1.
          4    1    1    2  501    0 -0.10201468108E+02  0.60950100224E+02  0.20378578311E+02  0.65071277249E+02  0.00000000000E+00 0. -1.
<scales pt_clust_5="13000.00000" pt_clust_6="13000.00000" pt_clust_7="13000.00000" pt_clust_8="13000.00000" pt_clust_9="61.79797"></scales>
<clustering>
<clus scale="   61.798">  2  9  1 -1</clus>
<clus scale="   80.558">  5  6 -1 -1</clus>
<clus scale="   91.174">  7  8 -1 -1</clus>
<clus scale="   95.836">  2  5  1 -1</clus>
<clus scale="   61.798">  2  5  1 -1</clus>
</clustering>
</event>
<event>
 9    1  0.9171696E-005  0.1035517E+03  0.7546771E-02  0.1277030E+00
         21   -1    0    0  501  502  0.00000000000E+00  0.00000000000E+00  0.60826270379E+02  0.60826270379E+02  0.00000000000E+00 0.  1.
          1   -1    0    0  502    0 -0.00000000000E+00 -0.00000000000E+00 -0.50201612792E+03  0.50201612792E+03  0.00000000000E+00 0. -1.
         23    2    1    2    0    0  0.46514086345E+02  0.87010337956E+01 -0.40293078627E+03  0.41570948017E+03  0.90674611448E+02 0.  0.
        -24    2    1    2    0    0 -0.58698211444E+02 -0.38628115889E+02 -0.39441194742E+02  0.11479902626E+03  0.81765501430E+02 0.  0.
         11    1    4    4    0    0  0.28623418177E+01 -0.41933095186E+02 -0.79518536890E+00  0.42038194446E+02  0.00000000000E+00 0. -1.
        -12    1    4    4    0    0 -0.61560553262E+02  0.33049792970E+01 -0.38646009374E+02  0.72760831816E+02  0.00000000000E+00 0.  1.
        -13    1    3    3    0    0 -0.14261360290E+02  0.33443774408E+02 -0.12867479671E+03  0.13371266115E+03  0.00000000000E+00 0.  1.
         13    1    3    3    0    0  0.60775446635E+02 -0.24742740612E+02 -0.27425598956E+03  0.28199681902E+03  0.00000000000E+00 0. -1.
          2    1    1    2  501    0  0.12184125099E+02  0.29927082093E+02  0.11821234769E+01  0.32333891862E+02  0.00000000000E+00 0. -1.
<scales pt_clust_5="13000.00000" pt_clust_6="13000.00000" pt_clust_7="13000.00000" pt_clust_8="13000.00000" pt_clust_9="32.31228"></scales>
<clustering>
<clus scale="   32.312">  1  9  2 -1</clus>
<clus scale="   81.766">  5  6 -1 -1</clus>
<clus scale="   90.675">  7  8 -1 -1</clus>
<clus scale="   95.847">  1  5  2 -1</clus>
<clus scale="   32.312">  1  5  2 -1</clus>
</clustering>
</event>
<event>
 9    1  0.9171696E-005  0.1714671E+03  0.7546771E-02  0.1178273E+00
         -2   -1    0    0    0  501 -0.00000000000E+00  0.00000000000E+00  0.16237018796E+03  0.16237018796E+03  0.00000000000E+00 0.  1.
         21   -1    0    0  501  502  0.00000000000E+00 -0.00000000000E+00 -0.36200849354E+03  0.36200849354E+03  0.00000000000E+00 0. -1.
         23    2    1    2    0    0  0.12855656740E+03 -0.90981148059E+02  0.44337607385E+02  0.18771598688E+03  0.92016889633E+02 0.  0.
        -24    2    1    2    0    0 -0.11336636811E+03  0.14612250209E+02 -0.21089775994E+03  0.25206296105E+03  0.77410722191E+02 0.  0.
         11    1    4    4    0    0 -0.79279955747E+02 -0.15187024844E+02 -0.17993652892E+03  0.19721336553E+03  0.00000000000E+00 0. -1.
        -12    1    4    4    0    0 -0.34086412366E+02  0.29799275053E+02 -0.30961231021E+02  0.54849595513E+02  0.00000000000E+00 0.  1.
        -13    1    3    3    0    0  0.26631738409E+02 -0.74458701188E+02  0.21831465335E+02  0.82036336778E+02  0.00000000000E+00 0.  1.
         13    1    3    3    0    0  0.10192482899E+03 -0.16522446871E+02  0.22506142049E+02  0.10567965010E+03  0.00000000000E+00 0. -1.
         -1    1    1    2    0  502 -0.15190199291E+02  0.76368897850E+02 -0.33078153031E+02  0.84599733577E+02  0.00000000000E+00 0.  1.
<scales pt_clust_5="13000.00000" pt_clust_6="13000.00000" pt_clust_7="13000.00000" pt_clust_8="13000.00000" pt_clust_9="77.86495"></scales>
<clustering>
<clus scale="   77.411">  5  6 -1 -1</clus>
<clus scale="   77.865">  2  9  1 -1</clus>
<clus scale="   92.017">  7  8 -1 -1</clus>
<clus scale="  164.092">  2  5  1 -1</clus>
<clus scale="   77.865">  2  5  1 -1</clus>
</clustering>
</event>
<event>
 9    1  0.9171696E-005  0.1723453E+03  0.7546771E-02  0.1188693E+00
         21   -1    0    0  501  502  0.00000000000E+00  0.00000000000E+00  0.15075301436E+03  0.15075301436E+03  0.00000000000E+00 0. -1.
          1   -1    0    0  502    0 -0.00000000000E+00 -0.00000000000E+00 -0.46041391347E+03  0.46041391347E+03  0.00000000000E+00 0. -1.
        -24    2    1    2    0    0  0.43845037871E+02  0.89129994495E+02 -0.21506917427E+03  0.25029423689E+03  0.80783117263E+02 0.  0.
         23    2    1    2    0    0 -0.17328037085E+03 -0.48770060263E+02 -0.95503262245E+02  0.22528780750E+03  0.96068295549E+02 0.  0.
         13    1    3    3    0    0  0.66690428663E+02  0.71731122409E+02 -0.18043066793E+03  0.20530025116E+03  0.00000000000E+00 0. -1.
        -14    1    3    3    0    0 -0.22845390792E+02  0.17398872086E+02 -0.34638506343E+02  0.44993985732E+02  0.00000000000E+00 0.  1.
        -13    1    4    4    0    0 -0.26178948972E+02  0.21884315024E+02  0.36835320633E+01  0.34319513717E+02  0.00000000000E+00 0.  1.
         13    1    4    4    0    0 -0.14710142188E+03 -0.70654375287E+02 -0.99186794308E+02  0.19096829379E+03  0.00000000000E+00 0. -1.
          2    1    1    2  501    0  0.12943533298E+03 -0.40359934232E+02  0.91153740708E+00  0.13558488343E+03  0.00000000000E+00 0. -1.
<scales pt_clust_5="13000.00000" pt_clust_6="13000.00000" pt_clust_7="13000.00000" pt_clust_8="13000.00000" pt_clust_9="143.08669"></scales>
<clustering>
<clus scale="   80.783">  5  6 -1 -1</clus>
<clus scale="   96.068">  7  8 -1 -1</clus>
<clus scale="  128.033">  2  5  1 -1</clus>
<clus scale="  143.087">  1  9  2 -1</clus>
<clus scale="  143.087">  1  5  2 -1</clus>
</clustering>
</event>
<event>
 9    1  0.9171696E-005  0.1103748E+03  0.7546771E-02  0.1264151E+00
         21   -1    0    0  501  502  0.00000000000E+00  0.00000000000E+00  0.83878243990E+02  0.83878243990E+02  0.00000000000E+00 0.  1.
          1   -1    0    0  502    0 -0.00000000000E+00 -0.00000000000E+00 -0.30601143582E+03  0.30601143582E+03  0.00000000000E+00 0. -1.
        -24    2    1    2    0    0  0.34620127852E+02  0.18836499677E+02 -0.22524237790E+03  0.25035703980E+03  0.10193699819E+03 0.  0.
         23    2    1    2    0    0 -0.42287225668E+02 -0.41304752604E+02  0.18656377228E+02  0.11115444537E+03  0.92265693903E+02 0.  0.
         13    1    3    3    0    0  0.39606495322E+02 -0.15223177783E+02 -0.20718538989E+03  0.21148570968E+03  0.00000000000E+00 0. -1.
        -14    1    3    3    0    0 -0.49863674696E+01  0.34059677460E+02 -0.18056988008E+02  0.38871330118E+02  0.00000000000E+00 0.  1.
        -11    1    4    4    0    0 -0.49247069137E+02 -0.20130490675E+02  0.49788786307E+02  0.72865861111E+02  0.00000000000E+00 0.  1.
         11    1    4    4    0    0  0.69598434690E+01 -0.21174261929E+02 -0.31132409080E+02  0.38288584258E+02  0.00000000000E+00 0. -1.
          2    1    1    2  501    0  0.76670978161E+01  0.22468252928E+02 -0.15547191159E+02  0.28378194648E+02  0.00000000000E+00 0. -1.
<scales pt_clust_5="13000.00000" pt_clust_6="13000.00000" pt_clust_7="13000.00000" pt_clust_8="13000.00000" pt_clust_9="23.74040"></scales>
<clustering>
<clus scale="   23.740">  1  9  2 -1</clus>
<clus scale="   92.266">  7  8 -1 -1</clus>
<clus scale="  101.511">  1  7  2 -1</clus>
<clus scale="  101.937">  5  6 -1 -1</clus>
<clus scale="   23.740">  1  5  2 -1</clus>
</clustering>
</event>
<event>
 9    1  0.9171696E-005  0.1910624E+03  0.7546771E-02  0.1184873E+00
         -4   -1    0    0    0  501 -0.00000000000E+00  0.00000000000E+00  0.10889265763E+04  0.10889265763E+04  0.00000000000E+00 0.  1.
         21   -1    0    0  501  502  0.00000000000E+00 -0.00000000000E+00 -0.79466805883E+02  0.79466805883E+02  0.00000000000E+00 0.  1.
        -24    2    1    2    0    0  0.17829849707E+02  0.59172918114E+02  0.64389720868E+03  0.65197208347E+03  0.81514688878E+02 0.  0.
         23    2    1    2    0    0 -0.10956949775E+03  0.10448553550E+03  0.18430145911E+03  0.25554615656E+03  0.91728448872E+02 0.  0.
         13    1    3    3    0    0  0.40931101541E+02  0.53793659909E+02  0.31249455175E+03  0.31972168803E+03  0.00000000000E+00 0. -1.
        -14    1    3    3    0    0 -0.23101251834E+02  0.53792582045E+01  0.33140265693E+03  0.33225039544E+03  0.00000000000E+00 0.  1.
        -13    1    4    4    0    0 -0.90117234509E+02  0.51596235623E+02  0.16689950925E+03  0.19656737693E+03  0.00000000000E+00 0.  1.
         13    1    4    4    0    0 -0.19452263242E+02  0.52889299880E+02  0.17401949865E+02  0.58978779625E+02  0.00000000000E+00 0. -1.
         -3    1    1    2    0  502  0.91739648044E+02 -0.16365845362E+03  0.18126110258E+03  0.26087514211E+03  0.00000000000E+00 0.  1.
<scales pt_clust_5="13000.00000" pt_clust_6="13000.00000" pt_clust_7="13000.00000" pt_clust_8="13000.00000" pt_clust_9="167.60295"></scales>
<clustering>
<clus scale="   81.515">  5  6 -1 -1</clus>
<clus scale="   91.728">  7  8 -1 -1</clus>
<clus scale="  102.294">  1  5  2 -1</clus>
<clus scale="  167.603">  2  9  1 -1</clus>
<clus scale="  167.603">  2  5  1 -1</clus>
</clustering>
</event>
<event>
 9    1  0.9171696E-005  0.9755839E+02  0.7546771E-02  0.1290808E+00
         21   -1    0    0  501  502  0.00000000000E+00  0.00000000000E+00  0.23472912856E+03  0.23472912856E+03  0.00000000000E+00 0. -1.
          1   -1    0    0  502    0 -0.00000000000E+00 -0.00000000000E+00 -0.53764466083E+02  0.53764466083E+02  0.00000000000E+00 0. -1.
         23    2    1    2    0    0 -0.67244648161E+00  0.42382953858E+02  0.49323284434E+02  0.11184775090E+03  0.90996516595E+02 0.  0.
        -24    2    1    2    0    0  0.75948922038E+01 -0.22020197474E+02  0.13017516636E+03  0.15508866677E+03  0.81020671063E+02 0.  0.
         11    1    4    4    0    0  0.38138586720E+02 -0.88177752108E+01  0.10857939146E+03  0.11542005548E+03  0.00000000000E+00 0. -1.
        -12    1    4    4    0    0 -0.30543694516E+02 -0.13202422263E+02  0.21595774899E+02  0.39668611292E+02  0.00000000000E+00 0.  1.
        -11    1    3    3    0    0  0.30779999412E+02  0.52954762437E+02  0.12933456388E+02  0.62601034518E+02  0.00000000000E+00 0.  1.
         11    1    3    3    0    0 -0.31452445894E+02 -0.10571808579E+02  0.36389828046E+02  0.49246716384E+02  0.00000000000E+00 0. -1.
          2    1    1    2  501    0 -0.69224457222E+01 -0.20362756384E+02  0.14662116845E+01  0.21557176972E+02  0.00000000000E+00 0. -1.
<scales pt_clust_5="13000.00000" pt_clust_6="13000.00000" pt_clust_7="13000.00000" pt_clust_8="13000.00000" pt_clust_9="21.50727"></scales>
<clustering>
<clus scale="   21.507">  1  9  2 -1</clus>
<clus scale="   81.021">  5  6 -1 -1</clus>
<clus scale="   88.327">  1  5  2 -1</clus>
<clus scale="   90.997">  7  8 -1 -1</clus>
<clus scale="   21.507">  1  5  2 -1</clus>
</clustering>
</event>
<event>
 9    1  0.9171696E-005  0.3191969E+03  0.7546771E-02  0.1109467E+00
         21   -1    0    0  501  502  0.00000000000E+00  0.00000000000E+00  0.56219210958E+03  0.56219210958E+03  0.00000000000E+00 0.  1.
         -2   -1    0    0    0  501 -0.00000000000E+00 -0.00000000000E+00 -0.36326460049E+03  0.36326460049E+03  0.00000000000E+00 0.  1.
        -24    2    1    2    0    0  0.90840549012E+02 -0.53637597002E+02  0.95910724327E+02  0.16349941424E+03  0.80026209832E+02 0.  0.
         23    2    1    2    0    0 -0.17789074362E+03 -0.24415479884E+03 -0.16091250382E+03  0.35462853822E+03  0.92800235818E+02 0.  0.
         11    1    3    3    0    0  0.76579693231E+02 -0.58826933056E+02  0.38234616938E+02  0.10386021086E+03  0.00000000000E+00 0. -1.
        -12    1    3    3    0    0  0.14260855780E+02  0.51893360544E+01  0.57676107389E+02  0.59639203380E+02  0.00000000000E+00 0.  1.
        -13    1    4    4    0    0 -0.13537336541E+03 -0.21736933758E+03 -0.98184753460E+02  0.27425466777E+03  0.00000000000E+00 0.  1.
         13    1    4    4    0    0 -0.42517378218E+02 -0.26785461262E+02 -0.62727750360E+02  0.80373870448E+02  0.00000000000E+00 0. -1.
         -1    1    1    2    0  502  0.87050194611E+02  0.29779239584E+03  0.26392928858E+03  0.40732875761E+03  0.00000000000E+00 0.  1.
<scales pt_clust_5="13000.00000" pt_clust_6="13000.00000" pt_clust_7="13000.00000" pt_clust_8="13000.00000" pt_clust_9="305.40923"></scales>
<clustering>
<clus scale="   80.026">  5  6 -1 -1</clus>
<clus scale="   92.800">  7  8 -1 -1</clus>
<clus scale="  132.413">  2  5  1 -1</clus>
<clus scale="  305.409">  1  9  2 -1</clus>
<clus scale="  305.409">  1  5  2 -1</clus>
</clustering>
</event>
<event>
 9    1  0.9171696E-005  0.9473302E+02  0.7546771E-02  0.1298463E+00
         -2   -1    0    0    0  501 -0.00000000000E+00  0.00000000000E+00  0.11677900498E+03  0.11677900498E+03  0.00000000000E+00 0.  1.
         21   -1    0    0  501  502  0.00000000000E+00 -0.00000000000E+00 -0.22635503420E+03  0.22635503420E+03  0.00000000000E+00 0.  1.
         23    2    1    2    0    0 -0.20739459235E+02 -0.18981324697E+02  0.15713525965E+02  0.96880986517E+02  0.91370645142E+02 0.  0.
        -24    2    1    2    0    0 -0.16344540040E+02  0.28900998847E+02 -0.16792581217E+03  0.18888168918E+03  0.79842359640E+02 0.  0.
         13    1    4    4    0    0 -0.36268546655E+02 -0.10666166782E+02 -0.10752007964E+03  0.11397254984E+03  0.00000000000E+00 0. -1.
        -14    1    4    4    0    0  0.19924006615E+02  0.39567165629E+02 -0.60405732526E+02  0.74909139346E+02  0.00000000000E+00 0.  1.
        -11    1    3    3    0    0 -0.56332467250E+02 -0.60057216100E+01  0.23216227503E+01  0.56699254763E+02  0.00000000000E+00 0.  1.
         11    1    3    3    0    0  0.35593008015E+02 -0.12975603087E+02  0.13391903215E+02  0.40181731754E+02  0.00000000000E+00 0. -1.
         -1    1    1    2    0  502  0.37083999275E+02 -0.99196741498E+01  0.42636256988E+02  0.57371363479E+02  0.00000000000E+00 0.  1.
<scales pt_clust_5="13000.00000" pt_clust_6="13000.00000" pt_clust_7="13000.00000" pt_clust_8="13000.00000" pt_clust_9="38.38782"></scales>
<clustering>
<clus scale="   38.388">  2  9  1 -1</clus>
<clus scale="   79.842">  5  6 -1 -1</clus>
<clus scale="   83.669">  2  5  1 -1</clus>
<clus scale="   91.371">  7  8 -1 -1</clus>
<clus scale="   38.388">  2  5  1 -1</clus>
</clustering>
</event>
<event>
 9    1  0.9171696E-005  0.9429703E+02  0.7546771E-02  0.1295308E+00
          3   -1    0    0  502    0 -0.00000000000E+00  0.00000000000E+00  0.62945937585E+03  0.62945937585E+03  0.00000000000E+00 0. -1.
         21   -1    0    0  501  502  0.00000000000E+00 -0.00000000000E+00 -0.44123195744E+02  0.44123195744E+02  0.00000000000E+00 0.  1.
        -24    2    1    2    0    0  0.21850288734E+02  0.38222965358E+02  0.15630740339E+03  0.18352781983E+03  0.85510385896E+02 0.  0.
         23    2    1    2    0    0  0.87102931499E+01  0.25716431697E+01  0.42211735673E+02  0.99893794612E+02  0.90080280962E+02 0.  0.
         11    1    3    3    0    0  0.10236114952E+02  0.60915173678E+02  0.14063893953E+03  0.15360581938E+03  0.00000000000E+00 0. -1.
        -12    1    3    3    0    0  0.11614173783E+02 -0.22692208320E+02  0.15668463860E+02  0.29922000448E+02  0.00000000000E+00 0.  1.
        -11    1    4    4    0    0 -0.35180527221E+01 -0.30538457561E+02  0.54456709375E+02  0.62534048974E+02  0.00000000000E+00 0. -1.
         11    1    4    4    0    0  0.12228345872E+02  0.33110100731E+02 -0.12244973702E+02  0.37359745638E+02  0.00000000000E+00 0.  1.
          4    1    1    2  501    0 -0.30560581884E+02 -0.40794608528E+02  0.38681704104E+03  0.39016095716E+03  0.00000000000E+00 0. -1.
<scales pt_clust_5="13000.00000" pt_clust_6="13000.00000" pt_clust_7="13000.00000" pt_clust_8="13000.00000" pt_clust_9="50.97207"></scales>
<clustering>
<clus scale="   50.972">  2  9  1 -1</clus>
<clus scale="   85.510">  5  6 -1 -1</clus>
<clus scale="   89.942">  1  5  2 -1</clus>
<clus scale="   90.080">  7  8 -1 -1</clus>
<clus scale="   50.972">  2  5  1 -1</clus>
</clustering>
</event>
<event>
 9    1  0.9171696E-005  0.1743515E+03  0.7546771E-02  0.1174328E+00
         -4   -1    0    0    0  501 -0.00000000000E+00  0.00000000000E+00  0.32190949671E+03  0.32190949671E+03  0.00000000000E+00 0.  1.
         21   -1    0    0  501  502  0.00000000000E+00 -0.00000000000E+00 -0.12395090604E+03  0.12395090604E+03  0.00000000000E+00 0.  1.
         23    2    1    2    0    0  0.10461095385E+03  0.11828244851E+03  0.11019909166E+03  0.21207503757E+03  0.88869524964E+02 0.  0.
        -24    2    1    2    0    0 -0.65636110933E+02 -0.12615648154E+03  0.34700822231E+02  0.16748105192E+03  0.81376893503E+02 0.  0.
         13    1    4    4    0    0 -0.58212179261E+02 -0.28275200597E+02  0.49296473500E+01  0.64903360515E+02  0.00000000000E+00 0. -1.
        -14    1    4    4    0    0 -0.74239316719E+01 -0.97881280942E+02  0.29771174881E+02  0.10257769141E+03  0.00000000000E+00 0.  1.
        -13    1    3    3    0    0 -0.11257946636E+01  0.59904107008E+02  0.44050865638E+02  0.74365638661E+02  0.00000000000E+00 0.  1.
         13    1    3    3    0    0  0.10573674851E+03  0.58378341502E+02  0.66148226026E+02  0.13770939891E+03  0.00000000000E+00 0. -1.
         -3    1    1    2    0  502 -0.38974842912E+02  0.78740330295E+01  0.53058676772E+02  0.66304313261E+02  0.00000000000E+00 0.  1.
<scales pt_clust_5="13000.00000" pt_clust_6="13000.00000" pt_clust_7="13000.00000" pt_clust_8="13000.00000" pt_clust_9="39.76230"></scales>
<clustering>
<clus scale="   39.762">  2  9  1 -1</clus>
<clus scale="   81.377">  5  6 -1 -1</clus>
<clus scale="   88.870">  7  8 -1 -1</clus>
<clus scale="  170.654">  2  5  1 -1</clus>
<clus scale="   39.762">  2  5  1 -1</clus>
</clustering>
</event>
<event>
 9    1  0.9171696E-005  0.1155541E+03  0.7546771E-02  0.1251507E+00
          1   -1    0    0  502    0 -0.00000000000E+00  0.00000000000E+00  0.43550457672E+03  0.43550457672E+03  0.00000000000E+00 0. -1.
         21   -1    0    0  501  502  0.00000000000E+00 -0.00000000000E+00 -0.61015454494E+02  0.61015454494E+02  0.00000000000E+00 0. -1.
        -24    2    1    2    0    0 -0.68406001671E+02  0.18187897969E+02  0.26261581600E+03  0.28499722106E+03  0.85124429517E+02 0.  0.
         23    2    1    2    0    0  0.90983641288E+02 -0.22349858600E+02  0.37631715572E+02  0.13381254372E+03  0.87818629446E+02 0.  0.
         11    1    3    3    0    0 -0.82618916896E+02  0.28803731352E+02  0.24431355994E+03  0.25950848914E+03  0.00000000000E+00 0. -1.
        -12    1    3    3    0    0  0.14212915225E+02 -0.10615833383E+02  0.18302256064E+02  0.25488731915E+02  0.00000000000E+00 0.  1.
        -11    1    4    4    0    0  0.19645974129E+02 -0.48574156312E+02  0.16187314519E+02  0.54840150550E+02  0.00000000000E+00 0.  1.
         11    1    4    4    0    0  0.71337667158E+02  0.26224297712E+02  0.21444401053E+02  0.78972393167E+02  0.00000000000E+00 0. -1.
          2    1    1    2  501    0 -0.22577639617E+02  0.41619606312E+01  0.74241590654E+02  0.77710266437E+02  0.00000000000E+00 0. -1.
<scales pt_clust_5="13000.00000" pt_clust_6="13000.00000" pt_clust_7="13000.00000" pt_clust_8="13000.00000" pt_clust_9="22.95805"></scales>
<clustering>
<clus scale="   22.958">  2  9  1 -1</clus>
<clus scale="   85.124">  5  6 -1 -1</clus>
<clus scale="   87.819">  7  8 -1 -1</clus>
<clus scale="  113.520">  1  5  2 -1</clus>
<clus scale="   22.958">  2  5  1 -1</clus>
</clustering>
</event>
<event>
 9    1  0.9171696E-005  0.9232610E+02  0.7546771E-02  0.1303244E+00
         21   -1    0    0  501  502  0.00000000000E+00  0.00000000000E+00  0.17872105285E+03  0.17872105285E+03  0.00000000000E+00 0.  1.
         -2   -1    0    0    0  501 -0.00000000000E+00 -0.00000000000E+00 -0.33964067220E+03  0.33964067220E+03  0.00000000000E+00 0.  1.
        -24    2    1    2    0    0 -0.11574865731E+02 -0.36731784706E+01 -0.25005466351E+03  0.26313756851E+03  0.81034409118E+02 0.  0.
         23    2    1    2    0    0  0.34464472608E+02  0.17336467624E+02 -0.52064705735E+02  0.11153007544E+03  0.90773736088E+02 0.  0.
         13    1    3    3    0    0 -0.29834100506E+02 -0.34145733902E+02 -0.16087118575E+03  0.16713929251E+03  0.00000000000E+00 0. -1.
        -14    1    3    3    0    0  0.18259234775E+02  0.30472555431E+02 -0.89183477753E+02  0.95998275991E+02  0.00000000000E+00 0.  1.
        -13    1    4    4    0    0  0.45954773312E+02 -0.20650534765E+02 -0.60160777554E+01  0.50739323683E+02  0.00000000000E+00 0. -1.
         13    1    4    4    0    0 -0.11490300705E+02  0.37987002389E+02 -0.46048627980E+02  0.60790751761E+02  0.00000000000E+00 0.  1.
         -1    1    1    2    0  502 -0.22889606877E+02 -0.13663289153E+02  0.14119974989E+03  0.14369408110E+03  0.00000000000E+00 0.  1.
<scales pt_clust_5="13000.00000" pt_clust_6="13000.00000" pt_clust_7="13000.00000" pt_clust_8="13000.00000" pt_clust_9="26.65745"></scales>
<clustering>
<clus scale="   26.657">  1  9  2 -1</clus>
<clus scale="   81.034">  5  6 -1 -1</clus>
<clus scale="   82.770">  2  5  1 -1</clus>
<clus scale="   90.774">  7  8 -1 -1</clus>
<clus scale="   26.657">  1  5  2 -1</clus>
</clustering>
</event>
<event>
 9    1  0.9171696E-005  0.1438282E+03  0.7546771E-02  0.1211594E+00
          1   -1    0    0  502    0 -0.00000000000E+00  0.00000000000E+00  0.51807293074E+03  0.51807293074E+03  0.00000000000E+00 0. -1.
         21   -1    0    0  501  502  0.00000000000E+00 -0.00000000000E+00 -0.75807779926E+02  0.75807779926E+02  0.00000000000E+00 0.  1.
         23    2    1    2    0    0  0.53750290867E+02  0.89160241763E+02  0.23085628157E+03  0.26877024339E+03  0.90023210962E+02 0.  0.
        -24    2    1    2    0    0 -0.10475957586E+03 -0.91405550273E+02  0.65009173026E+02  0.17006254043E+03  0.73249789934E+02 0.  0.
         13    1    4    4    0    0 -0.17701765299E+02 -0.38494156850E+02  0.52435259597E+02  0.67413715632E+02  0.00000000000E+00 0. -1.
        -14    1    4    4    0    0 -0.87057810563E+02 -0.52911393422E+02  0.12573913429E+02  0.10264882480E+03  0.00000000000E+00 0.  1.
        -13    1    3    3    0    0  0.33041270655E+01  0.86502748812E+02  0.13394758217E+03  0.15948541494E+03  0.00000000000E+00 0. -1.
         13    1    3    3    0    0  0.50446163801E+02  0.26574929507E+01  0.96908699401E+02  0.10928482846E+03  0.00000000000E+00 0.  1.
          2    1    1    2  501    0  0.51009284996E+02  0.22453085101E+01  0.14639969622E+03  0.15504792684E+03  0.00000000000E+00 0. -1.
<scales pt_clust_5="13000.00000" pt_clust_6="13000.00000" pt_clust_7="13000.00000" pt_clust_8="13000.00000" pt_clust_9="51.05870"></scales>
<clustering>
<clus scale="   51.059">  2  9  1 -1</clus>
<clus scale="   73.250">  5  6 -1 -1</clus>
<clus scale="   90.023">  7  8 -1 -1</clus>
<clus scale="  133.970">  2  5  1 -1</clus>
<clus scale="   51.059">  2  5  1 -1</clus>
</clustering>
</event>
<event>
 9    1  0.9171696E-005  0.1277761E+03  0.7546771E-02  0.1233927E+00
          3   -1    0    0  502    0 -0.00000000000E+00  0.00000000000E+00  0.10115022177E+03  0.10115022177E+03  0.00000000000E+00 0. -1.
         21   -1    0    0  501  502  0.00000000000E+00 -0.00000000000E+00 -0.39678659734E+03  0.39678659734E+03  0.00000000000E+00 0. -1.
         23    2    1    2    0    0 -0.96882080889E+02  0.42630101718E+02  0.10071814591E+02  0.14051285141E+03  0.91863794781E+02 0.  0.
        -24    2    1    2    0    0  0.45290310262E+02  0.25012121670E+02 -0.20046375886E+03  0.22209632271E+03  0.80400494472E+02 0.  0.
         11    1    4    4    0    0  0.67221636706E+02  0.13265121371E+02 -0.16605180021E+03  0.17963271484E+03  0.00000000000E+00 0. -1.
        -12    1    4    4    0    0 -0.21931326444E+02  0.11747000298E+02 -0.34411958651E+02  0.42463607876E+02  0.00000000000E+00 0.  1.
        -13    1    3    3    0    0 -0.84818861313E+02  0.18881177993E+02 -0.30402257328E+02  0.92059955288E+02  0.00000000000E+00 0. -1.
         13    1    3    3    0    0 -0.12063219576E+02  0.23748923725E+02  0.40474071920E+02  0.48452896120E+02  0.00000000000E+00 0.  1.
          4    1    1    2  501    0  0.51591770627E+02 -0.67642223388E+02 -0.10524443129E+03  0.13532764499E+03  0.00000000000E+00 0. -1.
<scales pt_clust_5="13000.00000" pt_clust_6="13000.00000" pt_clust_7="13000.00000" pt_clust_8="13000.00000" pt_clust_9="85.07162"></scales>
<clustering>
<clus scale="   80.400">  5  6 -1 -1</clus>
<clus scale="   85.072">  2  9  1 -1</clus>
<clus scale="   91.864">  7  8 -1 -1</clus>
<clus scale="  119.800">  2  5  1 -1</clus>
<clus scale="   85.072">  2  5  1 -1</clus>
</clustering>
</event>
<event>
 9    1  0.9171696E-005  0.1020241E+03  0.7546771E-02  0.1281802E+00
          3   -1    0    0  502    0 -0.00000000000E+00  0.00000000000E+00  0.99834134545E+02  0.99834134545E+02  0.00000000000E+00 0. -1.
         21   -1    0    0  501  502  0.00000000000E+00 -0.00000000000E+00 -0.24932288069E+03  0.24932288069E+03  0.00000000000E+00 0. -1.
         23    2    1    2    0    0 -0.42669599198E+02 -0.17646017895E+02  0.39190415503E+02  0.10999030536E+03  0.91814497566E+02 0.  0.
        -24    2    1    2    0    0  0.46275788939E+02 -0.15846594499E+02 -0.73379635481E+02  0.11904701780E+03  0.79969108690E+02 0.  0.
         11    1    4    4    0    0  0.30340591868E+02 -0.47403811350E+02 -0.56932206563E+02  0.80055911646E+02  0.00000000000E+00 0. -1.
        -12    1    4    4    0    0  0.15935197071E+02  0.31557216851E+02 -0.16447428918E+02  0.38991106154E+02  0.00000000000E+00 0.  1.
        -11    1    3    3    0    0  0.15894204831E+02 -0.23090612533E+02 -0.13418788867E+02  0.31078385239E+02  0.00000000000E+00 0.  1.
         11    1    3    3    0    0 -0.58563804030E+02  0.54445946382E+01  0.52609204370E+02  0.78911920124E+02  0.00000000000E+00 0. -1.
          4    1    1    2  501    0 -0.36061897408E+01  0.33492612394E+02 -0.11529952617E+03  0.12011969207E+03  0.00000000000E+00 0. -1.
<scales pt_clust_5="13000.00000" pt_clust_6="13000.00000" pt_clust_7="13000.00000" pt_clust_8="13000.00000" pt_clust_9="33.68619"></scales>
<clustering>
<clus scale="   33.686">  2  9  1 -1</clus>
<clus scale="   79.969">  5  6 -1 -1</clus>
<clus scale="   91.510">  2  5  1 -1</clus>
<clus scale="   91.814">  7  8 -1 -1</clus>
<clus scale="   33.686">  2  5  1 -1</clus>
</clustering>
</event>
<event>
 9    1  0.9171696E-005  0.1459421E+03  0.7546771E-02  0.1207899E+00
          1   -1    0    0  502    0 -0.00000000000E+00  0.00000000000E+00  0.96223200099E+03  0.96223200099E+03  0.00000000000E+00 0. -1.
         21   -1    0    0  501  502  0.00000000000E+00 -0.00000000000E+00 -0.28048353842E+02  0.28048353842E+02  0.00000000000E+00 0. -1.
         23    2    1    2    0    0 -0.11831734780E+03  0.71502001269E+01  0.57816005902E+03  0.59721449250E+03  0.91356313689E+02 0.  0.
        -24    2    1    2    0    0  0.10547615240E+03  0.10157372908E+02  0.23148195105E+03  0.26667334773E+03  0.79387592070E+02 0.  0.
         13    1    4    4    0    0  0.10558805779E+03  0.31550900340E+02  0.18198291975E+03  0.21274886684E+03  0.00000000000E+00 0. -1.
        -14    1    4    4    0    0 -0.11190539621E+00 -0.21393527433E+02  0.49499031306E+02  0.53924480888E+02  0.00000000000E+00 0.  1.
        -11    1    3    3    0    0 -0.11192552200E+03  0.27954006838E+02  0.54806310651E+03  0.56007313601E+03  0.00000000000E+00 0. -1.
         11    1    3    3    0    0 -0.63918258048E+01 -0.20803806711E+02  0.30096952516E+02  0.37141356485E+02  0.00000000000E+00 0.  1.
          2    1    1    2  501    0  0.12841195407E+02 -0.17307573035E+02  0.12454163707E+03  0.12639251460E+03  0.00000000000E+00 0. -1.
<scales pt_clust_5="13000.00000" pt_clust_6="13000.00000" pt_clust_7="13000.00000" pt_clust_8="13000.00000" pt_clust_9="21.55108"></scales>
<clustering>
<clus scale="   21.551">  2  9  1 -1</clus>
<clus scale="   79.388">  5  6 -1 -1</clus>
<clus scale="   91.356">  7  8 -1 -1</clus>
<clus scale="  138.764">  2  5  1 -1</clus>
<clus scale="   21.551">  2  5  1 -1</clus>
</clustering>
</event>
<event>
 9    1  0.9171696E-005  0.9305321E+02  0.7546771E-02  0.1304548E+00
         21   -1    0    0  501  502  0.00000000000E+00  0.00000000000E+00  0.29314802069E+03  0.29314802069E+03  0.00000000000E+00 0.  1.
          1   -1    0    0  502    0 -0.00000000000E+00 -0.00000000000E+00 -0.76028572879E+02  0.76028572879E+02  0.00000000000E+00 0. -1.
         23    2    1    2    0    0  0.83093382297E+01 -0.97560482435E+01 -0.30232410626E+02  0.97481388252E+02  0.91784512986E+02 0.  0.
        -24    2    1    2    0    0 -0.51107320443E+01  0.34960391735E+02  0.20925786636E+03  0.22590609914E+03  0.77436182899E+02 0.  0.
         13    1    4    4    0    0  0.15129214764E+02 -0.15784194982E+02  0.22715052204E+02  0.31527885232E+02  0.00000000000E+00 0. -1.
        -14    1    4    4    0    0 -0.20239946808E+02  0.50744586717E+02  0.18654281416E+03  0.19437821391E+03  0.00000000000E+00 0.  1.
        -13    1    3    3    0    0 -0.12626306633E+02  0.37503368200E+02 -0.21578973872E+02  0.45073033611E+02  0.00000000000E+00 0.  1.
         13    1    3    3    0    0  0.20935644863E+02 -0.47259416444E+02 -0.86534367541E+01  0.52408354640E+02  0.00000000000E+00 0. -1.
          2    1    1    2  501    0 -0.31986061854E+01 -0.25204343491E+02  0.38093992077E+02  0.45789106180E+02  0.00000000000E+00 0. -1.
<scales pt_clust_5="13000.00000" pt_clust_6="13000.00000" pt_clust_7="13000.00000" pt_clust_8="13000.00000" pt_clust_9="25.40650"></scales>
<clustering>
<clus scale="   25.406">  1  9  2 -1</clus>
<clus scale="   77.436">  5  6 -1 -1</clus>
<clus scale="   78.936">  1  5  2 -1</clus>
<clus scale="   91.785">  7  8 -1 -1</clus>
<clus scale="   25.406">  1  5  2 -1</clus>
</clustering>
</event>
<event>
 9    1  0.9171696E-005  0.1043216E+03  0.7546771E-02  0.1277026E+00
          3   -1    0    0  502    0 -0.00000000000E+00  0.00000000000E+00  0.24720346793E+03  0.24720346793E+03  0.00000000000E+00 0. -1.
         21   -1    0    0  501  502  0.00000000000E+00 -0.00000000000E+00 -0.96950355469E+02  0.96950355469E+02  0.00000000000E+00 0. -1.
         23    2    1    2    0    0  0.49272851717E+02 -0.14090638158E+02  0.11548739984E+03  0.15641069148E+03  0.92198724977E+02 0.  0.
        -24    2    1    2    0    0 -0.42671598392E+02 -0.69172353189E+01 -0.47471494738E+02  0.10260873483E+03  0.80039341556E+02 0.  0.
         13    1    4    4    0    0 -0.24682376925E+02  0.35180809054E+02 -0.11784764966E+02  0.44562200817E+02  0.00000000000E+00 0. -1.
        -14    1    4    4    0    0 -0.17989221468E+02 -0.42098044373E+02 -0.35686729772E+02  0.58046534012E+02  0.00000000000E+00 0.  1.
        -11    1    3    3    0    0  0.61638530580E+01  0.33494255136E+02  0.15119645933E+02  0.37262070592E+02  0.00000000000E+00 0.  1.
         11    1    3    3    0    0  0.43108998659E+02 -0.47584893295E+02  0.10036775390E+03  0.11914862089E+03  0.00000000000E+00 0. -1.
          4    1    1    2  501    0 -0.66012533252E+01  0.21007873477E+02  0.82237207363E+02  0.85134397093E+02  0.00000000000E+00 0. -1.
<scales pt_clust_5="13000.00000" pt_clust_6="13000.00000" pt_clust_7="13000.00000" pt_clust_8="13000.00000" pt_clust_9="22.02062"></scales>
<clustering>
<clus scale="   22.021">  2  9  1 -1</clus>
<clus scale="   80.039">  5  6 -1 -1</clus>
<clus scale="   92.199">  7  8 -1 -1</clus>
<clus scale="   93.748">  2  5  1 -1</clus>
<clus scale="   22.021">  2  5  1 -1</clus>
</clustering>
</event>
<event>
 9    1  0.9171696E-005  0.2720023E+03  0.7546771E-02  0.1132167E+00
         21   -1    0    0  501  502  0.00000000000E+00  0.00000000000E+00  0.21861717286E+04  0.21861717286E+04  0.00000000000E+00 0.  1.
         -2   -1    0    0    0  501 -0.00000000000E+00 -0.00000000000E+00 -0.60322317453E+02  0.60322317453E+02  0.00000000000E+00 0.  1.
         23    2    1    2    0    0 -0.61332243933E+02 -0.52559117272E+02  0.12567759802E+03  0.17472850470E+03  0.90615047076E+02 0.  0.
        -24    2    1    2    0    0 -0.41069803781E+02  0.27580967531E+03  0.12164926650E+04  0.12504982291E+04  0.78318012564E+02 0.  0.
         11    1    4    4    0    0  0.12136815534E+02  0.10937571344E+03  0.36349528194E+03  0.37978832127E+03  0.00000000000E+00 0. -1.
        -12    1    4    4    0    0 -0.53206619315E+02  0.16643396187E+03  0.85299738310E+03  0.87070990782E+03  0.00000000000E+00 0.  1.
        -13    1    3    3    0    0 -0.13496421732E+02 -0.28996562930E+02  0.11625996504E+03  0.12057915878E+03  0.00000000000E+00 0.  1.
         13    1    3    3    0    0 -0.47835822201E+02 -0.23562554342E+02  0.94176329823E+01  0.54149345922E+02  0.00000000000E+00 0. -1.
         -1    1    1    2    0  502  0.10240204771E+03 -0.22325055804E+03  0.78367914810E+03  0.82126731227E+03  0.00000000000E+00 0.  1.
<scales pt_clust_5="13000.00000" pt_clust_6="13000.00000" pt_clust_7="13000.00000" pt_clust_8="13000.00000" pt_clust_9="260.48339"></scales>
<clustering>
<clus scale="   78.318">  5  6 -1 -1</clus>
<clus scale="   90.615">  7  8 -1 -1</clus>
<clus scale="  121.389">  2  7  1 -1</clus>
<clus scale="  260.483">  1  9  2 -1</clus>
<clus scale="  260.483">  1  5  2 -1</clus>
</clustering>
</event>
<event>
 9    1  0.9171696E-005  0.1297395E+03  0.7546771E-02  0.1249243E+00
         -2   -1    0    0    0  501 -0.00000000000E+00  0.00000000000E+00  0.15290900891E+03  0.15290900891E+03  0.00000000000E+00 0.  1.
         21   -1    0    0  501  502  0.00000000000E+00 -0.00000000000E+00 -0.56186327274E+03  0.56186327274E+03  0.00000000000E+00 0.  1.
        -24    2    1    2    0    0 -0.12725997614E+02  0.21997210954E+02 -0.53698616206E+02  0.99627034801E+02  0.79976098779E+02 0.  0.
         23    2    1    2    0    0 -0.31942771766E+02 -0.10073057910E+03  0.86016443662E+02  0.16468403790E+03  0.92493316116E+02 0.  0.
         11    1    3    3    0    0 -0.70688765845E+00  0.46802797572E+02 -0.98482782386E+01  0.47832939854E+02  0.00000000000E+00 0. -1.
        -12    1    3    3    0    0 -0.12019109955E+02 -0.24805586619E+02 -0.43850337968E+02  0.51794094948E+02  0.00000000000E+00 0.  1.
        -13    1    4    4    0    0 -0.51451175708E+02 -0.18259486640E+02  0.23832585066E+02  0.59570331920E+02  0.00000000000E+00 0. -1.
         13    1    4    4    0    0  0.19508403942E+02 -0.82471092456E+02  0.62183858596E+02  0.10511370598E+03  0.00000000000E+00 0.  1.
         -1    1    1    2    0  502  0.44668769380E+02  0.78733368143E+02 -0.44127209128E+03  0.45046120894E+03  0.00000000000E+00 0.  1.
<scales pt_clust_5="13000.00000" pt_clust_6="13000.00000" pt_clust_7="13000.00000" pt_clust_8="13000.00000" pt_clust_9="90.97980"></scales>
<clustering>
<clus scale="   79.976">  5  6 -1 -1</clus>
<clus scale="   83.917">  1  5  2 -1</clus>
<clus scale="   90.980">  2  9  1 -1</clus>
<clus scale="   92.493">  7  8 -1 -1</clus>
<clus scale="   90.980">  2  5  1 -1</clus>
</clustering>
</event>
<event>
 9    1  0.9171696E-005  0.1286728E+03  0.7546771E-02  0.1231936E+00
         21   -1    0    0  501  502  0.00000000000E+00  0.00000000000E+00  0.34400068261E+03  0.34400068261E+03  0.00000000000E+00 0. -1.
          1   -1    0    0  502    0 -0.00000000000E+00 -0.00000000000E+00 -0.44080909668E+03  0.44080909668E+03  0.00000000000E+00 0. -1.
        -24    2    1    2    0    0  0.33049016199E+02 -0.97057854814E+02 -0.35424491254E+03  0.37739511889E+03  0.80157052396E+02 0.  0.
         23    2    1    2    0    0 -0.23843555951E+02  0.52795972927E+02 -0.34332784621E+02  0.11216363291E+03  0.89699557020E+02 0.  0.
         13    1    3    3    0    0  0.14348133849E+02 -0.97296259879E+02 -0.33985013158E+03  0.35379449270E+03  0.00000000000E+00 0. -1.
        -14    1    3    3    0    0  0.18700882350E+02  0.23840506463E+00 -0.14394780963E+02  0.23600626191E+02  0.00000000000E+00 0.  1.
        -13    1    4    4    0    0  0.23871708301E+02  0.53898585159E+02 -0.21422856090E+02  0.62720448837E+02  0.00000000000E+00 0.  1.
         13    1    4    4    0    0 -0.47715264252E+02 -0.11026122320E+01 -0.12909928532E+02  0.49443184070E+02  0.00000000000E+00 0. -1.
          2    1    1    2  501    0 -0.92054602480E+01  0.44261881888E+02  0.29176928308E+03  0.29525102749E+03  0.00000000000E+00 0. -1.
<scales pt_clust_5="13000.00000" pt_clust_6="13000.00000" pt_clust_7="13000.00000" pt_clust_8="13000.00000" pt_clust_9="45.20901"></scales>
<clustering>
<clus scale="   45.209">  1  9  2 -1</clus>
<clus scale="   80.157">  5  6 -1 -1</clus>
<clus scale="   89.700">  7  8 -1 -1</clus>
<clus scale="  122.212">  2  5  1 -1</clus>
<clus scale="   45.209">  1  5  2 -1</clus>
</clustering>
</event>
<event>
 9    1  0.1262228E-004  0.1694663E+03  0.7546771E-02  0.1211425E+00
         21   -1    0    0  501  502  0.00000000000E+00  0.00000000000E+00  0.84846402378E+02  0.84846402378E+02  0.00000000000E+00 0.  1.
         -4   -1    0    0    0  501 -0.00000000000E+00 -0.00000000000E+00 -0.69628573580E+03  0.69628573580E+03  0.00000000000E+00 0.  1.
        -24    2    1    2    0    0  0.96198179848E+01  0.69145098214E+01 -0.19038816203E+03  0.20737315251E+03  0.81336466584E+02 0.  0.
         23    2    1    2    0    0  0.10998449620E+03 -0.88718479285E+02 -0.51045708034E+02  0.17639124125E+03  0.92415624805E+02 0.  0.
         13    1    3    3    0    0  0.17049438571E+02  0.35279722543E+02 -0.47830757245E+02  0.61831412057E+02  0.00000000000E+00 0. -1.
        -14    1    3    3    0    0 -0.74296205867E+01 -0.28365212722E+02 -0.14255740478E+03  0.14554174045E+03  0.00000000000E+00 0.  1.
        -13    1    4    4    0    0  0.54511764412E+02 -0.14385566931E+02 -0.61053808399E+02  0.83102614371E+02  0.00000000000E+00 0. -1.
         13    1    4    4    0    0  0.55472731792E+02 -0.74332912354E+02  0.10008100365E+02  0.93288626876E+02  0.00000000000E+00 0.  1.
         -3    1    1    2    0  502 -0.11960431419E+03  0.81803969464E+02 -0.37000546336E+03  0.39736774443E+03  0.00000000000E+00 0.  1.
<scales pt_clust_5="13000.00000" pt_clust_6="13000.00000" pt_clust_7="13000.00000" pt_clust_8="13000.00000" pt_clust_9="142.04999"></scales>
<clustering>
<clus scale="   81.336">  5  6 -1 -1</clus>
<clus scale="   82.195">  2  5  1 -1</clus>
<clus scale="   92.416">  7  8 -1 -1</clus>
<clus scale="  142.050">  1  9  2 -1</clus>
<clus scale="  142.050">  1  5  2 -1</clus>
</clustering>
</event>
<event>
 9    1  0.9171696E-005  0.1013006E+03  0.7546771E-02  0.1283472E+00
          3   -1    0    0  502    0 -0.00000000000E+00  0.00000000000E+00  0.93071722870E+02  0.93071722870E+02  0.00000000000E+00 0. -1.
         21   -1    0    0  501  502  0.00000000000E+00 -0.00000000000E+00 -0.23235228312E+03  0.23235228312E+03  0.00000000000E+00 0. -1.
        -24    2    1    2    0    0 -0.22809296198E+02  0.43257097405E+02  0.32230357700E+02  0.99432325423E+02  0.80352665872E+02 0.  0.
         23    2    1    2    0    0  0.25426905479E+02 -0.10211023773E+02 -0.69492832677E+02  0.11872293123E+03  0.92277234887E+02 0.  0.
         11    1    3    3    0    0 -0.50843018386E+02  0.28863300269E+02  0.34418421791E+02  0.67843425471E+02  0.00000000000E+00 0. -1.
        -12    1    3    3    0    0  0.28033722189E+02  0.14393797137E+02 -0.21880640910E+01  0.31588899953E+02  0.00000000000E+00 0.  1.
        -13    1    4    4    0    0 -0.32595024590E+02 -0.13737536350E+02 -0.40477043421E+02  0.53754502854E+02  0.00000000000E+00 0.  1.
         13    1    4    4    0    0  0.58021930069E+02  0.35265125775E+01 -0.29015789256E+02  0.64968428379E+02  0.00000000000E+00 0. -1.
          4    1    1    2  501    0 -0.26176092815E+01 -0.33046073633E+02 -0.10201808527E+03  0.10726874933E+03  0.00000000000E+00 0. -1.
<scales pt_clust_5="13000.00000" pt_clust_6="13000.00000" pt_clust_7="13000.00000" pt_clust_8="13000.00000" pt_clust_9="33.14958"></scales>
<clustering>
<clus scale="   33.150">  2  9  1 -1</clus>
<clus scale="   80.353">  5  6 -1 -1</clus>
<clus scale="   90.572">  1  5  2 -1</clus>
<clus scale="   92.277">  7  8 -1 -1</clus>
<clus scale="   33.150">  2  5  1 -1</clus>
</clustering>
</event>
<event>
 9    1  0.9171696E-005  0.1201038E+03  0.7546771E-02  0.1245982E+00
         -4   -1    0    0    0  501 -0.00000000000E+00  0.00000000000E+00  0.21132863088E+03  0.21132863088E+03  0.00000000000E+00 0.  1.
         21   -1    0    0  501  502  0.00000000000E+00 -0.00000000000E+00 -0.14071795861E+03  0.14071795861E+03  0.00000000000E+00 0. -1.
        -24    2    1    2    0    0 -0.49886529850E+02  0.60110540418E+02  0.12761014306E+03  0.17040747454E+03  0.81562343270E+02 0.  0.
         23    2    1    2    0    0  0.28195853119E+02 -0.76496961741E+02 -0.44093002251E+01  0.12243838606E+03  0.91241027852E+02 0.  0.
         13    1    3    3    0    0 -0.58141107191E+02  0.29323598311E+02  0.38221492722E+02  0.75505922081E+02  0.00000000000E+00 0. -1.
        -14    1    3    3    0    0  0.82545773408E+01  0.30786942106E+02  0.89388650335E+02  0.94901552464E+02  0.00000000000E+00 0.  1.
        -13    1    4    4    0    0  0.27387377137E+02  0.11200975616E+02  0.14143439072E+02  0.32795840437E+02  0.00000000000E+00 0.  1.
         13    1    4    4    0    0  0.80847598174E+00 -0.87697937357E+02 -0.18552739297E+02  0.89642545622E+02  0.00000000000E+00 0. -1.
         -3    1    1    2    0  502  0.21690676732E+02  0.16386421324E+02 -0.52590170562E+02  0.59200728886E+02  0.00000000000E+00 0.  1.
<scales pt_clust_5="13000.00000" pt_clust_6="13000.00000" pt_clust_7="13000.00000" pt_clust_8="13000.00000" pt_clust_9="27.18456"></scales>
<clustering>
<clus scale="   27.185">  2  9  1 -1</clus>
<clus scale="   81.562">  5  6 -1 -1</clus>
<clus scale="   91.241">  7  8 -1 -1</clus>
<clus scale="  112.927">  1  5  2 -1</clus>
<clus scale="   27.185">  2  5  1 -1</clus>
</clustering>
</event>
<event>
 9    1  0.9171696E-005  0.1139723E+03  0.7546771E-02  0.1257700E+00
         -4   -1    0    0    0  501 -0.00000000000E+00  0.00000000000E+00  0.86136425070E+02  0.86136425070E+02  0.00000000000E+00 0.  1.
         21   -1    0    0  501  502  0.00000000000E+00 -0.00000000000E+00 -0.36326712641E+03  0.36326712641E+03  0.00000000000E+00 0. -1.
        -24    2    1    2    0    0  0.40547847416E+02 -0.20893706388E+02 -0.52326747701E+02  0.10729247543E+03  0.81810218567E+02 0.  0.
         23    2    1    2    0    0 -0.60002397786E+02  0.11225300869E+03 -0.17694529676E+03  0.23715654930E+03  0.93448194912E+02 0.  0.
         13    1    3    3    0    0  0.34128491125E+02 -0.50004665724E+02 -0.47808019206E+02  0.77141604864E+02  0.00000000000E+00 0. -1.
        -14    1    3    3    0    0  0.64193562916E+01  0.29110959336E+02 -0.45187284955E+01  0.30150870566E+02  0.00000000000E+00 0.  1.
        -13    1    4    4    0    0 -0.20708205958E+02 -0.11466066161E+02 -0.10033975762E+02  0.25709553415E+02  0.00000000000E+00 0.  1.
         13    1    4    4    0    0 -0.39294191828E+02  0.12371907485E+03 -0.16691132100E+03  0.21144699589E+03  0.00000000000E+00 0. -1.
         -3    1    1    2    0  502  0.19454550370E+02 -0.91359302297E+02 -0.47858656875E+02  0.10495452674E+03  0.00000000000E+00 0.  1.
<scales pt_clust_5="13000.00000" pt_clust_6="13000.00000" pt_clust_7="13000.00000" pt_clust_8="13000.00000" pt_clust_9="93.40776"></scales>
<clustering>
<clus scale="   81.810">  5  6 -1 -1</clus>
<clus scale="   93.408">  2  9  1 -1</clus>
<clus scale="   93.448">  7  8 -1 -1</clus>
<clus scale="  104.642">  1  5  2 -1</clus>
<clus scale="   93.408">  2  5  1 -1</clus>
</clustering>
</event>
<event>
 9    1  0.9171696E-005  0.1455122E+03  0.7546771E-02  0.1208341E+00
         21   -1    0    0  501  502  0.00000000000E+00  0.00000000000E+00  0.56758497618E+03  0.56758497618E+03  0.00000000000E+00 0. -1.
          1   -1    0    0  502    0 -0.00000000000E+00 -0.00000000000E+00 -0.24921368041E+03  0.24921368041E+03  0.00000000000E+00 0. -1.
        -24    2    1    2    0    0  0.60999232430E+02  0.94145139527E+02 -0.17546240415E+03  0.22364198189E+03  0.81513600966E+02 0.  0.
         23    2    1    2    0    0 -0.17033543939E+03 -0.16817307103E+02  0.28919244913E+03  0.34859167037E+03  0.92665507557E+02 0.  0.
         13    1    3    3    0    0  0.31293149852E+02  0.77052622917E+02 -0.16957089696E+03  0.18886677056E+03  0.00000000000E+00 0. -1.
        -14    1    3    3    0    0  0.29706082577E+02  0.17092516610E+02 -0.58915071843E+01  0.34775211330E+02  0.00000000000E+00 0.  1.
        -13    1    4    4    0    0 -0.82991543106E+02  0.10579444999E+02  0.63470833402E+02  0.10501460649E+03  0.00000000000E+00 0. -1.
         13    1    4    4    0    0 -0.87343896281E+02 -0.27396752102E+02  0.22572161573E+03  0.24357706388E+03  0.00000000000E+00 0.  1.
          2    1    1    2  501    0  0.10933620696E+03 -0.77327832424E+02  0.20464125078E+03  0.24456500433E+03  0.00000000000E+00 0. -1.
<scales pt_clust_5="13000.00000" pt_clust_6="13000.00000" pt_clust_7="13000.00000" pt_clust_8="13000.00000" pt_clust_9="133.91788"></scales>
<clustering>
<clus scale="   81.514">  5  6 -1 -1</clus>
<clus scale="   92.666">  7  8 -1 -1</clus>
<clus scale="  133.918">  1  9  2 -1</clus>
<clus scale="  138.677">  2  5  1 -1</clus>
<clus scale="  133.918">  1  5  2 -1</clus>
</clustering>
</event>
<event>
 9    1  0.9171696E-005  0.2105139E+03  0.7546771E-02  0.1170393E+00
         21   -1    0    0  501  502  0.00000000000E+00  0.00000000000E+00  0.82697485973E+02  0.82697485973E+02  0.00000000000E+00 0. -1.
          1   -1    0    0  502    0 -0.00000000000E+00 -0.00000000000E+00 -0.13701287801E+04  0.13701287801E+04  0.00000000000E+00 0. -1.
        -24    2    1    2    0    0 -0.66465061082E+02 -0.21003913722E+02 -0.33460869469E+02  0.11119532193E+03  0.79912458963E+02 0.  0.
         23    2    1    2    0    0 -0.16758164240E+03 -0.38146035512E+02 -0.30073973075E+03  0.35830732919E+03  0.91657130692E+02 0.  0.
         13    1    3    3    0    0 -0.74613972682E+02  0.14639983238E+01 -0.61169036178E+01  0.74878599882E+02  0.00000000000E+00 0. -1.
        -14    1    3    3    0    0  0.81489115995E+01 -0.22467912046E+02 -0.27343965851E+02  0.36316722050E+02  0.00000000000E+00 0.  1.
        -13    1    4    4    0    0 -0.76605263194E+02  0.27191855758E+02 -0.10502883590E+03  0.13281121842E+03  0.00000000000E+00 0. -1.
         13    1    4    4    0    0 -0.90976379207E+02 -0.65337891270E+02 -0.19571089485E+03  0.22549611077E+03  0.00000000000E+00 0.  1.
          2    1    1    2  501    0  0.23404670348E+03  0.59149949235E+02 -0.95323069392E+03  0.98332361496E+03  0.00000000000E+00 0. -1.
<scales pt_clust_5="13000.00000" pt_clust_6="13000.00000" pt_clust_7="13000.00000" pt_clust_8="13000.00000" pt_clust_9="189.51286"></scales>
<clustering>
<clus scale="   79.912">  5  6 -1 -1</clus>
<clus scale="   91.657">  7  8 -1 -1</clus>
<clus scale="  106.041">  2  5  1 -1</clus>
<clus scale="  189.513">  1  9  2 -1</clus>
<clus scale="  189.513">  1  5  2 -1</clus>
</clustering>
</event>
<event>
 9    1  0.9171696E-005  0.1063418E+03  0.7546771E-02  0.1271886E+00
         21   -1    0    0  501  502  0.00000000000E+00  0.00000000000E+00  0.21723209722E+03  0.21723209722E+03  0.00000000000E+00 0.  1.
         -2   -1    0    0    0  501 -0.00000000000E+00 -0.00000000000E+00 -0.82382778261E+02  0.82382778261E+02  0.00000000000E+00 0.  1.
         23    2    1    2    0    0 -0.41349555875E+02 -0.79411448342E+01  0.13178533022E+02  0.10199270895E+03  0.91956464662E+02 0.  0.
        -24    2    1    2    0    0  0.73674191153E+02  0.30352698334E+02  0.10418949738E+03  0.15457852326E+03  0.81791782917E+02 0.  0.
         13    1    4    4    0    0  0.16654116678E+02  0.20414049849E+02 -0.86759092173E+01  0.27737419388E+02  0.00000000000E+00 0. -1.
        -14    1    4    4    0    0  0.57020074475E+02  0.99386484850E+01  0.11286540659E+03  0.12684110388E+03  0.00000000000E+00 0.  1.
        -11    1    3    3    0    0  0.21541699746E+02  0.20626151188E+02  0.13921502679E+02  0.32913389033E+02  0.00000000000E+00 0.  1.
         11    1    3    3    0    0 -0.62891255621E+02 -0.28567296022E+02 -0.74296965720E+00  0.69079319912E+02  0.00000000000E+00 0. -1.
         -1    1    1    2    0  502 -0.32324635278E+02 -0.22411553500E+02  0.17481288554E+02  0.43043643267E+02  0.00000000000E+00 0.  1.
<scales pt_clust_5="13000.00000" pt_clust_6="13000.00000" pt_clust_7="13000.00000" pt_clust_8="13000.00000" pt_clust_9="39.33397"></scales>
<clustering>
<clus scale="   39.334">  1  9  2 -1</clus>
<clus scale="   81.792">  5  6 -1 -1</clus>
<clus scale="   91.956">  7  8 -1 -1</clus>
<clus scale="   97.686">  1  5  2 -1</clus>
<clus scale="   39.334">  1  5  2 -1</clus>
</clustering>
</event>
<event>
 9    1  0.9171696E-005  0.9014028E+02  0.7546771E-02  0.1322623E+00
         21   -1    0    0  501  502  0.00000000000E+00  0.00000000000E+00  0.18992573489E+03  0.18992573489E+03  0.00000000000E+00 0. -1.
          1   -1    0    0  502    0 -0.00000000000E+00 -0.00000000000E+00 -0.17969510988E+03  0.17969510988E+03  0.00000000000E+00 0. -1.
        -24    2    1    2    0    0  0.67612588325E+01 -0.14349578498E+02 -0.13712297625E+03  0.15077296072E+03  0.60647753846E+02 0.  0.
         23    2    1    2    0    0  0.39928369244E+02  0.29011748355E+02  0.57934473279E+02  0.11691319395E+03  0.88748721189E+02 0.  0.
         13    1    3    3    0    0  0.75487682486E+01 -0.37708784216E+02 -0.72765152031E+02  0.82302513080E+02  0.00000000000E+00 0. -1.
        -14    1    3    3    0    0 -0.78750941610E+00  0.23359205717E+02 -0.64357824216E+02  0.68470447645E+02  0.00000000000E+00 0.  1.
        -13    1    4    4    0    0 -0.27030456347E+02  0.20112326557E+02  0.23640969800E+02  0.41158798609E+02  0.00000000000E+00 0.  1.
         13    1    4    4    0    0  0.66958825591E+02  0.88994217982E+01  0.34293503479E+02  0.75754395342E+02  0.00000000000E+00 0. -1.
          2    1    1    2  501    0 -0.46689628077E+02 -0.14662169856E+02  0.89419127985E+02  0.10193469009E+03  0.00000000000E+00 0. -1.
<scales pt_clust_5="13000.00000" pt_clust_6="13000.00000" pt_clust_7="13000.00000" pt_clust_8="13000.00000" pt_clust_9="48.93772"></scales>
<clustering>
<clus scale="   48.938">  1  9  2 -1</clus>
<clus scale="   60.648">  5  6 -1 -1</clus>
<clus scale="   62.666">  2  5  1 -1</clus>
<clus scale="   88.749">  7  8 -1 -1</clus>
<clus scale="   48.938">  1  5  2 -1</clus>
</clustering>
</event>
<event>
 9    1  0.9171696E-005  0.9818914E+02  0.7546771E-02  0.1288195E+00
          1   -1    0    0  502    0 -0.00000000000E+00  0.00000000000E+00  0.18395927335E+03  0.18395927335E+03  0.00000000000E+00 0. -1.
         21   -1    0    0  501  502  0.00000000000E+00 -0.00000000000E+00 -0.27796423757E+03  0.27796423757E+03  0.00000000000E+00 0. -1.
        -24    2    1    2    0    0 -0.40200392547E+02 -0.16764893102E+01  0.12497589389E+03  0.15369136115E+03  0.79894794951E+02 0.  0.
         23    2    1    2    0    0  0.56206776071E+02  0.39399857737E+02 -0.31003353295E+02  0.11583984444E+03  0.88011994508E+02 0.  0.
         11    1    3    3    0    0 -0.41528653276E+02  0.13194417476E+02  0.13064579029E+03  0.13772089245E+03  0.00000000000E+00 0. -1.
        -12    1    3    3    0    0  0.13282607285E+01 -0.14870906786E+02 -0.56698964042E+01  0.15970468698E+02  0.00000000000E+00 0.  1.
        -13    1    4    4    0    0 -0.49248762081E+01 -0.20617374781E+02 -0.20571181776E+02  0.29538179839E+02  0.00000000000E+00 0.  1.
         13    1    4    4    0    0  0.61131652279E+02  0.60017232519E+02 -0.10432171519E+02  0.86301664596E+02  0.00000000000E+00 0. -1.
          2    1    1    2  501    0 -0.16006383523E+02 -0.37723368427E+02 -0.18797750481E+03  0.19239230534E+03  0.00000000000E+00 0. -1.
<scales pt_clust_5="13000.00000" pt_clust_6="13000.00000" pt_clust_7="13000.00000" pt_clust_8="13000.00000" pt_clust_9="40.97874"></scales>
<clustering>
<clus scale="   40.979">  2  9  1 -1</clus>
<clus scale="   79.895">  5  6 -1 -1</clus>
<clus scale="   88.012">  7  8 -1 -1</clus>
<clus scale="   90.984">  1  5  2 -1</clus>
<clus scale="   40.979">  2  5  1 -1</clus>
</clustering>
</event>
<event>
 9    1  0.9171696E-005  0.1154962E+03  0.7546771E-02  0.1252642E+00
          1   -1    0    0  502    0 -0.00000000000E+00  0.00000000000E+00  0.53661141228E+03  0.53661141228E+03  0.00000000000E+00 0. -1.
         21   -1    0    0  501  502  0.00000000000E+00 -0.00000000000E+00 -0.12852334447E+03  0.12852334447E+03  0.00000000000E+00 0. -1.
         23    2    1    2    0    0  0.72698555385E+02 -0.61775541563E+02  0.43725131888E+03  0.45553350160E+03  0.84975041793E+02 0.  0.
        -24    2    1    2    0    0 -0.39626689166E+02 -0.17419643090E+01  0.51063667917E+02  0.10206251600E+03  0.78968031867E+02 0.  0.
         13    1    4    4    0    0 -0.37302415833E+02 -0.37234264169E+02  0.28141463284E+02  0.59747825156E+02  0.00000000000E+00 0. -1.
        -14    1    4    4    0    0 -0.23242733332E+01  0.35492299860E+02  0.22922204633E+02  0.42314690843E+02  0.00000000000E+00 0.  1.
        -11    1    3    3    0    0  0.58819705314E+02 -0.76637588031E+02  0.41167493231E+03  0.42285851951E+03  0.00000000000E+00 0. -1.
         11    1    3    3    0    0  0.13878850070E+02  0.14862046468E+02  0.25576386575E+02  0.32674982092E+02  0.00000000000E+00 0.  1.
          2    1    1    2  501    0 -0.33071866219E+02  0.63517505872E+02 -0.80226918993E+02  0.10753873915E+03  0.00000000000E+00 0. -1.
<scales pt_clust_5="13000.00000" pt_clust_6="13000.00000" pt_clust_7="13000.00000" pt_clust_8="13000.00000" pt_clust_9="71.61160"></scales>
<clustering>
<clus scale="   71.612">  2  9  1 -1</clus>
<clus scale="   78.968">  5  6 -1 -1</clus>
<clus scale="   84.975">  7  8 -1 -1</clus>
<clus scale="  111.151">  2  5  1 -1</clus>
<clus scale="   71.612">  2  5  1 -1</clus>
</clustering>
</event>
<event>
 9    1  0.9171696E-005  0.9615095E+02  0.7546771E-02  0.1295193E+00
         -4   -1    0    0    0  501 -0.00000000000E+00  0.00000000000E+00  0.33050517477E+03  0.33050517477E+03  0.00000000000E+00 0.  1.
         21   -1    0    0  501  502  0.00000000000E+00 -0.00000000000E+00 -0.43839033336E+02  0.43839033336E+02  0.00000000000E+00 0. -1.
         23    2    1    2    0    0 -0.41653186133E+02 -0.15450341388E+02  0.94789381615E+02  0.13903716695E+03  0.91501945128E+02 0.  0.
        -24    2    1    2    0    0  0.11160371706E+02  0.14060256581E+02  0.63893600368E+02  0.10373412156E+03  0.79725347892E+02 0.  0.
         11    1    4    4    0    0 -0.10835494564E+01  0.35296810490E+02  0.70060388994E+02  0.78456975574E+02  0.00000000000E+00 0. -1.
        -12    1    4    4    0    0  0.12243921162E+02 -0.21236553909E+02 -0.61667886263E+01  0.25277145988E+02  0.00000000000E+00 0.  1.
        -13    1    3    3    0    0 -0.59542113225E+02  0.73951485247E+00  0.98024916908E+02  0.11469391642E+03  0.00000000000E+00 0.  1.
         13    1    3    3    0    0  0.17888927091E+02 -0.16189856241E+02 -0.32355352930E+01  0.24343250527E+02  0.00000000000E+00 0. -1.
         -3    1    1    2    0  502  0.30492814428E+02  0.13900848074E+01  0.12798315945E+03  0.13157291959E+03  0.00000000000E+00 0.  1.
<scales pt_clust_5="13000.00000" pt_clust_6="13000.00000" pt_clust_7="13000.00000" pt_clust_8="13000.00000" pt_clust_9="30.52450"></scales>
<clustering>
<clus scale="   30.524">  2  9  1 -1</clus>
<clus scale="   79.725">  5  6 -1 -1</clus>
<clus scale="   85.021">  2  5  1 -1</clus>
<clus scale="   91.502">  7  8 -1 -1</clus>
<clus scale="   30.524">  2  5  1 -1</clus>
</clustering>
</event>
<event>
 9    1  0.9171696E-005  0.1040246E+03  0.7546771E-02  0.1278962E+00
          1   -1    0    0  502    0 -0.00000000000E+00  0.00000000000E+00  0.39453755569E+03  0.39453755569E+03  0.00000000000E+00 0. -1.
         21   -1    0    0  501  502  0.00000000000E+00 -0.00000000000E+00 -0.10612431168E+03  0.10612431168E+03  0.00000000000E+00 0.  1.
         23    2    1    2    0    0  0.71765208554E+01 -0.49076809521E+02  0.34731119763E+03  0.36314711376E+03  0.93758853168E+02 0.  0.
        -24    2    1    2    0    0  0.14140492597E+02  0.13062660011E+02 -0.30924588358E+02  0.87176466069E+02  0.79201132906E+02 0.  0.
         11    1    4    4    0    0  0.29864634963E+02  0.36493490170E+02 -0.26500438257E+01  0.47230223147E+02  0.00000000000E+00 0. -1.
        -12    1    4    4    0    0 -0.15724142366E+02 -0.23430830158E+02 -0.28274544532E+02  0.39946242922E+02  0.00000000000E+00 0.  1.
        -13    1    3    3    0    0 -0.26289473009E+02 -0.78511932688E+01  0.27103170555E+02  0.38566299809E+02  0.00000000000E+00 0.  1.
         13    1    3    3    0    0  0.33465993864E+02 -0.41225616252E+02  0.32020802708E+03  0.32458081395E+03  0.00000000000E+00 0. -1.
          2    1    1    2  501    0 -0.21317013452E+02  0.36014149510E+02 -0.27973365265E+02  0.50338287533E+02  0.00000000000E+00 0. -1.
<scales pt_clust_5="13000.00000" pt_clust_6="13000.00000" pt_clust_7="13000.00000" pt_clust_8="13000.00000" pt_clust_9="41.85014"></scales>
<clustering>
<clus scale="   41.850">  2  9  1 -1</clus>
<clus scale="   79.201">  5  6 -1 -1</clus>
<clus scale="   91.122">  2  5  1 -1</clus>
<clus scale="   93.759">  7  8 -1 -1</clus>
<clus scale="   41.850">  2  5  1 -1</clus>
</clustering>
</event>
<event>
 9    1  0.9171696E-005  0.1181227E+03  0.7546771E-02  0.1250118E+00
          1   -1    0    0  502    0 -0.00000000000E+00  0.00000000000E+00  0.43306536797E+03  0.43306536797E+03  0.00000000000E+00 0. -1.
         21   -1    0    0  501  502  0.00000000000E+00 -0.00000000000E+00 -0.52101738336E+02  0.52101738336E+02  0.00000000000E+00 0.  1.
        -24    2    1    2    0    0  0.56639088386E+02 -0.50055822421E+02  0.26372971237E+03  0.28577352630E+03  0.79997346583E+02 0.  0.
         23    2    1    2    0    0 -0.67177238880E+02  0.28967637975E+02  0.48907514787E+02  0.12711452761E+03  0.91729235540E+02 0.  0.
         11    1    3    3    0    0  0.49471437387E+02 -0.50527159885E+02  0.10331154418E+03  0.12519461715E+03  0.00000000000E+00 0. -1.
        -12    1    3    3    0    0  0.71676509991E+01  0.47133746490E+00  0.16041816819E+03  0.16057890915E+03  0.00000000000E+00 0.  1.
        -11    1    4    4    0    0  0.22392291694E+02  0.27558808189E+01  0.17809811412E+02  0.28743677373E+02  0.00000000000E+00 0. -1.
         11    1    4    4    0    0 -0.89569530574E+02  0.26211757156E+02  0.31097703375E+02  0.98370850234E+02  0.00000000000E+00 0.  1.
          2    1    1    2  501    0  0.10538150494E+02  0.21088184445E+02  0.68326402482E+02  0.72279052396E+02  0.00000000000E+00 0. -1.
<scales pt_clust_5="13000.00000" pt_clust_6="13000.00000" pt_clust_7="13000.00000" pt_clust_8="13000.00000" pt_clust_9="23.57466"></scales>
<clustering>
<clus scale="   23.575">  2  9  1 -1</clus>
<clus scale="   79.997">  5  6 -1 -1</clus>
<clus scale="   91.729">  7  8 -1 -1</clus>
<clus scale="  109.262">  1  5  2 -1</clus>
<clus scale="   23.575">  2  5  1 -1</clus>
</clustering>
</event>
<event>
 9    1  0.9171696E-005  0.1419362E+03  0.7546771E-02  0.1216152E+00
         21   -1    0    0  501  502  0.00000000000E+00  0.00000000000E+00  0.55406669566E+03  0.55406669566E+03  0.00000000000E+00 0. -1.
          1   -1    0    0  502    0 -0.00000000000E+00 -0.00000000000E+00 -0.18769419173E+03  0.18769419173E+03  0.00000000000E+00 0. -1.
        -24    2    1    2    0    0 -0.72966639459E+02  0.68794343942E+02 -0.13799358025E+03  0.18926477157E+03  0.81988617104E+02 0.  0.
         23    2    1    2    0    0 -0.12967873558E+02 -0.86829118641E+02  0.27498492116E+03  0.30688318544E+03  0.10417831372E+03 0.  0.
         13    1    3    3    0    0 -0.25019270525E+02  0.16128125075E+02 -0.10792528545E+03  0.11195511403E+03  0.00000000000E+00 0. -1.
        -14    1    3    3    0    0 -0.47947368935E+02  0.52666218868E+02 -0.30068294793E+02  0.77309657542E+02  0.00000000000E+00 0.  1.
        -11    1    4    4    0    0 -0.35106534434E+02 -0.46935740436E+01  0.26484277129E+02  0.44225731564E+02  0.00000000000E+00 0. -1.
         11    1    4    4    0    0  0.22138660877E+02 -0.82135544597E+02  0.24850064403E+03  0.26265745387E+03  0.00000000000E+00 0.  1.
          2    1    1    2  501    0  0.85934513017E+02  0.18034774699E+02  0.22938116302E+03  0.24561293039E+03  0.00000000000E+00 0. -1.
<scales pt_clust_5="13000.00000" pt_clust_6="13000.00000" pt_clust_7="13000.00000" pt_clust_8="13000.00000" pt_clust_9="87.80657"></scales>
<clustering>
<clus scale="   81.989">  5  6 -1 -1</clus>
<clus scale="   87.807">  1  9  2 -1</clus>
<clus scale="  104.178">  7  8 -1 -1</clus>
<clus scale="  126.550">  2  5  1 -1</clus>
<clus scale="   87.807">  1  5  2 -1</clus>
</clustering>
</event>
<event>
 9    1  0.9171696E-005  0.1312936E+03  0.7546771E-02  0.1226628E+00
         21   -1    0    0  501  502  0.00000000000E+00  0.00000000000E+00  0.53392868819E+03  0.53392868819E+03  0.00000000000E+00 0. -1.
          1   -1    0    0  502    0 -0.00000000000E+00 -0.00000000000E+00 -0.39066737884E+02  0.39066737884E+02  0.00000000000E+00 0. -1.
        -24    2    1    2    0    0  0.94923376515E+02 -0.34356774904E+02  0.18775370275E+03  0.22794787794E+03  0.80733801913E+02 0.  0.
         23    2    1    2    0    0 -0.99317215750E+02  0.10792351698E+02  0.27695802040E+03  0.30652970731E+03  0.85289695724E+02 0.  0.
         13    1    3    3    0    0  0.50828651399E+02 -0.55223456227E+02  0.80165258088E+02  0.10981644014E+03  0.00000000000E+00 0. -1.
        -14    1    3    3    0    0  0.44094725115E+02  0.20866681323E+02  0.10758844466E+03  0.11813143780E+03  0.00000000000E+00 0.  1.
        -13    1    4    4    0    0 -0.17938303044E+01 -0.21213682440E+02  0.97454181264E+02  0.99752471627E+02  0.00000000000E+00 0. -1.
         13    1    4    4    0    0 -0.97523385446E+02  0.32006034137E+02  0.17950383914E+03  0.20677723568E+03  0.00000000000E+00 0.  1.
          2    1    1    2  501    0  0.43938392356E+01  0.23564423207E+02  0.30150227149E+02  0.38517840820E+02  0.00000000000E+00 0. -1.
<scales pt_clust_5="13000.00000" pt_clust_6="13000.00000" pt_clust_7="13000.00000" pt_clust_8="13000.00000" pt_clust_9="23.97057"></scales>
<clustering>
<clus scale="   23.971">  1  9  2 -1</clus>
<clus scale="   80.734">  5  6 -1 -1</clus>
<clus scale="   85.290">  7  8 -1 -1</clus>
<clus scale="  128.381">  2  5  1 -1</clus>
<clus scale="   23.971">  1  5  2 -1</clus>
</clustering>
</event>
<event>
 9    1  0.9171696E-005  0.2492172E+03  0.7546771E-02  0.1151953E+00
         21   -1    0    0  501  502  0.00000000000E+00  0.00000000000E+00  0.12110026624E+04  0.12110026624E+04  0.00000000000E+00 0. -1.
          1   -1    0    0  502    0 -0.00000000000E+00 -0.00000000000E+00 -0.80493116109E+02  0.80493116109E+02  0.00000000000E+00 0. -1.
        -24    2    1    2    0    0 -0.56172146727E+02 -0.79765625252E+01  0.62630977292E+02  0.11638321213E+03  0.80021729122E+02 0.  0.
         23    2    1    2    0    0 -0.19909092330E+03  0.15691120671E+01  0.34415897530E+03  0.40766853543E+03  0.90047635426E+02 0.  0.
         11    1    3    3    0    0 -0.56679109586E+02 -0.22178432625E+02  0.75660914993E+02  0.97102926808E+02  0.00000000000E+00 0. -1.
        -12    1    3    3    0    0  0.50696285849E+00  0.14201870100E+02 -0.13029937700E+02  0.19280285323E+02  0.00000000000E+00 0.  1.
        -11    1    4    4    0    0 -0.15341220489E+03  0.91792622755E+01  0.32099577623E+03  0.35589022440E+03  0.00000000000E+00 0. -1.
         11    1    4    4    0    0 -0.45678718408E+02 -0.76101502084E+01  0.23163199065E+02  0.51778311024E+02  0.00000000000E+00 0.  1.
          2    1    1    2  501    0  0.25526307002E+03  0.64074504582E+01  0.72371959370E+03  0.76744403095E+03  0.00000000000E+00 0. -1.
<scales pt_clust_5="13000.00000" pt_clust_6="13000.00000" pt_clust_7="13000.00000" pt_clust_8="13000.00000" pt_clust_9="232.38041"></scales>
<clustering>
<clus scale="   80.022">  5  6 -1 -1</clus>
<clus scale="   90.048">  7  8 -1 -1</clus>
<clus scale="   98.094">  2  5  1 -1</clus>
<clus scale="  232.380">  1  9  2 -1</clus>
<clus scale="  232.380">  1  5  2 -1</clus>
</clustering>
</event>
<event>
 9    1  0.9171696E-005  0.1996342E+03  0.7546771E-02  0.1151236E+00
         21   -1    0    0  501  502  0.00000000000E+00  0.00000000000E+00  0.46220228345E+03  0.46220228345E+03  0.00000000000E+00 0. -1.
          1   -1    0    0  502    0 -0.00000000000E+00 -0.00000000000E+00 -0.12272901039E+03  0.12272901039E+03  0.00000000000E+00 0. -1.
        -24    2    1    2    0    0  0.10450649009E+03  0.15052953242E+03  0.65227667741E+02  0.21046184804E+03  0.80366623905E+02 0.  0.
         23    2    1    2    0    0 -0.95753150843E+02 -0.13006785821E+03  0.29173015492E+03  0.34616731630E+03  0.92946296065E+02 0.  0.
         11    1    3    3    0    0  0.76730114730E+02  0.11369415303E+03  0.86178029518E+01  0.13743412046E+03  0.00000000000E+00 0. -1.
        -12    1    3    3    0    0  0.27776375357E+02  0.36835379393E+02  0.56609864789E+02  0.73027727573E+02  0.00000000000E+00 0.  1.
        -13    1    4    4    0    0 -0.84607092703E+02 -0.10482203210E+03  0.14930025065E+03  0.20108849642E+03  0.00000000000E+00 0.  1.
         13    1    4    4    0    0 -0.11146058140E+02 -0.25245826110E+02  0.14242990427E+03  0.14507881988E+03  0.00000000000E+00 0. -1.
          2    1    1    2  501    0 -0.87533392448E+01 -0.20461674211E+02 -0.17484549593E+02  0.28302129494E+02  0.00000000000E+00 0. -1.
<scales pt_clust_5="13000.00000" pt_clust_6="13000.00000" pt_clust_7="13000.00000" pt_clust_8="13000.00000" pt_clust_9="22.25537"></scales>
<clustering>
<clus scale="   22.255">  1  9  2 -1</clus>
<clus scale="   80.367">  5  6 -1 -1</clus>
<clus scale="   92.946">  7  8 -1 -1</clus>
<clus scale="  194.097">  2  5  1 -1</clus>
<clus scale="   22.255">  1  5  2 -1</clus>
</clustering>
</event>
<event>
 9    1  0.9171696E-005  0.1408759E+03  0.7546771E-02  0.1213830E+00
         21   -1    0    0  501  502  0.00000000000E+00  0.00000000000E+00  0.25456095896E+03  0.25456095896E+03  0.00000000000E+00 0.  1.
         -2   -1    0    0    0  501 -0.00000000000E+00 -0.00000000000E+00 -0.28504213763E+03  0.28504213763E+03  0.00000000000E+00 0.  1.
         23    2    1    2    0    0 -0.71341733301E+02 -0.76643892591E+02 -0.19049854289E+03  0.23612179383E+03  0.92194780197E+02 0.  0.
        -24    2    1    2    0    0  0.14307856195E+02  0.13734575078E+03  0.58406990237E+02  0.17209543281E+03  0.84480124755E+02 0.  0.
         11    1    4    4    0    0  0.27753051195E+02  0.20856064436E+02  0.40713401771E+02  0.53505031148E+02  0.00000000000E+00 0. -1.
        -12    1    4    4    0    0 -0.13445195000E+02  0.11648968634E+03  0.17693588466E+02  0.11859040166E+03  0.00000000000E+00 0.  1.
        -11    1    3    3    0    0 -0.33713702627E+01 -0.58832964213E+02 -0.43671212374E+02  0.73347519425E+02  0.00000000000E+00 0. -1.
         11    1    3    3    0    0 -0.67970363038E+02 -0.17810928378E+02 -0.14682733051E+03  0.16277427440E+03  0.00000000000E+00 0.  1.
         -1    1    1    2    0  502  0.57033877106E+02 -0.60701858187E+02  0.10161037398E+03  0.13138586996E+03  0.00000000000E+00 0.  1.
<scales pt_clust_5="13000.00000" pt_clust_6="13000.00000" pt_clust_7="13000.00000" pt_clust_8="13000.00000" pt_clust_9="83.29213"></scales>
<clustering>
<clus scale="   83.292">  1  9  2 -1</clus>
<clus scale="   84.480">  5  6 -1 -1</clus>
<clus scale="   92.195">  7  8 -1 -1</clus>
<clus scale="  135.952">  1  5  2 -1</clus>
<clus scale="   83.292">  1  5  2 -1</clus>
</clustering>
</event>
<event>
 9    1  0.9171696E-005  0.1483138E+03  0.7546771E-02  0.1204864E+00
          3   -1    0    0  502    0 -0.00000000000E+00  0.00000000000E+00  0.45003797510E+03  0.45003797510E+03  0.00000000000E+00 0. -1.
         21   -1    0    0  501  502  0.00000000000E+00 -0.00000000000E+00 -0.72586107121E+02  0.72586107121E+02  0.00000000000E+00 0.  1.
         23    2    1    2    0    0 -0.28506865450E+02 -0.11675868218E+03  0.25715828936E+03  0.29848446671E+03  0.92289543497E+02 0.  0.
        -24    2    1    2    0    0 -0.20171716231E+02  0.11330377963E+03  0.91220740667E+02  0.16733494517E+03  0.80219173103E+02 0.  0.
         13    1    4    4    0    0 -0.35599737925E+02  0.10390034338E+03  0.98811408950E+02  0.14773732512E+03  0.00000000000E+00 0. -1.
        -14    1    4    4    0    0  0.15428021693E+02  0.94034362463E+01 -0.75906682828E+01  0.19597620049E+02  0.00000000000E+00 0.  1.
        -11    1    3    3    0    0  0.31748905444E+02 -0.20036871008E+02  0.66553628707E+02  0.76412398803E+02  0.00000000000E+00 0. -1.
         11    1    3    3    0    0 -0.60255770894E+02 -0.96721811167E+02  0.19060466065E+03  0.22207206790E+03  0.00000000000E+00 0.  1.
          4    1    1    2  501    0  0.48678581681E+02  0.34549025483E+01  0.29072837951E+02  0.56804670342E+02  0.00000000000E+00 0. -1.
<scales pt_clust_5="13000.00000" pt_clust_6="13000.00000" pt_clust_7="13000.00000" pt_clust_8="13000.00000" pt_clust_9="48.80103"></scales>
<clustering>
<clus scale="   48.801">  2  9  1 -1</clus>
<clus scale="   80.219">  5  6 -1 -1</clus>
<clus scale="   92.290">  7  8 -1 -1</clus>
<clus scale="  141.120">  2  5  1 -1</clus>
<clus scale="   48.801">  2  5  1 -1</clus>
</clustering>
</event>
<event>
 9    1  0.9171696E-005  0.1329700E+03  0.7546771E-02  0.1243658E+00
         -4   -1    0    0    0  501 -0.00000000000E+00  0.00000000000E+00  0.10820667631E+04  0.10820667631E+04  0.00000000000E+00 0.  1.
         21   -1    0    0  501  502  0.00000000000E+00 -0.00000000000E+00 -0.33026809612E+02  0.33026809612E+02  0.00000000000E+00 0.  1.
        -24    2    1    2    0    0 -0.23774452448E+02  0.20412959421E+02  0.58000680615E+03  0.58652584755E+03  0.81380348765E+02 0.  0.
         23    2    1    2    0    0  0.20745857251E+02  0.87900449127E+02  0.32758187286E+03  0.35038402807E+03  0.85452935277E+02 0.  0.
         11    1    3    3    0    0  0.14225787052E+02 -0.23075307434E+02  0.12759129096E+03  0.13043918260E+03  0.00000000000E+00 0. -1.
        -12    1    3    3    0    0 -0.38000239500E+02  0.43488266854E+02  0.45241551519E+03  0.45608666495E+03  0.00000000000E+00 0.  1.
        -13    1    4    4    0    0 -0.18645969008E+02  0.75857886882E+02  0.16337800925E+03  0.18109242135E+03  0.00000000000E+00 0.  1.
         13    1    4    4    0    0  0.39391826259E+02  0.12042562245E+02  0.16420386361E+03  0.16929160672E+03  0.00000000000E+00 0. -1.
         -3    1    1    2    0  502  0.30285951965E+01 -0.10831340855E+03  0.14145127450E+03  0.17818369712E+03  0.00000000000E+00 0.  1.
<scales pt_clust_5="13000.00000" pt_clust_6="13000.00000" pt_clust_7="13000.00000" pt_clust_8="13000.00000" pt_clust_9="101.87642"></scales>
<clustering>
<clus scale="   81.380">  5  6 -1 -1</clus>
<clus scale="   85.453">  7  8 -1 -1</clus>
<clus scale="   87.205">  1  5  2 -1</clus>
<clus scale="  101.876">  2  9  1 -1</clus>
<clus scale="  101.876">  2  5  1 -1</clus>
</clustering>
</event>
<event>
 9    1  0.9171696E-005  0.1806036E+03  0.7546771E-02  0.1193539E+00
         21   -1    0    0  501  502  0.00000000000E+00  0.00000000000E+00  0.24940563786E+02  0.24940563786E+02  0.00000000000E+00 0. -1.
          1   -1    0    0  502    0 -0.00000000000E+00 -0.00000000000E+00 -0.20101385864E+04  0.20101385864E+04  0.00000000000E+00 0. -1.
        -24    2    1    2    0    0  0.57087809685E+02  0.19648857826E+01 -0.51039603111E+03  0.52009687273E+03  0.82059549489E+02 0.  0.
         23    2    1    2    0    0 -0.16499035499E+03  0.86605985240E+02 -0.90719270688E+03  0.93045848968E+03  0.89621312706E+02 0.  0.
         11    1    3    3    0    0  0.62480641346E+02 -0.62670879890E+01 -0.20180400956E+03  0.21134797186E+03  0.00000000000E+00 0. -1.
        -12    1    3    3    0    0 -0.53928316607E+01  0.82319737716E+01 -0.30859202155E+03  0.30874890087E+03  0.00000000000E+00 0.  1.
        -13    1    4    4    0    0 -0.49351168410E+02  0.19753355001E+02 -0.11021007426E+03  0.12236009695E+03  0.00000000000E+00 0.  1.
         13    1    4    4    0    0 -0.11563918658E+03  0.66852630240E+02 -0.79698263262E+03  0.80809839273E+03  0.00000000000E+00 0. -1.
          2    1    1    2  501    0  0.10790254530E+03 -0.88570871023E+02 -0.56760928460E+03  0.58452378775E+03  0.00000000000E+00 0. -1.
<scales pt_clust_5="13000.00000" pt_clust_6="13000.00000" pt_clust_7="13000.00000" pt_clust_8="13000.00000" pt_clust_9="156.79827"></scales>
<clustering>
<clus scale="   82.060">  5  6 -1 -1</clus>
<clus scale="   89.621">  7  8 -1 -1</clus>
<clus scale="   99.983">  2  5  1 -1</clus>
<clus scale="  156.798">  1  9  2 -1</clus>
<clus scale="  156.798">  1  5  2 -1</clus>
</clustering>
</event>
<event>
 9    1  0.9171696E-005  0.1277200E+03  0.7546771E-02  0.1234484E+00
          1   -1    0    0  502    0 -0.00000000000E+00  0.00000000000E+00  0.53128911702E+02  0.53128911702E+02  0.00000000000E+00 0. -1.
         21   -1    0    0  501  502  0.00000000000E+00 -0.00000000000E+00 -0.12872078663E+04  0.12872078663E+04  0.00000000000E+00 0.  1.
         23    2    1    2    0    0 -0.79914401761E+01 -0.83106937026E+02 -0.18456937452E+03  0.22310948698E+03  0.93495256930E+02 0.  0.
        -24    2    1    2    0    0 -0.82370352366E+02  0.10449391729E+03 -0.99993866576E+03  0.10119660350E+04  0.80585774000E+02 0.  0.
         11    1    4    4    0    0 -0.20069046697E+02  0.16099687166E+02 -0.53458093398E+02  0.59327348769E+02  0.00000000000E+00 0. -1.
        -12    1    4    4    0    0 -0.62301305669E+02  0.88394230124E+02 -0.94648057236E+03  0.95263868621E+03  0.00000000000E+00 0.  1.
        -11    1    3    3    0    0  0.32366300759E+02 -0.11675901741E+02 -0.21523590932E+02  0.40585330760E+02  0.00000000000E+00 0.  1.
         11    1    3    3    0    0 -0.40357740935E+02 -0.71431035285E+02 -0.16304578359E+03  0.18252415622E+03  0.00000000000E+00 0. -1.
          2    1    1    2  501    0  0.90361792543E+02 -0.21386980264E+02 -0.49570914293E+02  0.10526125603E+03  0.00000000000E+00 0. -1.
<scales pt_clust_5="13000.00000" pt_clust_6="13000.00000" pt_clust_7="13000.00000" pt_clust_8="13000.00000" pt_clust_9="92.85831"></scales>
<clustering>
<clus scale="   80.586">  5  6 -1 -1</clus>
<clus scale="   92.858">  2  9  1 -1</clus>
<clus scale="   93.495">  7  8 -1 -1</clus>
<clus scale="  118.596">  2  5  1 -1</clus>
<clus scale="   92.858">  2  5  1 -1</clus>
</clustering>
</event>
<event>
 9    1  0.9171696E-005  0.1607976E+03  0.7546771E-02  0.1189310E+00
          1   -1    0    0  502    0 -0.00000000000E+00  0.00000000000E+00  0.31123063570E+03  0.31123063570E+03  0.00000000000E+00 0. -1.
         21   -1    0    0  501  502  0.00000000000E+00 -0.00000000000E+00 -0.13811146547E+03  0.13811146547E+03  0.00000000000E+00 0. -1.
        -24    2    1    2    0    0 -0.68837602261E+02 -0.90684882106E+02  0.78372325884E+02  0.16038161803E+03  0.81349115606E+02 0.  0.
         23    2    1    2    0    0  0.13430907600E+03  0.10852960069E+03  0.34552365012E+02  0.19825037787E+03  0.91059015340E+02 0.  0.
         11    1    3    3    0    0 -0.11311106455E+02 -0.80658344223E+02  0.48432879956E+02  0.94759978276E+02  0.00000000000E+00 0. -1.
        -12    1    3    3    0    0 -0.57526495806E+02 -0.10026537883E+02  0.29939445928E+02  0.65621639754E+02  0.00000000000E+00 0.  1.
        -11    1    4    4    0    0  0.43374902033E+02 -0.11111446426E+02  0.45272237148E+01  0.45003801201E+02  0.00000000000E+00 0.  1.
         11    1    4    4    0    0  0.90934173970E+02  0.11964104711E+03  0.30025141298E+02  0.15324657667E+03  0.00000000000E+00 0. -1.
          2    1    1    2  501    0 -0.65471473742E+02 -0.17844718582E+02  0.60194479343E+02  0.90710105272E+02  0.00000000000E+00 0. -1.
<scales pt_clust_5="13000.00000" pt_clust_6="13000.00000" pt_clust_7="13000.00000" pt_clust_8="13000.00000" pt_clust_9="67.85980"></scales>
<clustering>
<clus scale="   67.860">  2  9  1 -1</clus>
<clus scale="   81.349">  5  6 -1 -1</clus>
<clus scale="   91.059">  7  8 -1 -1</clus>
<clus scale="  155.505">  1  5  2 -1</clus>
<clus scale="   67.860">  2  5  1 -1</clus>
</clustering>
</event>
<event>
 9    1  0.9171696E-005  0.2069565E+03  0.7546771E-02  0.1144991E+00
          1   -1    0    0  502    0 -0.00000000000E+00  0.00000000000E+00  0.13008121981E+04  0.13008121981E+04  0.00000000000E+00 0. -1.
         21   -1    0    0  501  502  0.00000000000E+00 -0.00000000000E+00 -0.89863511466E+02  0.89863511466E+02  0.00000000000E+00 0. -1.
        -24    2    1    2    0    0  0.17227312579E+01 -0.15783111050E+03  0.60482611442E+03  0.63057660396E+03  0.83057796331E+02 0.  0.
         23    2    1    2    0    0 -0.10211110902E+03  0.24834096616E+03  0.53825037717E+03  0.60884932801E+03  0.94255618595E+02 0.  0.
         11    1    3    3    0    0 -0.36491197933E+02 -0.50953054404E+02  0.17014094351E+03  0.18131674478E+03  0.00000000000E+00 0. -1.
        -12    1    3    3    0    0  0.38213929191E+02 -0.10687805609E+03  0.43468517091E+03  0.44925985918E+03  0.00000000000E+00 0.  1.
        -13    1    4    4    0    0 -0.78507000779E+02  0.11188737054E+03  0.18982870508E+03  0.23391680173E+03  0.00000000000E+00 0.  1.
         13    1    4    4    0    0 -0.23604108245E+02  0.13645359562E+03  0.34842167209E+03  0.37493252628E+03  0.00000000000E+00 0. -1.
          2    1    1    2  501    0  0.10038837777E+03 -0.90509855662E+02  0.67872195041E+02  0.15124977759E+03  0.00000000000E+00 0. -1.
<scales pt_clust_5="13000.00000" pt_clust_6="13000.00000" pt_clust_7="13000.00000" pt_clust_8="13000.00000" pt_clust_9="135.16605"></scales>
<clustering>
<clus scale="   83.058">  5  6 -1 -1</clus>
<clus scale="   94.256">  7  8 -1 -1</clus>
<clus scale="  135.166">  2  9  1 -1</clus>
<clus scale="  202.103">  1  5  2 -1</clus>
<clus scale="  135.166">  2  5  1 -1</clus>
</clustering>
</event>
<event>
 9    1  0.9171696E-005  0.1468617E+03  0.7546771E-02  0.1207320E+00
         21   -1    0    0  501  502  0.00000000000E+00  0.00000000000E+00  0.15770663916E+03  0.15770663916E+03  0.00000000000E+00 0. -1.
          1   -1    0    0  502    0 -0.00000000000E+00 -0.00000000000E+00 -0.37936269093E+03  0.37936269093E+03  0.00000000000E+00 0. -1.
        -24    2    1    2    0    0 -0.55884759777E+02  0.89080339291E+02 -0.14726361950E+03  0.19638856706E+03  0.76311744964E+02 0.  0.
         23    2    1    2    0    0  0.16319639791E+03 -0.36907152532E+02 -0.10468979075E+03  0.21757203455E+03  0.91555642816E+02 0.  0.
         13    1    3    3    0    0 -0.12980937267E+02  0.74909162186E+02 -0.12429472734E+03  0.14570197856E+03  0.00000000000E+00 0. -1.
        -14    1    3    3    0    0 -0.42903822509E+02  0.14171177105E+02 -0.22968892158E+02  0.50686588497E+02  0.00000000000E+00 0.  1.
        -11    1    4    4    0    0  0.37145017930E+02 -0.18507555709E+02 -0.76607388742E+02  0.87126195746E+02  0.00000000000E+00 0.  1.
         11    1    4    4    0    0  0.12605137998E+03 -0.18399596822E+02 -0.28082402006E+02  0.13044583880E+03  0.00000000000E+00 0. -1.
          2    1    1    2  501    0 -0.10731163813E+03 -0.52173186760E+02  0.30297358481E+02  0.12310872847E+03  0.00000000000E+00 0. -1.
<scales pt_clust_5="13000.00000" pt_clust_6="13000.00000" pt_clust_7="13000.00000" pt_clust_8="13000.00000" pt_clust_9="119.32237"></scales>
<clustering>
<clus scale="   76.312">  5  6 -1 -1</clus>
<clus scale="   91.556">  7  8 -1 -1</clus>
<clus scale="  119.322">  1  9  2 -1</clus>
<clus scale="  137.875">  2  5  1 -1</clus>
<clus scale="  119.322">  1  5  2 -1</clus>
</clustering>
</event>
<event>
 9    1  0.9171696E-005  0.2047150E+03  0.7546771E-02  0.1146734E+00
          1   -1    0    0  502    0 -0.00000000000E+00  0.00000000000E+00  0.10650822003E+04  0.10650822003E+04  0.00000000000E+00 0. -1.
         21   -1    0    0  501  502  0.00000000000E+00 -0.00000000000E+00 -0.70958735069E+02  0.70958735069E+02  0.00000000000E+00 0. -1.
         23    2    1    2    0    0 -0.27869678885E+02 -0.18242905094E+03  0.33994552682E+03  0.39725752872E+03  0.90517983263E+02 0.  0.
        -24    2    1    2    0    0  0.13448124415E+03  0.14821751850E+03  0.31569697751E+03  0.38226438093E+03  0.80048969441E+02 0.  0.
         11    1    4    4    0    0  0.12715790457E+03  0.15043158666E+03  0.26074524512E+03  0.32678261553E+03  0.00000000000E+00 0. -1.
        -12    1    4    4    0    0  0.73233395730E+01 -0.22140681596E+01  0.54951732384E+02  0.55481765404E+02  0.00000000000E+00 0.  1.
        -11    1    3    3    0    0 -0.40280391699E+02 -0.11627900442E+03  0.14054837187E+03  0.18680782012E+03  0.00000000000E+00 0. -1.
         11    1    3    3    0    0  0.12410712814E+02 -0.66150046521E+02  0.19939715495E+03  0.21044970860E+03  0.00000000000E+00 0.  1.
          2    1    1    2  501    0 -0.10661156526E+03  0.34211532439E+02  0.33848096091E+03  0.35651902572E+03  0.00000000000E+00 0. -1.
<scales pt_clust_5="13000.00000" pt_clust_6="13000.00000" pt_clust_7="13000.00000" pt_clust_8="13000.00000" pt_clust_9="111.96637"></scales>
<clustering>
<clus scale="   80.049">  5  6 -1 -1</clus>
<clus scale="   90.518">  7  8 -1 -1</clus>
<clus scale="  111.966">  2  9  1 -1</clus>
<clus scale="  200.306">  2  5  1 -1</clus>
<clus scale="  111.966">  2  5  1 -1</clus>
</clustering>
</event>
<event>
 9    1  0.9171696E-005  0.1026158E+03  0.7546771E-02  0.1279510E+00
         21   -1    0    0  501  502  0.00000000000E+00  0.00000000000E+00  0.58259149657E+03  0.58259149657E+03  0.00000000000E+00 0.  1.
          1   -1    0    0  502    0 -0.00000000000E+00 -0.00000000000E+00 -0.64860771264E+02  0.64860771264E+02  0.00000000000E+00 0. -1.
         23    2    1    2    0    0  0.59579611119E+01 -0.43427832830E+02 -0.79483185537E+01  0.10121046186E+03  0.90878533530E+02 0.  0.
        -24    2    1    2    0    0 -0.73195326930E+01  0.76823469755E+02  0.35081989817E+03  0.36821696706E+03  0.80955004842E+02 0.  0.
         11    1    4    4    0    0 -0.33334256173E+02  0.55251152171E+02  0.13341057523E+03  0.14819663975E+03  0.00000000000E+00 0. -1.
        -12    1    4    4    0    0  0.26014723480E+02  0.21572317585E+02  0.21740932294E+03  0.22002032730E+03  0.00000000000E+00 0.  1.
        -11    1    3    3    0    0  0.10036687617E+02  0.27760162488E+02 -0.56218720029E+00  0.29524189644E+02  0.00000000000E+00 0.  1.
         11    1    3    3    0    0 -0.40787265054E+01 -0.71187995318E+02 -0.73861313534E+01  0.71686272212E+02  0.00000000000E+00 0. -1.
          2    1    1    2  501    0  0.13615715811E+01 -0.33395636925E+02  0.17485914569E+03  0.17802483892E+03  0.00000000000E+00 0. -1.
<scales pt_clust_5="13000.00000" pt_clust_6="13000.00000" pt_clust_7="13000.00000" pt_clust_8="13000.00000" pt_clust_9="33.42338"></scales>
<clustering>
<clus scale="   33.423">  1  9  2 -1</clus>
<clus scale="   80.955">  5  6 -1 -1</clus>
<clus scale="   90.879">  7  8 -1 -1</clus>
<clus scale="   93.940">  1  5  2 -1</clus>
<clus scale="   33.423">  1  5  2 -1</clus>
</clustering>
</event>
<event>
 9    1  0.9171696E-005  0.1210050E+03  0.7546771E-02  0.1241742E+00
         21   -1    0    0  501  502  0.00000000000E+00  0.00000000000E+00  0.19886586145E+03  0.19886586145E+03  0.00000000000E+00 0. -1.
          1   -1    0    0  502    0 -0.00000000000E+00 -0.00000000000E+00 -0.12159870345E+03  0.12159870345E+03  0.00000000000E+00 0. -1.
        -24    2    1    2    0    0 -0.98855071845E+01  0.90340525003E+02  0.21350609852E+02  0.12767249550E+03  0.87093535101E+02 0.  0.
         23    2    1    2    0    0 -0.46046579711E+02 -0.70644635647E+02  0.54265908224E+02  0.13347047962E+03  0.88083074912E+02 0.  0.
         13    1    3    3    0    0 -0.22513235435E+02  0.84273251336E+01  0.36217122108E+02  0.43468902821E+02  0.00000000000E+00 0. -1.
        -14    1    3    3    0    0  0.12627728250E+02  0.81913199869E+02 -0.14866512256E+02  0.84203592680E+02  0.00000000000E+00 0.  1.
        -13    1    4    4    0    0  0.15610724613E+01 -0.38545395112E+02  0.64491574734E+02  0.75148836607E+02  0.00000000000E+00 0. -1.
         13    1    4    4    0    0 -0.47607652173E+02 -0.32099240535E+02 -0.10225666510E+02  0.58321643014E+02  0.00000000000E+00 0.  1.
          2    1    1    2  501    0  0.55932086896E+02 -0.19695889355E+02  0.16506399233E+01  0.59321589781E+02  0.00000000000E+00 0. -1.
<scales pt_clust_5="13000.00000" pt_clust_6="13000.00000" pt_clust_7="13000.00000" pt_clust_8="13000.00000" pt_clust_9="59.29865"></scales>
<clustering>
<clus scale="   59.299">  1  9  2 -1</clus>
<clus scale="   87.094">  5  6 -1 -1</clus>
<clus scale="   88.083">  7  8 -1 -1</clus>
<clus scale="  120.287">  2  5  1 -1</clus>
<clus scale="   59.299">  1  5  2 -1</clus>
</clustering>
</event>
<event>
 9    1  0.9171696E-005  0.9576195E+02  0.7546771E-02  0.1296627E+00
         21   -1    0    0  501  502  0.00000000000E+00  0.00000000000E+00  0.13172871512E+03  0.13172871512E+03  0.00000000000E+00 0.  1.
          1   -1    0    0  502    0 -0.00000000000E+00 -0.00000000000E+00 -0.20363491683E+03  0.20363491683E+03  0.00000000000E+00 0. -1.
         23    2    1    2    0    0 -0.16646508027E+02  0.19916373011E+02 -0.16549045599E+03  0.19104062151E+03  0.91845848567E+02 0.  0.
        -24    2    1    2    0    0  0.36708818699E+02 -0.14302744867E+02  0.70130550781E+02  0.11295287595E+03  0.79296608703E+02 0.  0.
         11    1    4    4    0    0 -0.23691533838E+02 -0.55952544167E+01  0.34703346911E+02  0.42390068818E+02  0.00000000000E+00 0. -1.
        -12    1    4    4    0    0  0.60400352537E+02 -0.87074904506E+01  0.35427203870E+02  0.70562807133E+02  0.00000000000E+00 0.  1.
        -11    1    3    3    0    0 -0.46073126927E+02  0.23969482516E+02 -0.51111235139E+02  0.72867190657E+02  0.00000000000E+00 0. -1.
         11    1    3    3    0    0  0.29426618900E+02 -0.40531095043E+01 -0.11437922085E+03  0.11817343085E+03  0.00000000000E+00 0.  1.
          2    1    1    2  501    0 -0.20062310672E+02 -0.56136281439E+01  0.23453703491E+02  0.31370134490E+02  0.00000000000E+00 0. -1.
<scales pt_clust_5="13000.00000" pt_clust_6="13000.00000" pt_clust_7="13000.00000" pt_clust_8="13000.00000" pt_clust_9="20.83289"></scales>
<clustering>
<clus scale="   20.833">  1  9  2 -1</clus>
<clus scale="   79.297">  5  6 -1 -1</clus>
<clus scale="   83.801">  1  5  2 -1</clus>
<clus scale="   91.846">  7  8 -1 -1</clus>
<clus scale="   20.833">  1  5  2 -1</clus>
</clustering>
</event>
<event>
 9    1  0.9171696E-005  0.1051853E+03  0.7546771E-02  0.1274099E+00
          1   -1    0    0  502    0 -0.00000000000E+00  0.00000000000E+00  0.90280578753E+02  0.90280578753E+02  0.00000000000E+00 0. -1.
         21   -1    0    0  501  502  0.00000000000E+00 -0.00000000000E+00 -0.59575205322E+03  0.59575205322E+03  0.00000000000E+00 0. -1.
        -24    2    1    2    0    0  0.63262355511E+02  0.19454517345E+02  0.36360229256E+02  0.11032336765E+03  0.80427453696E+02 0.  0.
         23    2    1    2    0    0  0.83844487690E-01  0.31833324247E+02 -0.17107640196E+03  0.19610067968E+03  0.90415561167E+02 0.  0.
         11    1    3    3    0    0  0.59947900949E+02  0.46631055862E+02  0.20431730233E+02  0.78648978375E+02  0.00000000000E+00 0. -1.
        -12    1    3    3    0    0  0.33144545625E+01 -0.27176538517E+02  0.15928499022E+02  0.31674389275E+02  0.00000000000E+00 0.  1.
        -13    1    4    4    0    0 -0.26929715756E+02 -0.19139465649E+02 -0.95297751144E+02  0.10086223331E+03  0.00000000000E+00 0.  1.
         13    1    4    4    0    0  0.27013560244E+02  0.50972789896E+02 -0.75778650819E+02  0.95238446369E+02  0.00000000000E+00 0. -1.
          2    1    1    2  501    0 -0.63346199999E+02 -0.51287841592E+02 -0.37075530176E+03  0.37960858464E+03  0.00000000000E+00 0. -1.
<scales pt_clust_5="13000.00000" pt_clust_6="13000.00000" pt_clust_7="13000.00000" pt_clust_8="13000.00000" pt_clust_9="81.50573"></scales>
<clustering>
<clus scale="   80.427">  5  6 -1 -1</clus>
<clus scale="   81.506">  2  9  1 -1</clus>
<clus scale="   90.416">  7  8 -1 -1</clus>
<clus scale="   96.734">  1  5  2 -1</clus>
<clus scale="   81.506">  2  5  1 -1</clus>
</clustering>
</event>
<event>
 9    1  0.9171696E-005  0.1407019E+03  0.7546771E-02  0.1237808E+00
         21   -1    0    0  501  502  0.00000000000E+00  0.00000000000E+00  0.26517987051E+03  0.26517987051E+03  0.00000000000E+00 0.  1.
         -2   -1    0    0    0  501 -0.00000000000E+00 -0.00000000000E+00 -0.18613606853E+03  0.18613606853E+03  0.00000000000E+00 0.  1.
        -24    2    1    2    0    0  0.19155093848E+02 -0.55780245170E+01 -0.71681709927E+02  0.10957702807E+03  0.80441441834E+02 0.  0.
         23    2    1    2    0    0 -0.12236111225E+03 -0.18578433051E+01 -0.68607751752E+01  0.15321779216E+03  0.91939807612E+02 0.  0.
         13    1    3    3    0    0  0.44488594330E+01 -0.41441291037E+02 -0.50247931475E+02  0.65284206134E+02  0.00000000000E+00 0. -1.
        -14    1    3    3    0    0  0.14706234415E+02  0.35863266520E+02 -0.21433778452E+02  0.44292821934E+02  0.00000000000E+00 0.  1.
        -11    1    4    4    0    0 -0.13912796531E+02  0.31137464383E+02 -0.19289996171E+02  0.39181775710E+02  0.00000000000E+00 0. -1.
         11    1    4    4    0    0 -0.10844831572E+03 -0.32995307688E+02  0.12429220996E+02  0.11403601645E+03  0.00000000000E+00 0.  1.
         -1    1    1    2    0  502  0.10320601841E+03  0.74358678221E+01  0.15758628708E+03  0.18852111882E+03  0.00000000000E+00 0.  1.
<scales pt_clust_5="13000.00000" pt_clust_6="13000.00000" pt_clust_7="13000.00000" pt_clust_8="13000.00000" pt_clust_9="106.50872"></scales>
<clustering>
<clus scale="   80.441">  5  6 -1 -1</clus>
<clus scale="   82.879">  2  5  1 -1</clus>
<clus scale="   91.940">  7  8 -1 -1</clus>
<clus scale="  106.509">  1  9  2 -1</clus>
<clus scale="  106.509">  1  5  2 -1</clus>
</clustering>
</event>
<event>
 9    1  0.9171696E-005  0.1473745E+03  0.7546771E-02  0.1205292E+00
         21   -1    0    0  501  502  0.00000000000E+00  0.00000000000E+00  0.13831006796E+03  0.13831006796E+03  0.00000000000E+00 0.  1.
         -2   -1    0    0    0  501 -0.00000000000E+00 -0.00000000000E+00 -0.22969883053E+03  0.22969883053E+03  0.00000000000E+00 0.  1.
        -24    2    1    2    0    0  0.97751577369E+02 -0.41844927854E+02 -0.90691825061E+02  0.16241867415E+03  0.82755360642E+02 0.  0.
         23    2    1    2    0    0 -0.13470671033E+03  0.31352680404E+02 -0.10892882127E+02  0.16584445230E+03  0.90867150833E+02 0.  0.
         11    1    3    3    0    0  0.49114249301E+02 -0.62712898724E+02 -0.68388098007E+02  0.10498594715E+03  0.00000000000E+00 0. -1.
        -12    1    3    3    0    0  0.48637328069E+02  0.20867970870E+02 -0.22303727054E+02  0.57432726998E+02  0.00000000000E+00 0.  1.
        -13    1    4    4    0    0 -0.11554176660E+03 -0.97416080563E+01  0.90598261952E+01  0.11630511256E+03  0.00000000000E+00 0. -1.
         13    1    4    4    0    0 -0.19164943726E+02  0.41094288460E+02 -0.19952708322E+02  0.49539339735E+02  0.00000000000E+00 0.  1.
         -1    1    1    2    0  502  0.36955132960E+02  0.10492247450E+02  0.10195944619E+02  0.39745772043E+02  0.00000000000E+00 0.  1.
<scales pt_clust_5="13000.00000" pt_clust_6="13000.00000" pt_clust_7="13000.00000" pt_clust_8="13000.00000" pt_clust_9="38.41574"></scales>
<clustering>
<clus scale="   38.416">  1  9  2 -1</clus>
<clus scale="   82.755">  5  6 -1 -1</clus>
<clus scale="   90.867">  7  8 -1 -1</clus>
<clus scale="  142.516">  2  5  1 -1</clus>
<clus scale="   38.416">  1  5  2 -1</clus>
</clustering>
</event>
<event>
 9    1  0.9171696E-005  0.1102185E+03  0.7546771E-02  0.1262532E+00
         21   -1    0    0  501  502  0.00000000000E+00  0.00000000000E+00  0.38449463586E+03  0.38449463586E+03  0.00000000000E+00 0.  1.
          1   -1    0    0  502    0 -0.00000000000E+00 -0.00000000000E+00 -0.69966892438E+02  0.69966892438E+02  0.00000000000E+00 0. -1.
        -24    2    1    2    0    0 -0.68522665738E+02  0.77285671376E+01  0.88908633366E+00  0.10897931063E+03  0.84383725920E+02 0.  0.
         23    2    1    2    0    0  0.38171739268E+02 -0.26507072201E+02  0.17613700070E+03  0.20342407289E+03  0.90539515456E+02 0.  0.
         11    1    3    3    0    0 -0.29260966518E+01 -0.29428798740E+02 -0.13027419707E+02  0.32316093532E+02  0.00000000000E+00 0. -1.
        -12    1    3    3    0    0 -0.65596569086E+02  0.37157365878E+02  0.13916506041E+02  0.76663217094E+02  0.00000000000E+00 0.  1.
        -13    1    4    4    0    0  0.24989035516E+02  0.22467882477E+02  0.13193524394E+03  0.13614758989E+03  0.00000000000E+00 0.  1.
         13    1    4    4    0    0  0.13182703752E+02 -0.48974954679E+02  0.44201756761E+02  0.67276482999E+02  0.00000000000E+00 0. -1.
          2    1    1    2  501    0  0.30350926470E+02  0.18778505064E+02  0.13750165638E+03  0.14205814478E+03  0.00000000000E+00 0. -1.
<scales pt_clust_5="13000.00000" pt_clust_6="13000.00000" pt_clust_7="13000.00000" pt_clust_8="13000.00000" pt_clust_9="35.69049"></scales>
<clustering>
<clus scale="   35.690">  1  9  2 -1</clus>
<clus scale="   84.384">  5  6 -1 -1</clus>
<clus scale="   90.540">  7  8 -1 -1</clus>
<clus scale="  105.220">  2  5  1 -1</clus>
<clus scale="   35.690">  1  5  2 -1</clus>
</clustering>
</event>
<event>
 9    1  0.9171696E-005  0.1306417E+03  0.7546771E-02  0.1241749E+00
         21   -1    0    0  501  502  0.00000000000E+00  0.00000000000E+00  0.58923173024E+02  0.58923173024E+02  0.00000000000E+00 0. -1.
          1   -1    0    0  502    0 -0.00000000000E+00 -0.00000000000E+00 -0.55441703582E+03  0.55441703582E+03  0.00000000000E+00 0. -1.
        -24    2    1    2    0    0 -0.54247268065E+01  0.53812474210E+02 -0.28676401510E+03  0.30227004227E+03  0.78793198043E+02 0.  0.
         23    2    1    2    0    0 -0.80210780632E+02  0.11483715013E+02 -0.12501296374E+03  0.17466800705E+03  0.91186767381E+02 0.  0.
         13    1    3    3    0    0 -0.26728609305E+02  0.39834909427E+02 -0.26329272493E+03  0.26762716149E+03  0.00000000000E+00 0. -1.
        -14    1    3    3    0    0  0.21303882498E+02  0.13977564784E+02 -0.23471290163E+02  0.34642880780E+02  0.00000000000E+00 0.  1.
        -11    1    4    4    0    0 -0.62755816460E+02 -0.35176163601E+02 -0.79052895412E+02  0.10688786301E+03  0.00000000000E+00 0.  1.
         11    1    4    4    0    0 -0.17454964172E+02  0.46659878613E+02 -0.45960068328E+02  0.67780144048E+02  0.00000000000E+00 0. -1.
          2    1    1    2  501    0  0.85635507438E+02 -0.65296189223E+02 -0.83716883955E+02  0.13640215952E+03  0.00000000000E+00 0. -1.
<scales pt_clust_5="13000.00000" pt_clust_6="13000.00000" pt_clust_7="13000.00000" pt_clust_8="13000.00000" pt_clust_9="93.55339"></scales>
<clustering>
<clus scale="   78.793">  5  6 -1 -1</clus>
<clus scale="   91.187">  7  8 -1 -1</clus>
<clus scale="   95.570">  2  5  1 -1</clus>
<clus scale="   93.553">  1  9  2 -1</clus>
<clus scale="   93.553">  1  5  2 -1</clus>
</clustering>
</event>
<event>
 9    1  0.9171696E-005  0.9499747E+02  0.7546771E-02  0.1299352E+00
         21   -1    0    0  501  502  0.00000000000E+00  0.00000000000E+00  0.59235507277E+03  0.59235507277E+03  0.00000000000E+00 0.  1.
          1   -1    0    0  502    0 -0.00000000000E+00 -0.00000000000E+00 -0.65826169984E+02  0.65826169984E+02  0.00000000000E+00 0. -1.
         23    2    1    2    0    0 -0.18379101864E+02 -0.10278164692E+02 -0.17204871527E+02  0.97579208983E+02  0.93713725605E+02 0.  0.
        -24    2    1    2    0    0 -0.23831087803E+02  0.17861162481E+01  0.24717238144E+03  0.26093142336E+03  0.80124344581E+02 0.  0.
         11    1    4    4    0    0 -0.12383150004E+02 -0.39047823110E+02  0.13132818077E+03  0.13756876811E+03  0.00000000000E+00 0. -1.
        -12    1    4    4    0    0 -0.11447937800E+02  0.40833939358E+02  0.11584420067E+03  0.12336265526E+03  0.00000000000E+00 0.  1.
        -13    1    3    3    0    0 -0.56747085240E+02 -0.33782525166E+01 -0.13437435410E+02  0.58414115963E+02  0.00000000000E+00 0. -1.
         13    1    3    3    0    0  0.38367983377E+02 -0.68999121754E+01 -0.37674361172E+01  0.39165093021E+02  0.00000000000E+00 0.  1.
          2    1    1    2  501    0  0.42210189667E+02  0.84920484439E+01  0.29656139287E+03  0.29967061040E+03  0.00000000000E+00 0. -1.
<scales pt_clust_5="13000.00000" pt_clust_6="13000.00000" pt_clust_7="13000.00000" pt_clust_8="13000.00000" pt_clust_9="43.05595"></scales>
<clustering>
<clus scale="   43.056">  1  9  2 -1</clus>
<clus scale="   80.124">  5  6 -1 -1</clus>
<clus scale="   81.622">  1  5  2 -1</clus>
<clus scale="   93.714">  7  8 -1 -1</clus>
<clus scale="   43.056">  1  5  2 -1</clus>
</clustering>
</event>
<event>
 9    1  0.9171696E-005  0.9407774E+02  0.7546771E-02  0.1299054E+00
         -4   -1    0    0    0  501 -0.00000000000E+00  0.00000000000E+00  0.40307513636E+02  0.40307513636E+02  0.00000000000E+00 0.  1.
         21   -1    0    0  501  502  0.00000000000E+00 -0.00000000000E+00 -0.36134700591E+03  0.36134700591E+03  0.00000000000E+00 0. -1.
        -24    2    1    2    0    0  0.62871437702E+00 -0.17604751435E+02 -0.35775681922E+02  0.90665440834E+02  0.81424813109E+02 0.  0.
         23    2    1    2    0    0  0.18122745307E+01  0.40559723466E+02 -0.21651896325E+03  0.23847188647E+03  0.91323620619E+02 0.  0.
         13    1    3    3    0    0 -0.25057200077E+02  0.11828818868E+02  0.10920553384E+02  0.29783262375E+02  0.00000000000E+00 0. -1.
        -14    1    3    3    0    0  0.25685914454E+02 -0.29433570303E+02 -0.46696235306E+02  0.60882178459E+02  0.00000000000E+00 0.  1.
        -11    1    4    4    0    0  0.21329379513E+02 -0.23408612363E+01 -0.53598435242E+01  0.22116735391E+02  0.00000000000E+00 0.  1.
         11    1    4    4    0    0 -0.19517104983E+02  0.42900584702E+02 -0.21115911973E+03  0.21635515108E+03  0.00000000000E+00 0. -1.
         -3    1    1    2    0  502 -0.24409889078E+01 -0.22954972030E+02 -0.68744847098E+02  0.72517192239E+02  0.00000000000E+00 0.  1.
<scales pt_clust_5="13000.00000" pt_clust_6="13000.00000" pt_clust_7="13000.00000" pt_clust_8="13000.00000" pt_clust_9="23.08439"></scales>
<clustering>
<clus scale="   23.084">  2  9  1 -1</clus>
<clus scale="   81.425">  5  6 -1 -1</clus>
<clus scale="   84.502">  1  5  2 -1</clus>
<clus scale="   91.324">  7  8 -1 -1</clus>
<clus scale="   23.084">  2  5  1 -1</clus>
</clustering>
</event>
<event>
 9    1  0.9171696E-005  0.1101805E+03  0.7546771E-02  0.1262424E+00
          1   -1    0    0  502    0 -0.00000000000E+00  0.00000000000E+00  0.81480704407E+03  0.81480704407E+03  0.00000000000E+00 0. -1.
         21   -1    0    0  501  502  0.00000000000E+00 -0.00000000000E+00 -0.28735288349E+02  0.28735288349E+02  0.00000000000E+00 0. -1.
        -24    2    1    2    0    0  0.50568464069E+02 -0.75604991245E+02  0.43371820592E+03  0.45127308939E+03  0.85221093658E+02 0.  0.
         23    2    1    2    0    0 -0.39068502231E+02  0.75979714476E+01  0.24873030714E+03  0.26779040835E+03  0.90889273708E+02 0.  0.
         11    1    3    3    0    0  0.69994734168E+02 -0.78084619554E+02  0.37420699947E+03  0.38862237336E+03  0.00000000000E+00 0. -1.
        -12    1    3    3    0    0 -0.19426270099E+02  0.24796283089E+01  0.59511206446E+02  0.62650716031E+02  0.00000000000E+00 0.  1.
        -13    1    4    4    0    0  0.21525082404E+02 -0.11946681357E+02  0.13699064315E+03  0.13918508785E+03  0.00000000000E+00 0.  1.
         13    1    4    4    0    0 -0.60593584635E+02  0.19544652805E+02  0.11173966399E+03  0.12860532050E+03  0.00000000000E+00 0. -1.
          2    1    1    2  501    0 -0.11499961838E+02  0.68007019798E+02  0.10362324266E+03  0.12447883468E+03  0.00000000000E+00 0. -1.
<scales pt_clust_5="13000.00000" pt_clust_6="13000.00000" pt_clust_7="13000.00000" pt_clust_8="13000.00000" pt_clust_9="68.97249"></scales>
<clustering>
<clus scale="   68.972">  2  9  1 -1</clus>
<clus scale="   85.221">  5  6 -1 -1</clus>
<clus scale="   90.889">  7  8 -1 -1</clus>
<clus scale="  105.553">  1  5  2 -1</clus>
<clus scale="   68.972">  2  5  1 -1</clus>
</clustering>
</event>
<event>
 9    1  0.9171696E-005  0.1396426E+03  0.7546771E-02  0.1215576E+00
          3   -1    0    0  502    0 -0.00000000000E+00  0.00000000000E+00  0.25488770438E+03  0.25488770438E+03  0.00000000000E+00 0. -1.
         21   -1    0    0  501  502  0.00000000000E+00 -0.00000000000E+00 -0.21085174513E+03  0.21085174513E+03  0.00000000000E+00 0.  1.
        -24    2    1    2    0    0  0.11147875997E+02  0.11615890516E+03  0.28068656392E+02  0.14504574845E+03  0.81444786717E+02 0.  0.
         23    2    1    2    0    0 -0.33946927356E+02 -0.78721580968E+02 -0.12317232828E+03  0.17481297259E+03  0.89658640113E+02 0.  0.
         13    1    3    3    0    0 -0.28157388477E+02  0.73407695271E+02 -0.39654757968E+01  0.78722634923E+02  0.00000000000E+00 0. -1.
        -14    1    3    3    0    0  0.39305264474E+02  0.42751209888E+02  0.32034132188E+02  0.66323113523E+02  0.00000000000E+00 0.  1.
        -11    1    4    4    0    0 -0.62530208004E+02 -0.62471568849E+02 -0.10498259416E+03  0.13723727229E+03  0.00000000000E+00 0.  1.
         11    1    4    4    0    0  0.28583280647E+02 -0.16250012118E+02 -0.18189734113E+02  0.37575700306E+02  0.00000000000E+00 0. -1.
          4    1    1    2  501    0  0.22799051359E+02 -0.37437324191E+02  0.13913963114E+03  0.14588072847E+03  0.00000000000E+00 0. -1.
<scales pt_clust_5="13000.00000" pt_clust_6="13000.00000" pt_clust_7="13000.00000" pt_clust_8="13000.00000" pt_clust_9="43.83323"></scales>
<clustering>
<clus scale="   43.833">  2  9  1 -1</clus>
<clus scale="   81.445">  5  6 -1 -1</clus>
<clus scale="   89.659">  7  8 -1 -1</clus>
<clus scale="  134.516">  1  5  2 -1</clus>
<clus scale="   43.833">  2  5  1 -1</clus>
</clustering>
</event>
<event>
 9    1  0.9171696E-005  0.1444298E+03  0.7546771E-02  0.1209122E+00
          1   -1    0    0  502    0 -0.00000000000E+00  0.00000000000E+00  0.19123747254E+03  0.19123747254E+03  0.00000000000E+00 0. -1.
         21   -1    0    0  501  502  0.00000000000E+00 -0.00000000000E+00 -0.29607708543E+03  0.29607708543E+03  0.00000000000E+00 0.  1.
        -24    2    1    2    0    0  0.32776694877E+01 -0.11107471167E+03  0.13172735552E+03  0.19108206888E+03  0.82534393824E+02 0.  0.
         23    2    1    2    0    0  0.14414518330E+02  0.12353567630E+03 -0.22203807301E+03  0.27016760945E+03  0.90668570483E+02 0.  0.
         13    1    3    3    0    0  0.15958792828E+02 -0.12116664370E+03  0.11650998133E+03  0.16885086427E+03  0.00000000000E+00 0. -1.
        -14    1    3    3    0    0 -0.12681123340E+02  0.10091932028E+02  0.15217374186E+02  0.22231204608E+02  0.00000000000E+00 0.  1.
        -13    1    4    4    0    0 -0.13903573983E+02  0.60790127656E+02 -0.17760185096E+03  0.18823168292E+03  0.00000000000E+00 0.  1.
         13    1    4    4    0    0  0.28318092313E+02  0.62745548640E+02 -0.44436222048E+02  0.81935926530E+02  0.00000000000E+00 0. -1.
          2    1    1    2  501    0 -0.17692187818E+02 -0.12460964626E+02 -0.14528895402E+02  0.26064879643E+02  0.00000000000E+00 0. -1.
<scales pt_clust_5="13000.00000" pt_clust_6="13000.00000" pt_clust_7="13000.00000" pt_clust_8="13000.00000" pt_clust_9="21.63999"></scales>
<clustering>
<clus scale="   21.640">  2  9  1 -1</clus>
<clus scale="   82.534">  5  6 -1 -1</clus>
<clus scale="   90.669">  7  8 -1 -1</clus>
<clus scale="  139.467">  1  5  2 -1</clus>
<clus scale="   21.640">  2  5  1 -1</clus>
</clustering>
</event>
<event>
 9    1  0.9171696E-005  0.2037560E+03  0.7546771E-02  0.1147593E+00
         21   -1    0    0  501  502  0.00000000000E+00  0.00000000000E+00  0.85407777295E+02  0.85407777295E+02  0.00000000000E+00 0.  1.
         -2   -1    0    0    0  501 -0.00000000000E+00 -0.00000000000E+00 -0.86088489543E+03  0.86088489543E+03  0.00000000000E+00 0.  1.
        -24    2    1    2    0    0  0.91966348478E+02  0.14972902317E+03 -0.30914928089E+03  0.36478221905E+03  0.81340026001E+02 0.  0.
         23    2    1    2    0    0 -0.15588520049E+03 -0.12592667905E+03 -0.17302288356E+03  0.28037930768E+03  0.92292544188E+02 0.  0.
         13    1    3    3    0    0  0.26710477843E+02  0.58141488549E+02 -0.46576506417E+02  0.79140718138E+02  0.00000000000E+00 0. -1.
        -14    1    3    3    0    0  0.65255870635E+02  0.91587534619E+02 -0.26257277447E+03  0.28564150091E+03  0.00000000000E+00 0.  1.
        -11    1    4    4    0    0 -0.62570259792E+02 -0.10362043793E+03 -0.71013302449E+02  0.14033930915E+03  0.00000000000E+00 0. -1.
         11    1    4    4    0    0 -0.93314940702E+02 -0.22306241112E+02 -0.10200958111E+03  0.14003999853E+03  0.00000000000E+00 0.  1.
         -1    1    1    2    0  502  0.63918852016E+02 -0.23802344122E+02 -0.29330495369E+03  0.30113114599E+03  0.00000000000E+00 0.  1.
<scales pt_clust_5="13000.00000" pt_clust_6="13000.00000" pt_clust_7="13000.00000" pt_clust_8="13000.00000" pt_clust_9="68.20686"></scales>
<clustering>
<clus scale="   68.207">  1  9  2 -1</clus>
<clus scale="   81.340">  5  6 -1 -1</clus>
<clus scale="   92.293">  7  8 -1 -1</clus>
<clus scale="  199.035">  2  5  1 -1</clus>
<clus scale="   68.207">  1  5  2 -1</clus>
</clustering>
</event>
<event>
 9    1  0.9171696E-005  0.1992154E+03  0.7546771E-02  0.1151670E+00
          3   -1    0    0  502    0 -0.00000000000E+00  0.00000000000E+00  0.30966289736E+03  0.30966289736E+03  0.00000000000E+00 0. -1.
         21   -1    0    0  501  502  0.00000000000E+00 -0.00000000000E+00 -0.35762242815E+03  0.35762242815E+03  0.00000000000E+00 0.  1.
        -24    2    1    2    0    0 -0.10500847963E+03 -0.15243140316E+03  0.21223706913E+02  0.20324578711E+03  0.81217552164E+02 0.  0.
         23    2    1    2    0    0 -0.46891557731E+02  0.19407973932E+03 -0.16854482116E+03  0.27781137318E+03  0.94371812159E+02 0.  0.
         11    1    3    3    0    0 -0.35384355316E+02 -0.21198464253E+01  0.11660786676E+02  0.37316488257E+02  0.00000000000E+00 0. -1.
        -12    1    3    3    0    0 -0.69624124312E+02 -0.15031155673E+03  0.95629202371E+01  0.16592929885E+03  0.00000000000E+00 0.  1.
        -11    1    4    4    0    0  0.96823606431E+01  0.22248698209E+02 -0.64973215828E+02  0.69356120528E+02  0.00000000000E+00 0. -1.
         11    1    4    4    0    0 -0.56573918374E+02  0.17183104111E+03 -0.10357160533E+03  0.20845525265E+03  0.00000000000E+00 0.  1.
          4    1    1    2  501    0  0.15190003736E+03 -0.41648336161E+02  0.99361583456E+02  0.18622816522E+03  0.00000000000E+00 0. -1.
<scales pt_clust_5="13000.00000" pt_clust_6="13000.00000" pt_clust_7="13000.00000" pt_clust_8="13000.00000" pt_clust_9="157.50629"></scales>
<clustering>
<clus scale="   81.218">  5  6 -1 -1</clus>
<clus scale="   94.372">  7  8 -1 -1</clus>
<clus scale="  157.506">  2  9  1 -1</clus>
<clus scale="  193.331">  1  5  2 -1</clus>
<clus scale="  157.506">  2  5  1 -1</clus>
</clustering>
</event>
<event>
 9    1  0.9171696E-005  0.2481416E+03  0.7546771E-02  0.1115084E+00
         21   -1    0    0  501  502  0.00000000000E+00  0.00000000000E+00  0.68276422760E+03  0.68276422760E+03  0.00000000000E+00 0. -1.
          1   -1    0    0  502    0 -0.00000000000E+00 -0.00000000000E+00 -0.53907210799E+03  0.53907210799E+03  0.00000000000E+00 0. -1.
         23    2    1    2    0    0  0.23933190086E+03 -0.28546755343E+02 -0.47635076464E+03  0.54170951446E+03  0.91893803214E+02 0.  0.
        -24    2    1    2    0    0 -0.13466213841E+03  0.33513611972E+02  0.26539498353E+03  0.31032205869E+03  0.81291014986E+02 0.  0.
         13    1    4    4    0    0 -0.25246606503E+02  0.21279912569E+02  0.13822965386E+03  0.14211848235E+03  0.00000000000E+00 0. -1.
        -14    1    4    4    0    0 -0.10941553191E+03  0.12233699403E+02  0.12716532967E+03  0.16820357635E+03  0.00000000000E+00 0.  1.
        -11    1    3    3    0    0  0.12310209921E+03 -0.45138618544E+02 -0.32282223072E+03  0.34843337148E+03  0.00000000000E+00 0. -1.
         11    1    3    3    0    0  0.11622980165E+03  0.16591863201E+02 -0.15352853392E+03  0.19327614297E+03  0.00000000000E+00 0.  1.
          2    1    1    2  501    0 -0.10466976244E+03 -0.49668566294E+01  0.35464790072E+03  0.36980476244E+03  0.00000000000E+00 0. -1.
<scales pt_clust_5="13000.00000" pt_clust_6="13000.00000" pt_clust_7="13000.00000" pt_clust_8="13000.00000" pt_clust_9="104.78754"></scales>
<clustering>
<clus scale="   81.291">  5  6 -1 -1</clus>
<clus scale="   91.894">  7  8 -1 -1</clus>
<clus scale="  104.788">  1  9  2 -1</clus>
<clus scale="  244.414">  1  5  2 -1</clus>
<clus scale="  104.788">  1  5  2 -1</clus>
</clustering>
</event>
<event>
 9    1  0.9171696E-005  0.1298467E+03  0.7546771E-02  0.1231301E+00
         21   -1    0    0  501  502  0.00000000000E+00  0.00000000000E+00  0.72299952369E+02  0.72299952369E+02  0.00000000000E+00 0. -1.
          1   -1    0    0  502    0 -0.00000000000E+00 -0.00000000000E+00 -0.41230226517E+03  0.41230226517E+03  0.00000000000E+00 0. -1.
         23    2    1    2    0    0  0.19928366113E+02  0.72595196370E+02 -0.15583704485E+03  0.19473742813E+03  0.89276419357E+02 0.  0.
        -24    2    1    2    0    0  0.20279299306E+02 -0.12973022337E+03 -0.14623493275E+03  0.21036775803E+03  0.75025044001E+02 0.  0.
         11    1    4    4    0    0  0.22301655043E+02 -0.71913665402E+02 -0.30996630393E+02  0.81423155091E+02  0.00000000000E+00 0. -1.
        -12    1    4    4    0    0 -0.20223557370E+01 -0.57816557972E+02 -0.11523830235E+03  0.12894460294E+03  0.00000000000E+00 0.  1.
        -11    1    3    3    0    0 -0.24815029427E+02 -0.43128861860E+01 -0.19143453892E+02  0.31636347761E+02  0.00000000000E+00 0.  1.
         11    1    3    3    0    0  0.44743395540E+02  0.76908082556E+02 -0.13669359096E+03  0.16310108037E+03  0.00000000000E+00 0. -1.
          2    1    1    2  501    0 -0.40207665419E+02  0.57135027005E+02 -0.37930335197E+02  0.79497031375E+02  0.00000000000E+00 0. -1.
<scales pt_clust_5="13000.00000" pt_clust_6="13000.00000" pt_clust_7="13000.00000" pt_clust_8="13000.00000" pt_clust_9="69.86464"></scales>
<clustering>
<clus scale="   69.865">  1  9  2 -1</clus>
<clus scale="   75.025">  5  6 -1 -1</clus>
<clus scale="   89.276">  7  8 -1 -1</clus>
<clus scale="  120.493">  1  5  2 -1</clus>
<clus scale="   69.865">  1  5  2 -1</clus>
</clustering>
</event>
<event>
 9    1  0.9171696E-005  0.1806998E+03  0.7546771E-02  0.1168971E+00
          1   -1    0    0  502    0 -0.00000000000E+00  0.00000000000E+00  0.46620973878E+03  0.46620973878E+03  0.00000000000E+00 0. -1.
         21   -1    0    0  501  502  0.00000000000E+00 -0.00000000000E+00 -0.10625376378E+03  0.10625376378E+03  0.00000000000E+00 0. -1.
         23    2    1    2    0    0  0.71312930354E+02  0.14482423919E+03  0.19830722321E+03  0.27222534307E+03  0.93387838307E+02 0.  0.
        -24    2    1    2    0    0 -0.54122691143E+02 -0.13177066841E+03  0.27892700505E+02  0.16475169784E+03  0.77925249119E+02 0.  0.
         11    1    4    4    0    0 -0.25408903195E+02 -0.48334202803E+02 -0.26912892869E+02  0.60877839357E+02  0.00000000000E+00 0. -1.
        -12    1    4    4    0    0 -0.28713787948E+02 -0.83436465607E+02  0.54805593374E+02  0.10387385848E+03  0.00000000000E+00 0.  1.
        -11    1    3    3    0    0  0.13015845097E+02  0.83552068625E+02  0.15649602899E+03  0.17788020543E+03  0.00000000000E+00 0.  1.
         11    1    3    3    0    0  0.58297085257E+02  0.61272170563E+02  0.41811194219E+02  0.94345137643E+02  0.00000000000E+00 0. -1.
          2    1    1    2  501    0 -0.17190239211E+02 -0.13053570778E+02  0.13375605129E+03  0.13548646165E+03  0.00000000000E+00 0. -1.
<scales pt_clust_5="13000.00000" pt_clust_6="13000.00000" pt_clust_7="13000.00000" pt_clust_8="13000.00000" pt_clust_9="21.58473"></scales>
<clustering>
<clus scale="   21.585">  2  9  1 -1</clus>
<clus scale="   77.925">  5  6 -1 -1</clus>
<clus scale="   93.388">  7  8 -1 -1</clus>
<clus scale="  173.215">  2  5  1 -1</clus>
<clus scale="   21.585">  2  5  1 -1</clus>
</clustering>
</event>
<event>
 9    1  0.9171696E-005  0.9878482E+02  0.7546771E-02  0.1288221E+00
         21   -1    0    0  501  502  0.00000000000E+00  0.00000000000E+00  0.93013402161E+02  0.93013402161E+02  0.00000000000E+00 0.  1.
          1   -1    0    0  502    0 -0.00000000000E+00 -0.00000000000E+00 -0.44365985239E+03  0.44365985239E+03  0.00000000000E+00 0. -1.
        -24    2    1    2    0    0 -0.24690058596E+02 -0.34606624444E+02 -0.36695621618E+03  0.37806393895E+03  0.80425492817E+02 0.  0.
         23    2    1    2    0    0 -0.20595624832E+02  0.28183854306E+02 -0.21035888664E+02  0.99560666007E+02  0.90836711731E+02 0.  0.
         11    1    3    3    0    0 -0.73614599411E+01 -0.53337358032E+02 -0.32112864020E+03  0.32561122279E+03  0.00000000000E+00 0. -1.
        -12    1    3    3    0    0 -0.17328598655E+02  0.18730733588E+02 -0.45827575982E+02  0.52452716159E+02  0.00000000000E+00 0.  1.
        -13    1    4    4    0    0  0.26385736563E+02  0.26220074015E+02  0.15212480890E+02  0.40188542524E+02  0.00000000000E+00 0.  1.
         13    1    4    4    0    0 -0.46981361395E+02  0.19637802911E+01 -0.36248369554E+02  0.59372123483E+02  0.00000000000E+00 0. -1.
          2    1    1    2  501    0  0.45285683427E+02  0.64227701379E+01  0.37345654616E+02  0.59048649590E+02  0.00000000000E+00 0. -1.
<scales pt_clust_5="13000.00000" pt_clust_6="13000.00000" pt_clust_7="13000.00000" pt_clust_8="13000.00000" pt_clust_9="45.73888"></scales>
<clustering>
<clus scale="   45.739">  1  9  2 -1</clus>
<clus scale="   80.425">  5  6 -1 -1</clus>
<clus scale="   89.305">  2  5  1 -1</clus>
<clus scale="   90.837">  7  8 -1 -1</clus>
<clus scale="   45.739">  1  5  2 -1</clus>
</clustering>
</event>
<event>
 9    1  0.9171696E-005  0.1446190E+03  0.7546771E-02  0.1209449E+00
         21   -1    0    0  501  502  0.00000000000E+00  0.00000000000E+00  0.47708480437E+02  0.47708480437E+02  0.00000000000E+00 0. -1.
          3   -1    0    0  502    0 -0.00000000000E+00 -0.00000000000E+00 -0.70749342868E+03  0.70749342868E+03  0.00000000000E+00 0. -1.
         23    2    1    2    0    0 -0.29996207598E+02 -0.11312013580E+03 -0.26546917075E+03  0.30387855385E+03  0.90401091122E+02 0.  0.
        -24    2    1    2    0    0  0.92176876952E+02  0.76887868100E+02 -0.22148417194E+03  0.26410696512E+03  0.79302772314E+02 0.  0.
         11    1    4    4    0    0  0.10391160819E+03  0.72889797492E+02 -0.17620049098E+03  0.21715698911E+03  0.00000000000E+00 0. -1.
        -12    1    4    4    0    0 -0.11734731243E+02  0.39980706083E+01 -0.45283680963E+02  0.46949976011E+02  0.00000000000E+00 0.  1.
        -11    1    3    3    0    0 -0.50131248537E+02 -0.40865972538E+02 -0.17373111231E+03  0.18537979711E+03  0.00000000000E+00 0. -1.
         11    1    3    3    0    0  0.20135040939E+02 -0.72254163264E+02 -0.91738058438E+02  0.11849875674E+03  0.00000000000E+00 0.  1.
          4    1    1    2  501    0 -0.62180669354E+02  0.36232267702E+02 -0.17283160556E+03  0.18721639016E+03  0.00000000000E+00 0. -1.
<scales pt_clust_5="13000.00000" pt_clust_6="13000.00000" pt_clust_7="13000.00000" pt_clust_8="13000.00000" pt_clust_9="71.96678"></scales>
<clustering>
<clus scale="   71.967">  1  9  2 -1</clus>
<clus scale="   79.303">  5  6 -1 -1</clus>
<clus scale="   90.401">  7  8 -1 -1</clus>
<clus scale="  137.954">  1  5  2 -1</clus>
<clus scale="   71.967">  1  5  2 -1</clus>
</clustering>
</event>
<event>
 9    1  0.9171696E-005  0.8291696E+02  0.7546771E-02  0.1321009E+00
         -4   -1    0    0    0  501 -0.00000000000E+00  0.00000000000E+00  0.93624178396E+02  0.93624178396E+02  0.00000000000E+00 0.  1.
         21   -1    0    0  501  502  0.00000000000E+00 -0.00000000000E+00 -0.23374456236E+03  0.23374456236E+03  0.00000000000E+00 0.  1.
         23    2    1    2    0    0 -0.60476926780E+01  0.52637945070E+00  0.21495600425E+02  0.85645475952E+02  0.82681527873E+02 0.  0.
        -24    2    1    2    0    0 -0.31948150907E+01  0.22247570088E+02 -0.18741259432E+03  0.20609263455E+03  0.82737731938E+02 0.  0.
         13    1    4    4    0    0 -0.83788309484E+01 -0.30983393548E+02 -0.64337513290E+02  0.71899173153E+02  0.00000000000E+00 0. -1.
        -14    1    4    4    0    0  0.51840158577E+01  0.53230963636E+02 -0.12307508103E+03  0.13419346140E+03  0.00000000000E+00 0.  1.
        -13    1    3    3    0    0 -0.13475128535E+00 -0.40964825711E+02  0.11750289433E+02  0.42616949740E+02  0.00000000000E+00 0.  1.
         13    1    3    3    0    0 -0.59129413927E+01  0.41491205161E+02  0.97453109916E+01  0.43028526212E+02  0.00000000000E+00 0. -1.
         -3    1    1    2    0  502  0.92425077687E+01 -0.22773949539E+02  0.25796609941E+02  0.35630630248E+02  0.00000000000E+00 0.  1.
<scales pt_clust_5="13000.00000" pt_clust_6="13000.00000" pt_clust_7="13000.00000" pt_clust_8="13000.00000" pt_clust_9="24.57798"></scales>
<clustering>
<clus scale="   24.578">  2  9  1 -1</clus>
<clus scale="   82.682">  7  8 -1 -1</clus>
<clus scale="   82.738">  5  6 -1 -1</clus>
<clus scale="   82.861">  1  7  2 -1</clus>
<clus scale="   24.578">  2  5  1 -1</clus>
</clustering>
</event>
<event>
 9    1  0.9171696E-005  0.1074324E+03  0.7546771E-02  0.1273179E+00
          1   -1    0    0  502    0 -0.00000000000E+00  0.00000000000E+00  0.53109652153E+03  0.53109652153E+03  0.00000000000E+00 0. -1.
         21   -1    0    0  501  502  0.00000000000E+00 -0.00000000000E+00 -0.47379630392E+02  0.47379630392E+02  0.00000000000E+00 0. -1.
         23    2    1    2    0    0  0.61134348520E+01 -0.41114497489E+02  0.25295907045E+03  0.26931066201E+03  0.82535842861E+02 0.  0.
        -24    2    1    2    0    0 -0.58697990044E+02 -0.36962736770E+02  0.73543949696E+02  0.12592414309E+03  0.75076489873E+02 0.  0.
         11    1    4    4    0    0 -0.20633777060E+02 -0.30862740968E+02 -0.59285810928E+01  0.37595340264E+02  0.00000000000E+00 0. -1.
        -12    1    4    4    0    0 -0.38064212984E+02 -0.60999958022E+01  0.79472530789E+02  0.88328802827E+02  0.00000000000E+00 0.  1.
        -13    1    3    3    0    0  0.28754234741E+02  0.14584290970E+02  0.92380311109E+02  0.97844925465E+02  0.00000000000E+00 0.  1.
         13    1    3    3    0    0 -0.22640799889E+02 -0.55698788458E+02  0.16057875934E+03  0.17146573654E+03  0.00000000000E+00 0. -1.
          2    1    1    2  501    0  0.52584555192E+02  0.78077234259E+02  0.15721387099E+03  0.18324134682E+03  0.00000000000E+00 0. -1.
<scales pt_clust_5="13000.00000" pt_clust_6="13000.00000" pt_clust_7="13000.00000" pt_clust_8="13000.00000" pt_clust_9="76.84561"></scales>
<clustering>
<clus scale="   75.076">  5  6 -1 -1</clus>
<clus scale="   82.536">  7  8 -1 -1</clus>
<clus scale="   92.412">  1  7  2 -1</clus>
<clus scale="   76.846">  2  9  1 -1</clus>
<clus scale="   76.846">  2  5  1 -1</clus>
</clustering>
</event>
<event>
 9    1  0.9171696E-005  0.9336152E+02  0.7546771E-02  0.1301486E+00
         21   -1    0    0  501  502  0.00000000000E+00  0.00000000000E+00  0.37425675103E+03  0.37425675103E+03  0.00000000000E+00 0. -1.
          1   -1    0    0  502    0 -0.00000000000E+00 -0.00000000000E+00 -0.52869847513E+02  0.52869847513E+02  0.00000000000E+00 0. -1.
        -24    2    1    2    0    0  0.14736504877E+02  0.11822390528E+02  0.64339696470E+02  0.10408399089E+03  0.79604944091E+02 0.  0.
         23    2    1    2    0    0 -0.77801444828E+01 -0.38833452352E+02  0.27337326815E+03  0.29072343869E+03  0.90656529803E+02 0.  0.
         11    1    3    3    0    0  0.42000915989E+02  0.16663207102E+02  0.61404375064E+02  0.76238026547E+02  0.00000000000E+00 0. -1.
        -12    1    3    3    0    0 -0.27264411112E+02 -0.48408165733E+01  0.29353214060E+01  0.27845964342E+02  0.00000000000E+00 0.  1.
        -13    1    4    4    0    0  0.12649814757E+02 -0.64316728672E+02  0.16528902919E+03  0.17781204282E+03  0.00000000000E+00 0. -1.
         13    1    4    4    0    0 -0.20429959239E+02  0.25483276321E+02  0.10808423896E+03  0.11291139588E+03  0.00000000000E+00 0.  1.
          2    1    1    2  501    0 -0.69563603938E+01  0.27011061823E+02 -0.16326061109E+02  0.32319168957E+02  0.00000000000E+00 0. -1.
<scales pt_clust_5="13000.00000" pt_clust_6="13000.00000" pt_clust_7="13000.00000" pt_clust_8="13000.00000" pt_clust_9="27.89246"></scales>
<clustering>
<clus scale="   27.892">  1  9  2 -1</clus>
<clus scale="   79.605">  5  6 -1 -1</clus>
<clus scale="   82.672">  2  5  1 -1</clus>
<clus scale="   90.657">  7  8 -1 -1</clus>
<clus scale="   27.892">  1  5  2 -1</clus>
</clustering>
</event>
<event>
 9    1  0.9171696E-005  0.1881176E+03  0.7546771E-02  0.1161151E+00
          1   -1    0    0  502    0 -0.00000000000E+00  0.00000000000E+00  0.13847615529E+04  0.13847615529E+04  0.00000000000E+00 0. -1.
         21   -1    0    0  501  502  0.00000000000E+00 -0.00000000000E+00 -0.42200267894E+02  0.42200267894E+02  0.00000000000E+00 0.  1.
        -24    2    1    2    0    0  0.15638215260E+03  0.42441346406E+02  0.55254493136E+03  0.58172351386E+03  0.82702478016E+02 0.  0.
         23    2    1    2    0    0 -0.17563165743E+03  0.41413275952E+02  0.43273426884E+03  0.47774323316E+03  0.91750263655E+02 0.  0.
         13    1    3    3    0    0  0.10090270211E+03  0.67030625626E+02  0.37718434109E+03  0.39615967391E+03  0.00000000000E+00 0. -1.
        -14    1    3    3    0    0  0.55479450489E+02 -0.24589279220E+02  0.17536059027E+03  0.18556383995E+03  0.00000000000E+00 0.  1.
        -11    1    4    4    0    0 -0.14349096724E+02  0.17078576544E+02  0.96451342553E+01  0.24302324341E+02  0.00000000000E+00 0. -1.
         11    1    4    4    0    0 -0.16128256070E+03  0.24334699409E+02  0.42308913459E+03  0.45344090882E+03  0.00000000000E+00 0.  1.
          2    1    1    2  501    0  0.19249504826E+02 -0.83854622359E+02  0.35728208477E+03  0.36749507374E+03  0.00000000000E+00 0. -1.
<scales pt_clust_5="13000.00000" pt_clust_6="13000.00000" pt_clust_7="13000.00000" pt_clust_8="13000.00000" pt_clust_9="86.03574"></scales>
<clustering>
<clus scale="   82.702">  5  6 -1 -1</clus>
<clus scale="   86.036">  2  9  1 -1</clus>
<clus scale="   91.750">  7  8 -1 -1</clus>
<clus scale="  183.875">  1  5  2 -1</clus>
<clus scale="   86.036">  2  5  1 -1</clus>
</clustering>
</event>
<event>
 9    1  0.9171696E-005  0.8638612E+02  0.7546771E-02  0.1320608E+00
         -4   -1    0    0    0  501 -0.00000000000E+00  0.00000000000E+00  0.44411363844E+03  0.44411363844E+03  0.00000000000E+00 0.  1.
         21   -1    0    0  501  502  0.00000000000E+00 -0.00000000000E+00 -0.62756671595E+02  0.62756671595E+02  0.00000000000E+00 0.  1.
        -24    2    1    2    0    0  0.27072518730E+02 -0.32651529073E+02  0.35773004304E+03  0.36909322654E+03  0.80374016722E+02 0.  0.
         23    2    1    2    0    0 -0.18016350335E+01 -0.24922604686E+02  0.23276469630E+02  0.74900050657E+02  0.66662143956E+02 0.  0.
         11    1    3    3    0    0 -0.96163359083E+01 -0.22370776245E+02  0.27741641952E+02  0.36912386055E+02  0.00000000000E+00 0. -1.
        -12    1    3    3    0    0  0.36688854638E+02 -0.10280752828E+02  0.32998840108E+03  0.33218084048E+03  0.00000000000E+00 0.  1.
        -11    1    4    4    0    0 -0.10457295754E+02  0.19965480404E+02  0.18073533772E+02  0.28889930171E+02  0.00000000000E+00 0. -1.
         11    1    4    4    0    0  0.86556607208E+01 -0.44888085090E+02  0.52029358581E+01  0.46010120486E+02  0.00000000000E+00 0.  1.
         -3    1    1    2    0  502 -0.25270883696E+02  0.57574133759E+02  0.35045418031E+00  0.62877032842E+02  0.00000000000E+00 0.  1.
<scales pt_clust_5="13000.00000" pt_clust_6="13000.00000" pt_clust_7="13000.00000" pt_clust_8="13000.00000" pt_clust_9="62.87606"></scales>
<clustering>
<clus scale="   62.876">  2  9  1 -1</clus>
<clus scale="   66.662">  7  8 -1 -1</clus>
<clus scale="   73.800">  2  7  1 -1</clus>
<clus scale="   80.374">  5  6 -1 -1</clus>
<clus scale="   62.876">  2  5  1 -1</clus>
</clustering>
</event>
<event>
 9    1  0.9171696E-005  0.1519994E+03  0.7546771E-02  0.1226244E+00
          1   -1    0    0  502    0 -0.00000000000E+00  0.00000000000E+00  0.83994407476E+03  0.83994407476E+03  0.00000000000E+00 0. -1.
         21   -1    0    0  501  502  0.00000000000E+00 -0.00000000000E+00 -0.11344472639E+03  0.11344472639E+03  0.00000000000E+00 0. -1.
         23    2    1    2    0    0  0.29895650956E+02 -0.64270239473E+01  0.18288903104E+02  0.85383026762E+02  0.77593303187E+02 0.  0.
        -24    2    1    2    0    0 -0.30816208833E+01  0.13154201761E+03  0.72278060734E+03  0.73922284278E+03  0.82011012429E+02 0.  0.
         11    1    4    4    0    0  0.25895689120E+02  0.12074548742E+03  0.54958880408E+03  0.56329203173E+03  0.00000000000E+00 0. -1.
        -12    1    4    4    0    0 -0.28977310003E+02  0.10796530197E+02  0.17319180326E+03  0.17593081105E+03  0.00000000000E+00 0.  1.
        -11    1    3    3    0    0  0.56155412690E+02 -0.18804416201E+00  0.15456695193E+02  0.58244099798E+02  0.00000000000E+00 0. -1.
         11    1    3    3    0    0 -0.26259761734E+02 -0.62389797853E+01  0.28322079106E+01  0.27138926964E+02  0.00000000000E+00 0.  1.
          2    1    1    2  501    0 -0.26814030072E+02 -0.12511499367E+03 -0.14570162077E+02  0.12878293160E+03  0.00000000000E+00 0. -1.
<scales pt_clust_5="13000.00000" pt_clust_6="13000.00000" pt_clust_7="13000.00000" pt_clust_8="13000.00000" pt_clust_9="127.97666"></scales>
<clustering>
<clus scale="   77.593">  7  8 -1 -1</clus>
<clus scale="   82.011">  5  6 -1 -1</clus>
<clus scale="   83.401">  1  7  2 -1</clus>
<clus scale="  127.977">  2  9  1 -1</clus>
<clus scale="  127.977">  2  5  1 -1</clus>
</clustering>
</event>
<event>
 9    1  0.9171696E-005  0.1252861E+03  0.7546771E-02  0.1237002E+00
         21   -1    0    0  501  502  0.00000000000E+00  0.00000000000E+00  0.10658346678E+03  0.10658346678E+03  0.00000000000E+00 0.  1.
          1   -1    0    0  502    0 -0.00000000000E+00 -0.00000000000E+00 -0.72660845734E+03  0.72660845734E+03  0.00000000000E+00 0. -1.
        -24    2    1    2    0    0 -0.64274692628E+02  0.61703302441E+02 -0.54144403313E+03  0.55505205347E+03  0.83561997351E+02 0.  0.
         23    2    1    2    0    0 -0.14399860756E+02 -0.10141750623E+03 -0.11831705086E+03  0.18146588008E+03  0.91858992745E+02 0.  0.
         11    1    3    3    0    0 -0.22057098265E+01  0.34747683115E+02 -0.64192911971E+02  0.73027368739E+02  0.00000000000E+00 0. -1.
        -12    1    3    3    0    0 -0.62068982802E+02  0.26955619326E+02 -0.47725112116E+03  0.48202468473E+03  0.00000000000E+00 0.  1.
        -13    1    4    4    0    0 -0.19586947562E+01 -0.84877993437E+02 -0.28899467897E+02  0.89684388273E+02  0.00000000000E+00 0.  1.
         13    1    4    4    0    0 -0.12441166000E+02 -0.16539512795E+02 -0.89417582964E+02  0.91781491806E+02  0.00000000000E+00 0. -1.
          2    1    1    2  501    0  0.78674553384E+02  0.39714203791E+02  0.39736093427E+02  0.96673990576E+02  0.00000000000E+00 0. -1.
<scales pt_clust_5="13000.00000" pt_clust_6="13000.00000" pt_clust_7="13000.00000" pt_clust_8="13000.00000" pt_clust_9="88.13004"></scales>
<clustering>
<clus scale="   83.562">  5  6 -1 -1</clus>
<clus scale="   88.130">  1  9  2 -1</clus>
<clus scale="   91.859">  7  8 -1 -1</clus>
<clus scale="  119.336">  2  5  1 -1</clus>
<clus scale="   88.130">  1  5  2 -1</clus>
</clustering>
</event>
<event>
 9    1  0.9171696E-005  0.1999795E+03  0.7546771E-02  0.1151357E+00
          1   -1    0    0  502    0 -0.00000000000E+00  0.00000000000E+00  0.72054353926E+03  0.72054353926E+03  0.00000000000E+00 0. -1.
         21   -1    0    0  501  502  0.00000000000E+00 -0.00000000000E+00 -0.12336028488E+03  0.12336028488E+03  0.00000000000E+00 0. -1.
         23    2    1    2    0    0 -0.17535551030E+03  0.20800775506E+02  0.56109382271E+03  0.59627713322E+03  0.97662246848E+02 0.  0.
        -24    2    1    2    0    0  0.16360858536E+03  0.25430945131E+01 -0.21875838184E+02  0.18404289564E+03  0.81357228362E+02 0.  0.
         11    1    4    4    0    0  0.17187603788E+03  0.37111198149E+01 -0.27322718575E+02  0.17407376528E+03  0.00000000000E+00 0. -1.
        -12    1    4    4    0    0 -0.82674525183E+01 -0.11680253018E+01  0.54468803917E+01  0.99691303657E+01  0.00000000000E+00 0.  1.
        -13    1    3    3    0    0 -0.66875434314E+02  0.25584177282E+02  0.36657841516E+03  0.37350583436E+03  0.00000000000E+00 0.  1.
         13    1    3    3    0    0 -0.10848007599E+03 -0.47834017758E+01  0.19451540755E+03  0.22277129886E+03  0.00000000000E+00 0. -1.
          2    1    1    2  501    0  0.11746924945E+02 -0.23343870019E+02  0.57965269856E+02  0.63583795283E+02  0.00000000000E+00 0. -1.
<scales pt_clust_5="13000.00000" pt_clust_6="13000.00000" pt_clust_7="13000.00000" pt_clust_8="13000.00000" pt_clust_9="26.13288"></scales>
<clustering>
<clus scale="   26.133">  2  9  1 -1</clus>
<clus scale="   81.357">  5  6 -1 -1</clus>
<clus scale="   97.662">  7  8 -1 -1</clus>
<clus scale="  192.543">  2  5  1 -1</clus>
<clus scale="   26.133">  2  5  1 -1</clus>
</clustering>
</event>
<event>
 9    1  0.9171696E-005  0.1006938E+03  0.7546771E-02  0.1284343E+00
          1   -1    0    0  502    0 -0.00000000000E+00  0.00000000000E+00  0.99496623876E+03  0.99496623876E+03  0.00000000000E+00 0. -1.
         21   -1    0    0  501  502  0.00000000000E+00 -0.00000000000E+00 -0.17281043969E+02  0.17281043969E+02  0.00000000000E+00 0. -1.
        -24    2    1    2    0    0  0.17433533853E+02  0.33523857101E+02  0.63313481241E+03  0.63926074112E+03  0.79792401646E+02 0.  0.
         23    2    1    2    0    0 -0.42902014234E+02 -0.43937261991E+02  0.30974463264E+03  0.32861850458E+03  0.90979768562E+02 0.  0.
         11    1    3    3    0    0 -0.18794894408E+02 -0.93615771542E+01  0.63836086486E+02  0.67200692857E+02  0.00000000000E+00 0. -1.
        -12    1    3    3    0    0  0.36228428260E+02  0.42885434255E+02  0.56929872592E+03  0.57206004826E+03  0.00000000000E+00 0.  1.
        -11    1    4    4    0    0 -0.21094262610E+02  0.27626794550E+02  0.10752116421E+03  0.11300003737E+03  0.00000000000E+00 0.  1.
         11    1    4    4    0    0 -0.21807751624E+02 -0.71564056541E+02  0.20222346843E+03  0.21561846722E+03  0.00000000000E+00 0. -1.
          2    1    1    2  501    0  0.25468480382E+02  0.10413404890E+02  0.34805749745E+02  0.44368037027E+02  0.00000000000E+00 0. -1.
<scales pt_clust_5="13000.00000" pt_clust_6="13000.00000" pt_clust_7="13000.00000" pt_clust_8="13000.00000" pt_clust_9="27.51513"></scales>
<clustering>
<clus scale="   27.515">  2  9  1 -1</clus>
<clus scale="   79.792">  5  6 -1 -1</clus>
<clus scale="   90.712">  1  5  2 -1</clus>
<clus scale="   90.980">  7  8 -1 -1</clus>
<clus scale="   27.515">  2  5  1 -1</clus>
</clustering>
</event>
<event>
 9    1  0.9171696E-005  0.1141694E+03  0.7546771E-02  0.1256920E+00
          3   -1    0    0  502    0 -0.00000000000E+00  0.00000000000E+00  0.36917935492E+03  0.36917935492E+03  0.00000000000E+00 0. -1.
         21   -1    0    0  501  502  0.00000000000E+00 -0.00000000000E+00 -0.10900326447E+03  0.10900326447E+03  0.00000000000E+00 0.  1.
         23    2    1    2    0    0 -0.41200859970E+02 -0.53181266508E+02  0.18595343544E+03  0.21792217332E+03  0.91573115599E+02 0.  0.
        -24    2    1    2    0    0  0.61310776895E+02  0.44779200609E+02 -0.58780610582E+02  0.12548332589E+03  0.80788097666E+02 0.  0.
         13    1    4    4    0    0  0.11340957089E+02 -0.23550750980E+02 -0.15824658486E+02  0.30556095883E+02  0.00000000000E+00 0. -1.
        -14    1    4    4    0    0  0.49969819805E+02  0.68329951589E+02 -0.42955952096E+02  0.94927230003E+02  0.00000000000E+00 0.  1.
        -11    1    3    3    0    0 -0.61893648647E+02 -0.43925018349E+02  0.82858405671E+02  0.11236434653E+03  0.00000000000E+00 0.  1.
         11    1    3    3    0    0  0.20692788677E+02 -0.92562481592E+01  0.10309502977E+03  0.10555782679E+03  0.00000000000E+00 0. -1.
          4    1    1    2  501    0 -0.20109916925E+02  0.84020658992E+01  0.13300326559E+03  0.13477712019E+03  0.00000000000E+00 0. -1.
<scales pt_clust_5="13000.00000" pt_clust_6="13000.00000" pt_clust_7="13000.00000" pt_clust_8="13000.00000" pt_clust_9="21.79459"></scales>
<clustering>
<clus scale="   21.795">  2  9  1 -1</clus>
<clus scale="   80.788">  5  6 -1 -1</clus>
<clus scale="   91.573">  7  8 -1 -1</clus>
<clus scale="  105.715">  2  5  1 -1</clus>
<clus scale="   21.795">  2  5  1 -1</clus>
</clustering>
</event>
<event>
 9    1  0.9171696E-005  0.1019824E+03  0.7546771E-02  0.1282799E+00
         -2   -1    0    0    0  501 -0.00000000000E+00  0.00000000000E+00  0.45508594096E+03  0.45508594096E+03  0.00000000000E+00 0.  1.
         21   -1    0    0  501  502  0.00000000000E+00 -0.00000000000E+00 -0.50352650868E+02  0.50352650868E+02  0.00000000000E+00 0.  1.
        -24    2    1    2    0    0  0.46225078372E+02  0.24095806183E+02  0.19905414020E+03  0.22085607141E+03  0.80233956649E+02 0.  0.
         23    2    1    2    0    0 -0.22339065508E+01 -0.67274929765E+00  0.24606971185E+02  0.96776778514E+02  0.93567082345E+02 0.  0.
         11    1    3    3    0    0  0.24775994137E+02 -0.20454541919E+02  0.27409708475E+02  0.42231863436E+02  0.00000000000E+00 0. -1.
        -12    1    3    3    0    0  0.21449084235E+02  0.44550348102E+02  0.17164443173E+03  0.17862420797E+03  0.00000000000E+00 0.  1.
        -13    1    4    4    0    0  0.49440899264E+01 -0.27103046476E+02  0.51491699802E+02  0.58398752572E+02  0.00000000000E+00 0. -1.
         13    1    4    4    0    0 -0.71779964773E+01  0.26430297178E+02 -0.26884728617E+02  0.38378025942E+02  0.00000000000E+00 0.  1.
         -1    1    1    2    0  502 -0.43991171821E+02 -0.23423056886E+02  0.18107217870E+03  0.18780574191E+03  0.00000000000E+00 0.  1.
<scales pt_clust_5="13000.00000" pt_clust_6="13000.00000" pt_clust_7="13000.00000" pt_clust_8="13000.00000" pt_clust_9="49.83839"></scales>
<clustering>
<clus scale="   49.838">  2  9  1 -1</clus>
<clus scale="   80.234">  5  6 -1 -1</clus>
<clus scale="   89.906">  1  5  2 -1</clus>
<clus scale="   93.567">  7  8 -1 -1</clus>
<clus scale="   49.838">  2  5  1 -1</clus>
</clustering>
</event>
<event>
 9    1  0.9171696E-005  0.1359511E+03  0.7546771E-02  0.1220968E+00
         21   -1    0    0  501  502  0.00000000000E+00  0.00000000000E+00  0.95053412001E+02  0.95053412001E+02  0.00000000000E+00 0. -1.
          1   -1    0    0  502    0 -0.00000000000E+00 -0.00000000000E+00 -0.55979699515E+03  0.55979699515E+03  0.00000000000E+00 0. -1.
        -24    2    1    2    0    0 -0.72760768073E+02 -0.91725652213E+02 -0.43308482219E+03  0.45607720416E+03  0.82074528942E+02 0.  0.
         23    2    1    2    0    0  0.51212053879E+01  0.28024038041E+02  0.11967751635E+02  0.96126826096E+02  0.91025085353E+02 0.  0.
         13    1    3    3    0    0 -0.83031808561E+02 -0.88229273800E+02 -0.42652486052E+03  0.44339840170E+03  0.00000000000E+00 0. -1.
        -14    1    3    3    0    0  0.10271040488E+02 -0.34963784135E+01 -0.65599616633E+01  0.12678802457E+02  0.00000000000E+00 0.  1.
        -13    1    4    4    0    0  0.27907245539E+02 -0.14690174620E+02 -0.20699939255E+02  0.37724038346E+02  0.00000000000E+00 0.  1.
         13    1    4    4    0    0 -0.22786040151E+02  0.42714212661E+02  0.32667690889E+02  0.58402787751E+02  0.00000000000E+00 0. -1.
          2    1    1    2  501    0  0.67639562685E+02  0.63701614173E+02 -0.43626512597E+02  0.10264637690E+03  0.00000000000E+00 0. -1.
<scales pt_clust_5="13000.00000" pt_clust_6="13000.00000" pt_clust_7="13000.00000" pt_clust_8="13000.00000" pt_clust_9="92.91397"></scales>
<clustering>
<clus scale="   82.075">  5  6 -1 -1</clus>
<clus scale="   91.025">  7  8 -1 -1</clus>
<clus scale="   92.914">  1  9  2 -1</clus>
<clus scale="  130.128">  2  5  1 -1</clus>
<clus scale="   92.914">  1  5  2 -1</clus>
</clustering>
</event>
<event>
 9    1  0.9171696E-005  0.1405017E+03  0.7546771E-02  0.1214804E+00
         21   -1    0    0  501  502  0.00000000000E+00  0.00000000000E+00  0.84183789634E+02  0.84183789634E+02  0.00000000000E+00 0. -1.
          1   -1    0    0  502    0 -0.00000000000E+00 -0.00000000000E+00 -0.35507357348E+03  0.35507357348E+03  0.00000000000E+00 0. -1.
        -24    2    1    2    0    0  0.22782233943E+02 -0.11369420649E+03 -0.19922118593E+03  0.24405067783E+03  0.80163892454E+02 0.  0.
         23    2    1    2    0    0  0.29736531622E+01  0.96336954987E+02 -0.89381611715E+02  0.15945209455E+03  0.90256558962E+02 0.  0.
         11    1    3    3    0    0 -0.10935990472E+02 -0.21651942519E+02 -0.10613020457E+03  0.10886699603E+03  0.00000000000E+00 0. -1.
        -12    1    3    3    0    0  0.33718224415E+02 -0.92042263974E+02 -0.93090981363E+02  0.13518368180E+03  0.00000000000E+00 0.  1.
        -13    1    4    4    0    0 -0.27004324784E+02  0.86406151160E+02 -0.35988477472E+02  0.97418822750E+02  0.00000000000E+00 0.  1.
         13    1    4    4    0    0  0.29977977946E+02  0.99308038267E+01 -0.53393134243E+02  0.62033271804E+02  0.00000000000E+00 0. -1.
          2    1    1    2  501    0 -0.25755887105E+02  0.17357251506E+02  0.17713013798E+02  0.35754590729E+02  0.00000000000E+00 0. -1.
<scales pt_clust_5="13000.00000" pt_clust_6="13000.00000" pt_clust_7="13000.00000" pt_clust_8="13000.00000" pt_clust_9="31.05865"></scales>
<clustering>
<clus scale="   31.059">  1  9  2 -1</clus>
<clus scale="   80.164">  5  6 -1 -1</clus>
<clus scale="   90.257">  7  8 -1 -1</clus>
<clus scale="  134.241">  2  5  1 -1</clus>
<clus scale="   31.059">  1  5  2 -1</clus>
</clustering>
</event>
<event>
 9    1  0.9171696E-005  0.2903912E+03  0.7546771E-02  0.1109182E+00
          1   -1    0    0  502    0 -0.00000000000E+00  0.00000000000E+00  0.69980119017E+03  0.69980119017E+03  0.00000000000E+00 0. -1.
         21   -1    0    0  501  502  0.00000000000E+00 -0.00000000000E+00 -0.21298359406E+03  0.21298359406E+03  0.00000000000E+00 0. -1.
         23    2    1    2    0    0  0.78105744203E+02  0.12846324840E+03  0.14978903584E+03  0.23198169072E+03  0.93677297712E+02 0.  0.
        -24    2    1    2    0    0 -0.14685214235E+03  0.18765789159E+03  0.22803344284E+03  0.33942562203E+03  0.80183950067E+02 0.  0.
         11    1    4    4    0    0 -0.12417448892E+03  0.15738012149E+03  0.22518489728E+03  0.30148970845E+03  0.00000000000E+00 0. -1.
        -12    1    4    4    0    0 -0.22677653434E+02  0.30277770103E+02  0.28485455627E+01  0.37935913585E+02  0.00000000000E+00 0.  1.
        -13    1    3    3    0    0 -0.18643552962E+02  0.83523564181E+01  0.31793159212E+02  0.37790857327E+02  0.00000000000E+00 0. -1.
         13    1    3    3    0    0  0.96749297166E+02  0.12011089198E+03  0.11799587663E+03  0.19419083340E+03  0.00000000000E+00 0.  1.
          2    1    1    2  501    0  0.68746398148E+02 -0.31612113999E+03  0.10899511742E+03  0.34137747147E+03  0.00000000000E+00 0. -1.
<scales pt_clust_5="13000.00000" pt_clust_6="13000.00000" pt_clust_7="13000.00000" pt_clust_8="13000.00000" pt_clust_9="279.10140"></scales>
<clustering>
<clus scale="   80.184">  5  6 -1 -1</clus>
<clus scale="   93.677">  7  8 -1 -1</clus>
<clus scale="  177.140">  1  7  2 -1</clus>
<clus scale="  279.101">  2  9  1 -1</clus>
<clus scale="  279.101">  2  5  1 -1</clus>
</clustering>
</event>
<event>
 9    1  0.9171696E-005  0.1598622E+03  0.7546771E-02  0.1190364E+00
         21   -1    0    0  501  502  0.00000000000E+00  0.00000000000E+00  0.29500507096E+02  0.29500507096E+02  0.00000000000E+00 0. -1.
          1   -1    0    0  502    0 -0.00000000000E+00 -0.00000000000E+00 -0.13123634145E+04  0.13123634145E+04  0.00000000000E+00 0. -1.
        -24    2    1    2    0    0  0.54710390234E+02 -0.12812612659E+03 -0.81652832132E+03  0.83232510270E+03  0.81468067019E+02 0.  0.
         23    2    1    2    0    0 -0.36904550222E+02  0.11393776761E+03 -0.46262410900E+03  0.48647098176E+03  0.91044984217E+02 0.  0.
         11    1    3    3    0    0  0.73371099164E+02 -0.97139300452E+02 -0.69295110444E+03  0.70356278684E+03  0.00000000000E+00 0. -1.
        -12    1    3    3    0    0 -0.18660708930E+02 -0.30986826139E+02 -0.12357721689E+03  0.12876231586E+03  0.00000000000E+00 0.  1.
        -11    1    4    4    0    0  0.76091129571E+01  0.97860712865E+02 -0.24859573758E+03  0.26727225533E+03  0.00000000000E+00 0.  1.
         11    1    4    4    0    0 -0.44513663179E+02  0.16077054745E+02 -0.21402837141E+03  0.21919872643E+03  0.00000000000E+00 0. -1.
          2    1    1    2  501    0 -0.17805840011E+02  0.14188358982E+02 -0.37104770571E+01  0.23067837114E+02  0.00000000000E+00 0. -1.
<scales pt_clust_5="13000.00000" pt_clust_6="13000.00000" pt_clust_7="13000.00000" pt_clust_8="13000.00000" pt_clust_9="22.76747"></scales>
<clustering>
<clus scale="   22.767">  1  9  2 -1</clus>
<clus scale="   81.468">  5  6 -1 -1</clus>
<clus scale="   91.045">  7  8 -1 -1</clus>
<clus scale="  154.608">  2  5  1 -1</clus>
<clus scale="   22.767">  1  5  2 -1</clus>
</clustering>
</event>
<event>
 9    1  0.9171696E-005  0.1035347E+03  0.7546771E-02  0.1285299E+00
         21   -1    0    0  501  502  0.00000000000E+00  0.00000000000E+00  0.15312432504E+03  0.15312432504E+03  0.00000000000E+00 0.  1.
          1   -1    0    0  502    0 -0.00000000000E+00 -0.00000000000E+00 -0.18275562082E+03  0.18275562082E+03  0.00000000000E+00 0. -1.
         23    2    1    2    0    0  0.15281721060E+02  0.56367696105E+01 -0.14063011698E+03  0.17437425823E+03  0.10180495057E+03 0.  0.
        -24    2    1    2    0    0 -0.22369662603E+02 -0.25783436205E+02  0.57979192309E+02  0.10434619028E+03  0.79758092359E+02 0.  0.
         13    1    4    4    0    0  0.26495263719E+01 -0.43879809040E+02  0.66707007825E+01  0.44462972013E+02  0.00000000000E+00 0. -1.
        -14    1    4    4    0    0 -0.25019188975E+02  0.18096372834E+02  0.51308491526E+02  0.59883218262E+02  0.00000000000E+00 0.  1.
        -11    1    3    3    0    0 -0.11291580173E+02  0.35714830504E+02 -0.11548746355E+02  0.39197224942E+02  0.00000000000E+00 0.  1.
         11    1    3    3    0    0  0.26573301233E+02 -0.30078060894E+02 -0.12908137063E+03  0.13517703329E+03  0.00000000000E+00 0. -1.
          2    1    1    2  501    0  0.70879415427E+01  0.20146666595E+02  0.53019628891E+02  0.57159497356E+02  0.00000000000E+00 0. -1.
<scales pt_clust_5="13000.00000" pt_clust_6="13000.00000" pt_clust_7="13000.00000" pt_clust_8="13000.00000" pt_clust_9="21.35713"></scales>
<clustering>
<clus scale="   21.357">  1  9  2 -1</clus>
<clus scale="   79.758">  5  6 -1 -1</clus>
<clus scale="   81.954">  1  5  2 -1</clus>
<clus scale="  101.805">  7  8 -1 -1</clus>
<clus scale="   21.357">  1  5  2 -1</clus>
</clustering>
</event>
<event>
 9    1  0.9171696E-005  0.1027085E+03  0.7546771E-02  0.1280313E+00
          3   -1    0    0  502    0 -0.00000000000E+00  0.00000000000E+00  0.62307654703E+02  0.62307654703E+02  0.00000000000E+00 0. -1.
         21   -1    0    0  501  502  0.00000000000E+00 -0.00000000000E+00 -0.35794042166E+03  0.35794042166E+03  0.00000000000E+00 0. -1.
         23    2    1    2    0    0  0.19604727511E+02  0.69436335564E+02 -0.12414661266E+03  0.16997704232E+03  0.90961879061E+02 0.  0.
        -24    2    1    2    0    0 -0.20478306411E+02 -0.10889551310E+02 -0.17312147767E+03  0.19169490094E+03  0.78980666343E+02 0.  0.
         13    1    4    4    0    0 -0.52478989942E+01 -0.43318693535E+02 -0.69584832322E+02  0.82134636681E+02  0.00000000000E+00 0. -1.
        -14    1    4    4    0    0 -0.15230407417E+02  0.32429142224E+02 -0.10353664535E+03  0.10956026426E+03  0.00000000000E+00 0.  1.
        -13    1    3    3    0    0 -0.21065032889E+02  0.65231138558E+02 -0.48443116108E+02  0.83937908876E+02  0.00000000000E+00 0. -1.
         13    1    3    3    0    0  0.40669760400E+02  0.42051970062E+01 -0.75703496556E+02  0.86039133443E+02  0.00000000000E+00 0.  1.
          4    1    1    2  501    0  0.87357889977E+00 -0.58546784254E+02  0.16353233759E+01  0.58576133101E+02  0.00000000000E+00 0. -1.
<scales pt_clust_5="13000.00000" pt_clust_6="13000.00000" pt_clust_7="13000.00000" pt_clust_8="13000.00000" pt_clust_9="58.55333"></scales>
<clustering>
<clus scale="   58.553">  2  9  1 -1</clus>
<clus scale="   78.981">  5  6 -1 -1</clus>
<clus scale="   90.962">  7  8 -1 -1</clus>
<clus scale="   92.265">  2  5  1 -1</clus>
<clus scale="   58.553">  2  5  1 -1</clus>
</clustering>
</event>
<event>
 9    1  0.1255224E-004  0.1698954E+03  0.7546771E-02  0.1179703E+00
         -2   -1    0    0    0  501 -0.00000000000E+00  0.00000000000E+00  0.85904462869E+03  0.85904462869E+03  0.00000000000E+00 0.  1.
         21   -1    0    0  501  502  0.00000000000E+00 -0.00000000000E+00 -0.22636599224E+03  0.22636599224E+03  0.00000000000E+00 0. -1.
        -24    2    1    2    0    0 -0.43969453901E+02 -0.14065530086E+03  0.77977908550E+03  0.79763903298E+03  0.80345368334E+02 0.  0.
         23    2    1    2    0    0 -0.43715454013E+02  0.73177847200E+02 -0.11949556995E+03  0.17373703538E+03  0.92947985366E+02 0.  0.
         11    1    3    3    0    0 -0.32513852933E+02 -0.65574613873E+01  0.16496778568E+03  0.16826919280E+03  0.00000000000E+00 0. -1.
        -12    1    3    3    0    0 -0.11455600968E+02 -0.13409783947E+03  0.61481129982E+03  0.62936984019E+03  0.00000000000E+00 0.  1.
        -11    1    4    4    0    0 -0.29048152957E+02  0.27149600194E+02 -0.11895637761E+03  0.12542533937E+03  0.00000000000E+00 0. -1.
         11    1    4    4    0    0 -0.14667301056E+02  0.46028247006E+02 -0.53919233534E+00  0.48311696007E+02  0.00000000000E+00 0.  1.
         -1    1    1    2    0  502  0.87684907914E+02  0.67477453662E+02 -0.27604879111E+02  0.11403455257E+03  0.00000000000E+00 0.  1.
<scales pt_clust_5="13000.00000" pt_clust_6="13000.00000" pt_clust_7="13000.00000" pt_clust_8="13000.00000" pt_clust_9="110.64289"></scales>
<clustering>
<clus scale="   80.345">  5  6 -1 -1</clus>
<clus scale="   92.948">  7  8 -1 -1</clus>
<clus scale="  110.643">  2  9  1 -1</clus>
<clus scale="  163.342">  1  5  2 -1</clus>
<clus scale="  110.643">  2  5  1 -1</clus>
</clustering>
</event>
<event>
 9    1  0.9171696E-005  0.1969596E+03  0.7546771E-02  0.1189183E+00
         21   -1    0    0  501  502  0.00000000000E+00  0.00000000000E+00  0.28159547639E+02  0.28159547639E+02  0.00000000000E+00 0. -1.
          1   -1    0    0  502    0 -0.00000000000E+00 -0.00000000000E+00 -0.20031727924E+04  0.20031727924E+04  0.00000000000E+00 0. -1.
        -24    2    1    2    0    0  0.18868190317E+02  0.86110800203E+01 -0.63741971820E+03  0.64304296192E+03  0.82281191166E+02 0.  0.
         23    2    1    2    0    0  0.12214642004E+03 -0.11761272659E+03 -0.67475057777E+03  0.70190227593E+03  0.92876053814E+02 0.  0.
         11    1    3    3    0    0  0.16528988734E+02 -0.31836748345E+02 -0.16321039681E+03  0.16710601318E+03  0.00000000000E+00 0. -1.
        -12    1    3    3    0    0  0.23392015824E+01  0.40447828366E+02 -0.47420932138E+03  0.47593694874E+03  0.00000000000E+00 0.  1.
        -13    1    4    4    0    0  0.55955136189E+02 -0.65261689533E+02 -0.17385747966E+03  0.19394970642E+03  0.00000000000E+00 0. -1.
         13    1    4    4    0    0  0.66191283850E+02 -0.52351037055E+02 -0.50089309811E+03  0.50795256951E+03  0.00000000000E+00 0.  1.
          2    1    1    2  501    0 -0.14101461036E+03  0.10900164657E+03 -0.66284294879E+03  0.68638710219E+03  0.00000000000E+00 0. -1.
<scales pt_clust_5="13000.00000" pt_clust_6="13000.00000" pt_clust_7="13000.00000" pt_clust_8="13000.00000" pt_clust_9="173.68694"></scales>
<clustering>
<clus scale="   82.281">  5  6 -1 -1</clus>
<clus scale="   84.855">  2  5  1 -1</clus>
<clus scale="   92.876">  7  8 -1 -1</clus>
<clus scale="  173.687">  1  9  2 -1</clus>
<clus scale="  173.687">  1  5  2 -1</clus>
</clustering>
</event>
<event>
 9    1  0.9171696E-005  0.1279407E+03  0.7546771E-02  0.1234714E+00
         -2   -1    0    0    0  501 -0.00000000000E+00  0.00000000000E+00  0.18314292558E+03  0.18314292558E+03  0.00000000000E+00 0.  1.
         21   -1    0    0  501  502  0.00000000000E+00 -0.00000000000E+00 -0.18389569551E+03  0.18389569551E+03  0.00000000000E+00 0. -1.
        -24    2    1    2    0    0  0.88040101774E+02 -0.81160423259E+01  0.10822702834E+03  0.15957427597E+03  0.77032007796E+02 0.  0.
         23    2    1    2    0    0 -0.86726550328E+02  0.33071752365E+02 -0.12231768062E+03  0.17913746765E+03  0.92267990051E+02 0.  0.
         13    1    3    3    0    0  0.71196613345E+02 -0.23434889608E+02  0.34688736947E+02  0.82592132033E+02  0.00000000000E+00 0. -1.
        -14    1    3    3    0    0  0.16843488429E+02  0.15318847282E+02  0.73538291391E+02  0.76982143938E+02  0.00000000000E+00 0.  1.
        -11    1    4    4    0    0 -0.15871514497E+02  0.52551955430E+02 -0.35406038129E+02  0.65323812870E+02  0.00000000000E+00 0.  1.
         11    1    4    4    0    0 -0.70855035831E+02 -0.19480203065E+02 -0.86911642494E+02  0.11381365478E+03  0.00000000000E+00 0. -1.
         -1    1    1    2    0  502 -0.13135514454E+01 -0.24955710039E+02  0.13337882362E+02  0.28326877464E+02  0.00000000000E+00 0.  1.
<scales pt_clust_5="13000.00000" pt_clust_6="13000.00000" pt_clust_7="13000.00000" pt_clust_8="13000.00000" pt_clust_9="24.99027"></scales>
<clustering>
<clus scale="   24.990">  2  9  1 -1</clus>
<clus scale="   77.032">  5  6 -1 -1</clus>
<clus scale="   92.268">  7  8 -1 -1</clus>
<clus scale="  117.428">  1  5  2 -1</clus>
<clus scale="   24.990">  2  5  1 -1</clus>
</clustering>
</event>
<event>
 9    1  0.9171696E-005  0.1252516E+03  0.7546771E-02  0.1237491E+00
         -4   -1    0    0    0  501 -0.00000000000E+00  0.00000000000E+00  0.13170183065E+03  0.13170183065E+03  0.00000000000E+00 0.  1.
         21   -1    0    0  501  502  0.00000000000E+00 -0.00000000000E+00 -0.30041999025E+03  0.30041999025E+03  0.00000000000E+00 0.  1.
         23    2    1    2    0    0  0.63145207367E+02 -0.20905917565E+02 -0.10298145161E+02  0.11367982526E+03  0.91611550993E+02 0.  0.
        -24    2    1    2    0    0 -0.14304973721E+03 -0.45171826451E+02 -0.11545144253E+03  0.20620430003E+03  0.81776870484E+02 0.  0.
         11    1    4    4    0    0 -0.35766640278E+02 -0.38072776947E+02 -0.74849753553E+02  0.91275815572E+02  0.00000000000E+00 0. -1.
        -12    1    4    4    0    0 -0.10728309693E+03 -0.70990495031E+01 -0.40601688977E+02  0.11492848446E+03  0.00000000000E+00 0.  1.
        -11    1    3    3    0    0  0.23484217879E+02  0.34114701960E+02  0.10519860072E+02  0.42731590599E+02  0.00000000000E+00 0. -1.
         11    1    3    3    0    0  0.39660989488E+02 -0.55020619525E+02 -0.20818005233E+02  0.70948234664E+02  0.00000000000E+00 0.  1.
         -3    1    1    2    0  502  0.79904529846E+02  0.66077744016E+02 -0.42968571907E+02  0.11223769561E+03  0.00000000000E+00 0.  1.
<scales pt_clust_5="13000.00000" pt_clust_6="13000.00000" pt_clust_7="13000.00000" pt_clust_8="13000.00000" pt_clust_9="103.68709"></scales>
<clustering>
<clus scale="   81.777">  5  6 -1 -1</clus>
<clus scale="   91.612">  7  8 -1 -1</clus>
<clus scale="  103.687">  2  9  1 -1</clus>
<clus scale="  118.249">  2  5  1 -1</clus>
<clus scale="  103.687">  2  5  1 -1</clus>
</clustering>
</event>
<event>
 9    1  0.9171696E-005  0.9516528E+02  0.7546771E-02  0.1297914E+00
          1   -1    0    0  502    0 -0.00000000000E+00  0.00000000000E+00  0.69501323446E+02  0.69501323446E+02  0.00000000000E+00 0. -1.
         21   -1    0    0  501  502  0.00000000000E+00 -0.00000000000E+00 -0.15852976526E+03  0.15852976526E+03  0.00000000000E+00 0.  1.
         23    2    1    2    0    0  0.19192642190E+02  0.24868720058E+02 -0.12130472266E+02  0.97735625649E+02  0.91751258368E+02 0.  0.
        -24    2    1    2    0    0 -0.20393050518E+02 -0.20621618979E+01 -0.64007512946E+02  0.10407059039E+03  0.79458146524E+02 0.  0.
         11    1    4    4    0    0 -0.31400154123E+02  0.66635107490E+01  0.60107679883E+01  0.32657332810E+02  0.00000000000E+00 0. -1.
        -12    1    4    4    0    0  0.11007103605E+02 -0.87256726468E+01 -0.70018280934E+02  0.71413257578E+02  0.00000000000E+00 0.  1.
        -13    1    3    3    0    0 -0.28437432186E+02  0.67265463367E+01 -0.31723302282E+02  0.43131217032E+02  0.00000000000E+00 0.  1.
         13    1    3    3    0    0  0.47630074376E+02  0.18142173721E+02  0.19592830016E+02  0.54604408617E+02  0.00000000000E+00 0. -1.
          2    1    1    2  501    0  0.12004083282E+01 -0.22806558160E+02 -0.12890456607E+02  0.26224872675E+02  0.00000000000E+00 0. -1.
<scales pt_clust_5="13000.00000" pt_clust_6="13000.00000" pt_clust_7="13000.00000" pt_clust_8="13000.00000" pt_clust_9="22.83813"></scales>
<clustering>
<clus scale="   22.838">  2  9  1 -1</clus>
<clus scale="   79.458">  5  6 -1 -1</clus>
<clus scale="   83.377">  2  5  1 -1</clus>
<clus scale="   91.751">  7  8 -1 -1</clus>
<clus scale="   22.838">  2  5  1 -1</clus>
</clustering>
</event>
<event>
 9    1  0.9171696E-005  0.1297068E+03  0.7546771E-02  0.1230439E+00
          1   -1    0    0  502    0 -0.00000000000E+00  0.00000000000E+00  0.31566183515E+03  0.31566183515E+03  0.00000000000E+00 0. -1.
         21   -1    0    0  501  502  0.00000000000E+00 -0.00000000000E+00 -0.10851429298E+03  0.10851429298E+03  0.00000000000E+00 0.  1.
         23    2    1    2    0    0  0.24771459852E+02  0.96179679548E+02  0.22826162303E+03  0.26468766446E+03  0.89955740169E+02 0.  0.
        -24    2    1    2    0    0  0.12943529623E+02 -0.79389543303E+02 -0.83753174852E+00  0.11349425153E+03  0.80062532591E+02 0.  0.
         13    1    4    4    0    0  0.23664225174E+02 -0.46991064268E+02  0.35635422468E+02  0.63545566396E+02  0.00000000000E+00 0. -1.
        -14    1    4    4    0    0 -0.10720695551E+02 -0.32398479035E+02 -0.36472954217E+02  0.49948685130E+02  0.00000000000E+00 0.  1.
        -13    1    3    3    0    0 -0.32405462328E+02  0.17971148596E+02  0.59500375018E+02  0.70095440635E+02  0.00000000000E+00 0. -1.
         13    1    3    3    0    0  0.57176922180E+02  0.78208530952E+02  0.16876124801E+03  0.19459222383E+03  0.00000000000E+00 0.  1.
          2    1    1    2  501    0 -0.37714989475E+02 -0.16790136245E+02 -0.20276549120E+02  0.45994212141E+02  0.00000000000E+00 0. -1.
<scales pt_clust_5="13000.00000" pt_clust_6="13000.00000" pt_clust_7="13000.00000" pt_clust_8="13000.00000" pt_clust_9="41.28352"></scales>
<clustering>
<clus scale="   41.284">  2  9  1 -1</clus>
<clus scale="   80.063">  5  6 -1 -1</clus>
<clus scale="   89.956">  7  8 -1 -1</clus>
<clus scale="  123.052">  2  5  1 -1</clus>
<clus scale="   41.284">  2  5  1 -1</clus>
</clustering>
</event>
<event>
 9    1  0.9171696E-005  0.1056249E+03  0.7546771E-02  0.1272649E+00
          3   -1    0    0  502    0 -0.00000000000E+00  0.00000000000E+00  0.20744643537E+03  0.20744643537E+03  0.00000000000E+00 0. -1.
         21   -1    0    0  501  502  0.00000000000E+00 -0.00000000000E+00 -0.31168572633E+03  0.31168572633E+03  0.00000000000E+00 0. -1.
         23    2    1    2    0    0  0.31430068477E+02  0.47486148260E+02  0.14314439505E+03  0.17870401048E+03  0.90565015567E+02 0.  0.
        -24    2    1    2    0    0  0.54788189355E+02 -0.55532113390E+02 -0.22371687239E+03  0.25065931696E+03  0.81824769339E+02 0.  0.
         11    1    4    4    0    0  0.21235044929E+02 -0.65112151823E+02 -0.19068207131E+03  0.20260841978E+03  0.00000000000E+00 0. -1.
        -12    1    4    4    0    0  0.33553144426E+02  0.95800384327E+01 -0.33034801082E+02  0.48050897180E+02  0.00000000000E+00 0.  1.
        -13    1    3    3    0    0 -0.28837270627E+02  0.34178043807E+02  0.69132099227E+02  0.82334524953E+02  0.00000000000E+00 0.  1.
         13    1    3    3    0    0  0.60267339104E+02  0.13308104453E+02  0.74012295825E+02  0.96369485524E+02  0.00000000000E+00 0. -1.
          4    1    1    2  501    0 -0.86218257832E+02  0.80459651307E+01 -0.23666813626E+02  0.89768834267E+02  0.00000000000E+00 0. -1.
<scales pt_clust_5="13000.00000" pt_clust_6="13000.00000" pt_clust_7="13000.00000" pt_clust_8="13000.00000" pt_clust_9="86.59287"></scales>
<clustering>
<clus scale="   81.825">  5  6 -1 -1</clus>
<clus scale="   86.593">  2  9  1 -1</clus>
<clus scale="   90.565">  7  8 -1 -1</clus>
<clus scale="   98.234">  2  5  1 -1</clus>
<clus scale="   86.593">  2  5  1 -1</clus>
</clustering>
</event>
<event>
 9    1  0.9171696E-005  0.1118474E+03  0.7546771E-02  0.1261244E+00
         -2   -1    0    0    0  501 -0.00000000000E+00  0.00000000000E+00  0.12479824960E+03  0.12479824960E+03  0.00000000000E+00 0.  1.
         21   -1    0    0  501  502  0.00000000000E+00 -0.00000000000E+00 -0.19036901504E+03  0.19036901504E+03  0.00000000000E+00 0.  1.
        -24    2    1    2    0    0  0.58626395104E+02 -0.46082248228E+02  0.54323333999E+02  0.12234715315E+03  0.80356539637E+02 0.  0.
         23    2    1    2    0    0 -0.98388679719E+01  0.43948020252E+02 -0.73261028145E+02  0.12529662616E+03  0.91125377777E+02 0.  0.
         13    1    3    3    0    0 -0.20413338287E+02 -0.96616790492E+01  0.11992578646E+02  0.25570967222E+02  0.00000000000E+00 0. -1.
        -14    1    3    3    0    0  0.79039733392E+02 -0.36420569179E+02  0.42330755353E+02  0.96776185928E+02  0.00000000000E+00 0.  1.
        -13    1    4    4    0    0 -0.33645336240E+02 -0.15212531688E+02 -0.35293831876E+02  0.51079196739E+02  0.00000000000E+00 0. -1.
         13    1    4    4    0    0  0.23806468268E+02  0.59160551940E+02 -0.37967196269E+02  0.74217429420E+02  0.00000000000E+00 0.  1.
         -1    1    1    2    0  502 -0.48787527133E+02  0.21342279761E+01 -0.46633071298E+02  0.67523485332E+02  0.00000000000E+00 0.  1.
<scales pt_clust_5="13000.00000" pt_clust_6="13000.00000" pt_clust_7="13000.00000" pt_clust_8="13000.00000" pt_clust_9="48.83419"></scales>
<clustering>
<clus scale="   48.834">  2  9  1 -1</clus>
<clus scale="   80.357">  5  6 -1 -1</clus>
<clus scale="   91.125">  7  8 -1 -1</clus>
<clus scale="  103.263">  1  5  2 -1</clus>
<clus scale="   48.834">  2  5  1 -1</clus>
</clustering>
</event>
<event>
 9    1  0.9171696E-005  0.8286466E+02  0.7546771E-02  0.1337834E+00
         21   -1    0    0  501  502  0.00000000000E+00  0.00000000000E+00  0.92283683874E+02  0.92283683874E+02  0.00000000000E+00 0. -1.
          1   -1    0    0  502    0 -0.00000000000E+00 -0.00000000000E+00 -0.15728247029E+03  0.15728247029E+03  0.00000000000E+00 0. -1.
         23    2    1    2    0    0  0.15310919449E+02 -0.17653726076E+02 -0.56977982928E+02  0.86880098701E+02  0.61282809278E+02 0.  0.
        -24    2    1    2    0    0  0.37993358211E+02 -0.16168111980E+02 -0.28054845059E+02  0.96454449956E+02  0.82531711916E+02 0.  0.
         11    1    4    4    0    0  0.58059678654E+02 -0.31964316437E+02 -0.15828936166E+02  0.68141023113E+02  0.00000000000E+00 0. -1.
        -12    1    4    4    0    0 -0.20066320443E+02  0.15796204457E+02 -0.12225908892E+02  0.28313426843E+02  0.00000000000E+00 0.  1.
        -11    1    3    3    0    0  0.24719754290E+02  0.10998523094E+01 -0.60719354273E+02  0.65567643778E+02  0.00000000000E+00 0. -1.
         11    1    3    3    0    0 -0.94088348410E+01 -0.18753578386E+02  0.37413713446E+01  0.21312454924E+02  0.00000000000E+00 0.  1.
          2    1    1    2  501    0 -0.53304277660E+02  0.33821838056E+02  0.20034041571E+02  0.66231605507E+02  0.00000000000E+00 0. -1.
<scales pt_clust_5="13000.00000" pt_clust_6="13000.00000" pt_clust_7="13000.00000" pt_clust_8="13000.00000" pt_clust_9="63.12894"></scales>
<clustering>
<clus scale="   61.283">  7  8 -1 -1</clus>
<clus scale="   63.129">  1  9  2 -1</clus>
<clus scale="   61.730">  2  7  1 -1</clus>
<clus scale="   82.532">  5  6 -1 -1</clus>
<clus scale="   63.129">  1  5  2 -1</clus>
</clustering>
</event>
<event>
 9    1  0.9171696E-005  0.1026283E+03  0.7546771E-02  0.1278755E+00
         21   -1    0    0  501  502  0.00000000000E+00  0.00000000000E+00  0.21177769363E+03  0.21177769363E+03  0.00000000000E+00 0.  1.
          1   -1    0    0  502    0 -0.00000000000E+00 -0.00000000000E+00 -0.14276210559E+03  0.14276210559E+03  0.00000000000E+00 0. -1.
        -24    2    1    2    0    0 -0.51516798316E+02 -0.91281532987E+01 -0.10449739195E+03  0.14150793497E+03  0.79796535284E+02 0.  0.
         23    2    1    2    0    0  0.44924615246E+02  0.28335040143E+02  0.14824118902E+03  0.18061235162E+03  0.88454937019E+02 0.  0.
         13    1    3    3    0    0 -0.20570325291E+02  0.30437554595E+02 -0.16694148803E+02  0.40351922092E+02  0.00000000000E+00 0. -1.
        -14    1    3    3    0    0 -0.30946473025E+02 -0.39565707894E+02 -0.87803243149E+02  0.10115601288E+03  0.00000000000E+00 0.  1.
        -11    1    4    4    0    0 -0.21758198553E+02  0.84983842834E+01  0.79299194619E+02  0.82668034977E+02  0.00000000000E+00 0.  1.
         11    1    4    4    0    0  0.66682813799E+02  0.19836655860E+02  0.68941994397E+02  0.97944316646E+02  0.00000000000E+00 0. -1.
          2    1    1    2  501    0  0.65921830703E+01 -0.19206886844E+02  0.25271790977E+02  0.32419512628E+02  0.00000000000E+00 0. -1.
<scales pt_clust_5="13000.00000" pt_clust_6="13000.00000" pt_clust_7="13000.00000" pt_clust_8="13000.00000" pt_clust_9="20.30668"></scales>
<clustering>
<clus scale="   20.307">  1  9  2 -1</clus>
<clus scale="   79.797">  5  6 -1 -1</clus>
<clus scale="   88.455">  7  8 -1 -1</clus>
<clus scale="   95.267">  2  5  1 -1</clus>
<clus scale="   20.307">  1  5  2 -1</clus>
</clustering>
</event>
<event>
 9    1  0.9171696E-005  0.1003372E+03  0.7546771E-02  0.1290176E+00
          1   -1    0    0  502    0 -0.00000000000E+00  0.00000000000E+00  0.46681059778E+02  0.46681059778E+02  0.00000000000E+00 0. -1.
         21   -1    0    0  501  502  0.00000000000E+00 -0.00000000000E+00 -0.33594690101E+03  0.33594690101E+03  0.00000000000E+00 0.  1.
         23    2    1    2    0    0  0.15811965243E+02 -0.25412990968E+02 -0.15113620019E+03  0.17866603569E+03  0.90463047411E+02 0.  0.
        -24    2    1    2    0    0 -0.10230608642E+02  0.56796062724E+02 -0.14538797197E+03  0.17127045676E+03  0.69752769611E+02 0.  0.
         11    1    4    4    0    0 -0.32303854868E+02  0.35270273902E+02 -0.42912767542E+02  0.64257582265E+02  0.00000000000E+00 0. -1.
        -12    1    4    4    0    0  0.22073246225E+02  0.21525788822E+02 -0.10247520443E+03  0.10701287449E+03  0.00000000000E+00 0.  1.
        -13    1    3    3    0    0 -0.29820065807E+02  0.93849541468E+01 -0.24789993777E+02  0.39898088683E+02  0.00000000000E+00 0. -1.
         13    1    3    3    0    0  0.45632031050E+02 -0.34797945115E+02 -0.12634620641E+03  0.13876794701E+03  0.00000000000E+00 0.  1.
          2    1    1    2  501    0 -0.55813566003E+01 -0.31383071756E+02  0.72583309331E+01  0.32691468341E+02  0.00000000000E+00 0. -1.
<scales pt_clust_5="13000.00000" pt_clust_6="13000.00000" pt_clust_7="13000.00000" pt_clust_8="13000.00000" pt_clust_9="31.87554"></scales>
<clustering>
<clus scale="   31.876">  2  9  1 -1</clus>
<clus scale="   69.753">  5  6 -1 -1</clus>
<clus scale="   82.155">  2  5  1 -1</clus>
<clus scale="   90.463">  7  8 -1 -1</clus>
<clus scale="   31.876">  2  5  1 -1</clus>
</clustering>
</event>
<event>
 9    1  0.9171696E-005  0.1378655E+03  0.7546771E-02  0.1218173E+00
          1   -1    0    0  502    0 -0.00000000000E+00  0.00000000000E+00  0.48239879609E+03  0.48239879609E+03  0.00000000000E+00 0. -1.
         21   -1    0    0  501  502  0.00000000000E+00 -0.00000000000E+00 -0.52389128590E+02  0.52389128590E+02  0.00000000000E+00 0.  1.
        -24    2    1    2    0    0 -0.46585826224E+02  0.99209865917E+02  0.31133452265E+03  0.33979842082E+03  0.80752368977E+02 0.  0.
         23    2    1    2    0    0  0.25123395514E+02 -0.92213005766E+02  0.10916396339E+03  0.17049349283E+03  0.89536789973E+02 0.  0.
         13    1    3    3    0    0 -0.52667494712E+02  0.19562164986E+02  0.13418223004E+03  0.14546963311E+03  0.00000000000E+00 0. -1.
        -14    1    3    3    0    0  0.60816684877E+01  0.79647700931E+02  0.17715229261E+03  0.19432878771E+03  0.00000000000E+00 0.  1.
        -11    1    4    4    0    0  0.49974001410E+02 -0.33507840125E+02  0.25594495906E+02  0.65385429474E+02  0.00000000000E+00 0.  1.
         11    1    4    4    0    0 -0.24850605897E+02 -0.58705165641E+02  0.83569467482E+02  0.10510806335E+03  0.00000000000E+00 0. -1.
          2    1    1    2  501    0  0.21462430710E+02 -0.69968601510E+01  0.95111814619E+01  0.24496011038E+02  0.00000000000E+00 0. -1.
<scales pt_clust_5="13000.00000" pt_clust_6="13000.00000" pt_clust_7="13000.00000" pt_clust_8="13000.00000" pt_clust_9="22.57414"></scales>
<clustering>
<clus scale="   22.574">  2  9  1 -1</clus>
<clus scale="   80.752">  5  6 -1 -1</clus>
<clus scale="   89.537">  7  8 -1 -1</clus>
<clus scale="  132.329">  1  5  2 -1</clus>
<clus scale="   22.574">  2  5  1 -1</clus>
</clustering>
</event>
<event>
 9    1  0.9171696E-005  0.1563554E+03  0.7546771E-02  0.1194678E+00
         21   -1    0    0  501  502  0.00000000000E+00  0.00000000000E+00  0.62132241884E+03  0.62132241884E+03  0.00000000000E+00 0. -1.
          3   -1    0    0  502    0 -0.00000000000E+00 -0.00000000000E+00 -0.16269673569E+03  0.16269673569E+03  0.00000000000E+00 0. -1.
         23    2    1    2    0    0  0.60125288359E+02 -0.11606051094E+03 -0.78874873816E+02  0.17815245835E+03  0.91825705545E+02 0.  0.
        -24    2    1    2    0    0 -0.36529297707E+02  0.71754781678E+02  0.54343867470E+03  0.55531939495E+03  0.81061081669E+02 0.  0.
         13    1    4    4    0    0 -0.10552954289E+02  0.75653326880E+02  0.26925629986E+03  0.27988166379E+03  0.00000000000E+00 0. -1.
        -14    1    4    4    0    0 -0.25976343418E+02 -0.38985452015E+01  0.27418237484E+03  0.27543773116E+03  0.00000000000E+00 0.  1.
        -11    1    3    3    0    0  0.35747322053E+02  0.36103225194E+01 -0.75234738438E+01  0.36708420306E+02  0.00000000000E+00 0.  1.
         11    1    3    3    0    0  0.24377966305E+02 -0.11967083345E+03 -0.71351399972E+02  0.14144403805E+03  0.00000000000E+00 0. -1.
          4    1    1    2  501    0 -0.23595990652E+02  0.44305729257E+02 -0.59381177316E+01  0.50547301234E+02  0.00000000000E+00 0. -1.
<scales pt_clust_5="13000.00000" pt_clust_6="13000.00000" pt_clust_7="13000.00000" pt_clust_8="13000.00000" pt_clust_9="50.19732"></scales>
<clustering>
<clus scale="   50.197">  1  9  2 -1</clus>
<clus scale="   81.061">  5  6 -1 -1</clus>
<clus scale="   91.826">  7  8 -1 -1</clus>
<clus scale="  150.286">  1  5  2 -1</clus>
<clus scale="   50.197">  1  5  2 -1</clus>
</clustering>
</event>
<event>
 9    1  0.9171696E-005  0.1926208E+03  0.7546771E-02  0.1193775E+00
         21   -1    0    0  501  502  0.00000000000E+00  0.00000000000E+00  0.18061224167E+03  0.18061224167E+03  0.00000000000E+00 0. -1.
          1   -1    0    0  502    0 -0.00000000000E+00 -0.00000000000E+00 -0.58081094582E+03  0.58081094582E+03  0.00000000000E+00 0. -1.
        -24    2    1    2    0    0  0.85901958679E+01 -0.16417267804E+02 -0.37118555915E+03  0.38013254952E+03  0.79866875071E+02 0.  0.
         23    2    1    2    0    0  0.38790358397E+02 -0.15212965192E+03 -0.80310088740E+02  0.19885062727E+03  0.91889818330E+02 0.  0.
         13    1    3    3    0    0  0.26265775923E+01 -0.44338412252E+02 -0.13251991539E+03  0.13976523776E+03  0.00000000000E+00 0. -1.
        -14    1    3    3    0    0  0.59636182756E+01  0.27921144449E+02 -0.23866564376E+03  0.24036731176E+03  0.00000000000E+00 0.  1.
        -13    1    4    4    0    0  0.26298036905E+02 -0.10538641718E+02  0.10458772526E+02  0.30199927766E+02  0.00000000000E+00 0.  1.
         13    1    4    4    0    0  0.12492321491E+02 -0.14159101020E+03 -0.90768861265E+02  0.16865069950E+03  0.00000000000E+00 0. -1.
          2    1    1    2  501    0 -0.47380554265E+02  0.16854691973E+03  0.51296943740E+02  0.18244001071E+03  0.00000000000E+00 0. -1.
<scales pt_clust_5="13000.00000" pt_clust_6="13000.00000" pt_clust_7="13000.00000" pt_clust_8="13000.00000" pt_clust_9="169.28976"></scales>
<clustering>
<clus scale="   79.867">  5  6 -1 -1</clus>
<clus scale="   81.988">  2  5  1 -1</clus>
<clus scale="   91.890">  7  8 -1 -1</clus>
<clus scale="  169.290">  1  9  2 -1</clus>
<clus scale="  169.290">  1  5  2 -1</clus>
</clustering>
</event>
<event>
 9    1  0.9171696E-005  0.1121837E+03  0.7546771E-02  0.1258656E+00
         21   -1    0    0  501  502  0.00000000000E+00  0.00000000000E+00  0.72886297175E+03  0.72886297175E+03  0.00000000000E+00 0.  1.
          3   -1    0    0  502    0 -0.00000000000E+00 -0.00000000000E+00 -0.50816438374E+02  0.50816438374E+02  0.00000000000E+00 0. -1.
         23    2    1    2    0    0 -0.26104680995E+02  0.70920439594E+02  0.27770210279E+02  0.11735047675E+03  0.85374391318E+02 0.  0.
        -24    2    1    2    0    0  0.19045415482E+02 -0.46527252802E+02  0.58097635390E+03  0.58852279188E+03  0.79360189423E+02 0.  0.
         13    1    4    4    0    0  0.15915727115E+02  0.12995073024E+02  0.47852107658E+02  0.52076928672E+02  0.00000000000E+00 0. -1.
        -14    1    4    4    0    0  0.31296883668E+01 -0.59522325826E+02  0.53312424624E+03  0.53644586321E+03  0.00000000000E+00 0.  1.
        -13    1    3    3    0    0 -0.21233719330E+02 -0.42990558721E+01 -0.18853445755E+02  0.28719420865E+02  0.00000000000E+00 0.  1.
         13    1    3    3    0    0 -0.48709616644E+01  0.75219495466E+02  0.46623656033E+02  0.88631055887E+02  0.00000000000E+00 0. -1.
          4    1    1    2  501    0  0.70592655127E+01 -0.24393186792E+02  0.69299969202E+02  0.73806141498E+02  0.00000000000E+00 0. -1.
<scales pt_clust_5="13000.00000" pt_clust_6="13000.00000" pt_clust_7="13000.00000" pt_clust_8="13000.00000" pt_clust_9="25.39411"></scales>
<clustering>
<clus scale="   25.394">  1  9  2 -1</clus>
<clus scale="   79.360">  5  6 -1 -1</clus>
<clus scale="   85.374">  7  8 -1 -1</clus>
<clus scale="  107.677">  1  5  2 -1</clus>
<clus scale="   25.394">  1  5  2 -1</clus>
</clustering>
</event>
<event>
 9    1  0.9171696E-005  0.1151837E+03  0.7546771E-02  0.1272776E+00
         21   -1    0    0  501  502  0.00000000000E+00  0.00000000000E+00  0.81701999492E+02  0.81701999492E+02  0.00000000000E+00 0. -1.
          1   -1    0    0  502    0 -0.00000000000E+00 -0.00000000000E+00 -0.48481490612E+03  0.48481490612E+03  0.00000000000E+00 0. -1.
         23    2    1    2    0    0 -0.29967096320E+02  0.37588739126E+02 -0.97046002166E+02  0.12299603113E+03  0.58302289552E+02 0.  0.
        -24    2    1    2    0    0  0.10863267756E+03 -0.51598311780E+02 -0.32989152172E+03  0.36014129553E+03  0.80061802597E+02 0.  0.
         13    1    4    4    0    0  0.10666605070E+03 -0.63636066173E+02 -0.32316511712E+03  0.34621220113E+03  0.00000000000E+00 0. -1.
        -14    1    4    4    0    0  0.19666268570E+01  0.12037754393E+02 -0.67264045991E+01  0.13929094402E+02  0.00000000000E+00 0.  1.
        -11    1    3    3    0    0  0.60499747913E+01  0.38801283241E+02 -0.45522781656E+02  0.60120424364E+02  0.00000000000E+00 0. -1.
         11    1    3    3    0    0 -0.36017071112E+02 -0.12125441151E+01 -0.51523220510E+02  0.62875606768E+02  0.00000000000E+00 0.  1.
          2    1    1    2  501    0 -0.78665581237E+02  0.14009572654E+02  0.23824617258E+02  0.83379578944E+02  0.00000000000E+00 0. -1.
<scales pt_clust_5="13000.00000" pt_clust_6="13000.00000" pt_clust_7="13000.00000" pt_clust_8="13000.00000" pt_clust_9="82.80939"></scales>
<clustering>
<clus scale="   58.302">  7  8 -1 -1</clus>
<clus scale="   75.565">  2  7  1 -1</clus>
<clus scale="   80.062">  5  6 -1 -1</clus>
<clus scale="   82.809">  1  9  2 -1</clus>
<clus scale="   82.809">  1  5  2 -1</clus>
</clustering>
</event>
<event>
 9    1  0.9171696E-005  0.1714218E+03  0.7546771E-02  0.1179357E+00
         21   -1    0    0  501  502  0.00000000000E+00  0.00000000000E+00  0.33721147495E+03  0.33721147495E+03  0.00000000000E+00 0. -1.
          1   -1    0    0  502    0 -0.00000000000E+00 -0.00000000000E+00 -0.24841558110E+03  0.24841558110E+03  0.00000000000E+00 0. -1.
         23    2    1    2    0    0  0.90269803086E+02  0.12523712669E+03 -0.15151451065E+03  0.23859351086E+03  0.10068386781E+03 0.  0.
        -24    2    1    2    0    0 -0.10772076490E+03 -0.11903609308E+02  0.14412974489E+03  0.19736811327E+03  0.80220506517E+02 0.  0.
         13    1    4    4    0    0 -0.40732635446E+02  0.29541490888E+02  0.29644951406E+02  0.58400945353E+02  0.00000000000E+00 0. -1.
        -14    1    4    4    0    0 -0.66988129457E+02 -0.41445100196E+02  0.11448479349E+03  0.13896716791E+03  0.00000000000E+00 0.  1.
        -11    1    3    3    0    0  0.14464356515E+02 -0.16954650856E+02 -0.11271246641E+02  0.24974362772E+02  0.00000000000E+00 0.  1.
         11    1    3    3    0    0  0.75805446571E+02  0.14219177754E+03 -0.14024326401E+03  0.21361914809E+03  0.00000000000E+00 0. -1.
          2    1    1    2  501    0  0.17450961818E+02 -0.11333351738E+03  0.96180659603E+02  0.14966543192E+03  0.00000000000E+00 0. -1.
<scales pt_clust_5="13000.00000" pt_clust_6="13000.00000" pt_clust_7="13000.00000" pt_clust_8="13000.00000" pt_clust_9="114.66919"></scales>
<clustering>
<clus scale="   80.221">  5  6 -1 -1</clus>
<clus scale="  100.684">  7  8 -1 -1</clus>
<clus scale="  114.669">  1  9  2 -1</clus>
<clus scale="  160.261">  1  5  2 -1</clus>
<clus scale="  114.669">  1  5  2 -1</clus>
</clustering>
</event>
<event>
 9    1  0.9171696E-005  0.1233764E+03  0.7546771E-02  0.1246738E+00
          1   -1    0    0  502    0 -0.00000000000E+00  0.00000000000E+00  0.59134922541E+02  0.59134922541E+02  0.00000000000E+00 0. -1.
         21   -1    0    0  501  502  0.00000000000E+00 -0.00000000000E+00 -0.47237893184E+03  0.47237893184E+03  0.00000000000E+00 0. -1.
        -24    2    1    2    0    0  0.83410245299E+02 -0.40284731639E+01 -0.27739354359E+02  0.10594012613E+03  0.58994414365E+02 0.  0.
         23    2    1    2    0    0 -0.80784070086E+02  0.51445713954E+02 -0.26171519887E+03  0.29298745085E+03  0.90410583321E+02 0.  0.
         13    1    3    3    0    0  0.22607112154E+02  0.25636005456E+02 -0.48679080905E+01  0.34525104270E+02  0.00000000000E+00 0. -1.
        -14    1    3    3    0    0  0.60803133146E+02 -0.29664478620E+02 -0.22871446269E+02  0.71415021855E+02  0.00000000000E+00 0.  1.
        -13    1    4    4    0    0  0.19004830413E+02  0.72545343079E+01 -0.63950020866E+02  0.67107503424E+02  0.00000000000E+00 0.  1.
         13    1    4    4    0    0 -0.99788900500E+02  0.44191179646E+02 -0.19776517800E+03  0.22587994743E+03  0.00000000000E+00 0. -1.
          2    1    1    2  501    0 -0.26261752131E+01 -0.47417240790E+02 -0.12378945607E+03  0.13258627740E+03  0.00000000000E+00 0. -1.
<scales pt_clust_5="13000.00000" pt_clust_6="13000.00000" pt_clust_7="13000.00000" pt_clust_8="13000.00000" pt_clust_9="47.48991"></scales>
<clustering>
<clus scale="   47.490">  2  9  1 -1</clus>
<clus scale="   58.994">  5  6 -1 -1</clus>
<clus scale="   90.411">  7  8 -1 -1</clus>
<clus scale="  102.606">  1  5  2 -1</clus>
<clus scale="   47.490">  2  5  1 -1</clus>
</clustering>
</event>
<event>
 9    1  0.9171696E-005  0.1438142E+03  0.7546771E-02  0.1233388E+00
         21   -1    0    0  501  502  0.00000000000E+00  0.00000000000E+00  0.10107506342E+03  0.10107506342E+03  0.00000000000E+00 0. -1.
          3   -1    0    0  502    0 -0.00000000000E+00 -0.00000000000E+00 -0.41841239542E+03  0.41841239542E+03  0.00000000000E+00 0. -1.
        -24    2    1    2    0    0  0.42388761517E+01 -0.35434010452E+02  0.20316543626E+02  0.87353629714E+02  0.77099659608E+02 0.  0.
         23    2    1    2    0    0  0.50917416215E+01 -0.84668214077E+02 -0.26043996845E+03  0.28904786816E+03  0.92331254810E+02 0.  0.
         11    1    3    3    0    0  0.30308315946E+01 -0.49910889548E+02  0.39194309002E+02  0.63533272337E+02  0.00000000000E+00 0. -1.
        -12    1    3    3    0    0  0.12080445571E+01  0.14476879096E+02 -0.18877765376E+02  0.23820357378E+02  0.00000000000E+00 0.  1.
        -13    1    4    4    0    0  0.25977222422E+02  0.82449323705E+01 -0.35312548418E+02  0.44606850038E+02  0.00000000000E+00 0.  1.
         13    1    4    4    0    0 -0.20885480801E+02 -0.92913146447E+02 -0.22512742003E+03  0.24444101812E+03  0.00000000000E+00 0. -1.
          4    1    1    2  501    0 -0.93306177731E+01  0.12010222453E+03 -0.77213907178E+02  0.14308596097E+03  0.00000000000E+00 0. -1.
<scales pt_clust_5="13000.00000" pt_clust_6="13000.00000" pt_clust_7="13000.00000" pt_clust_8="13000.00000" pt_clust_9="110.26084"></scales>
<clustering>
<clus scale="   77.100">  5  6 -1 -1</clus>
<clus scale="   84.958">  2  5  1 -1</clus>
<clus scale="   92.331">  7  8 -1 -1</clus>
<clus scale="  110.261">  1  9  2 -1</clus>
<clus scale="  110.261">  1  5  2 -1</clus>
</clustering>
</event>
<event>
 9    1  0.9171696E-005  0.4058436E+03  0.7546771E-02  0.1042016E+00
         21   -1    0    0  501  502  0.00000000000E+00  0.00000000000E+00  0.27848943899E+03  0.27848943899E+03  0.00000000000E+00 0. -1.
          1   -1    0    0  502    0 -0.00000000000E+00 -0.00000000000E+00 -0.80390666377E+03  0.80390666377E+03  0.00000000000E+00 0. -1.
        -24    2    1    2    0    0 -0.39458041978E+03 -0.46236356720E+01 -0.26030468609E+03  0.47916919505E+03  0.78291137476E+02 0.  0.
         23    2    1    2    0    0  0.38852732907E+03 -0.11925841847E+03 -0.22070570665E+03  0.47148712641E+03  0.91722655949E+02 0.  0.
         11    1    3    3    0    0 -0.36206127133E+03 -0.20192012709E+02 -0.25358519050E+03  0.44249466710E+03  0.00000000000E+00 0. -1.
        -12    1    3    3    0    0 -0.32519148454E+02  0.15568377037E+02 -0.67194955948E+01  0.36674527956E+02  0.00000000000E+00 0.  1.
        -13    1    4    4    0    0  0.74663310511E+02 -0.57859097908E+02 -0.29888377547E+02  0.99073711243E+02  0.00000000000E+00 0.  1.
         13    1    4    4    0    0  0.31386401856E+03 -0.61399320557E+02 -0.19081732910E+03  0.37241341516E+03  0.00000000000E+00 0. -1.
          2    1    1    2  501    0  0.60530907139E+01  0.12388205414E+03 -0.44406832037E+02  0.13173978130E+03  0.00000000000E+00 0. -1.
<scales pt_clust_5="13000.00000" pt_clust_6="13000.00000" pt_clust_7="13000.00000" pt_clust_8="13000.00000" pt_clust_9="124.02985"></scales>
<clustering>
<clus scale="   78.291">  5  6 -1 -1</clus>
<clus scale="   91.723">  7  8 -1 -1</clus>
<clus scale="  124.030">  1  9  2 -1</clus>
<clus scale="  403.020">  2  5  1 -1</clus>
<clus scale="  124.030">  1  5  2 -1</clus>
</clustering>
</event>
<event>
 9    1  0.9171696E-005  0.2426983E+03  0.7546771E-02  0.1140894E+00
         21   -1    0    0  501  502  0.00000000000E+00  0.00000000000E+00  0.95756915562E+02  0.95756915562E+02  0.00000000000E+00 0. -1.
          1   -1    0    0  502    0 -0.00000000000E+00 -0.00000000000E+00 -0.15264963624E+04  0.15264963624E+04  0.00000000000E+00 0. -1.
         23    2    1    2    0    0 -0.24713721032E+02 -0.97826825849E+02 -0.59984317489E+03  0.61557121109E+03  0.94526322225E+02 0.  0.
        -24    2    1    2    0    0 -0.20761508507E+03  0.40864885373E+02 -0.69675831344E+03  0.73242975836E+03  0.78786046852E+02 0.  0.
         11    1    4    4    0    0 -0.15596373857E+03  0.12010621125E+02 -0.39345307455E+03  0.42340791755E+03  0.00000000000E+00 0. -1.
        -12    1    4    4    0    0 -0.51651346490E+02  0.28854264248E+02 -0.30330523889E+03  0.30902184081E+03  0.00000000000E+00 0.  1.
        -11    1    3    3    0    0 -0.60140012238E+02 -0.70918926497E+02 -0.43527100525E+03  0.44509230864E+03  0.00000000000E+00 0. -1.
         11    1    3    3    0    0  0.35426291206E+02 -0.26907899352E+02 -0.16457216965E+03  0.17047890244E+03  0.00000000000E+00 0.  1.
          2    1    1    2  501    0  0.23232880610E+03  0.56961940476E+02 -0.13413795848E+03  0.27425230848E+03  0.00000000000E+00 0. -1.
<scales pt_clust_5="13000.00000" pt_clust_6="13000.00000" pt_clust_7="13000.00000" pt_clust_8="13000.00000" pt_clust_9="229.55437"></scales>
<clustering>
<clus scale="   78.786">  5  6 -1 -1</clus>
<clus scale="   94.526">  7  8 -1 -1</clus>
<clus scale="  138.261">  2  7  1 -1</clus>
<clus scale="  229.554">  1  9  2 -1</clus>
<clus scale="  229.554">  1  5  2 -1</clus>
</clustering>
</event>
<event>
 9    1  0.9171696E-005  0.1908703E+03  0.7546771E-02  0.1177578E+00
         21   -1    0    0  501  502  0.00000000000E+00  0.00000000000E+00  0.68154593246E+02  0.68154593246E+02  0.00000000000E+00 0.  1.
          1   -1    0    0  502    0 -0.00000000000E+00 -0.00000000000E+00 -0.14090749645E+04  0.14090749645E+04  0.00000000000E+00 0. -1.
         23    2    1    2    0    0 -0.17226807430E+02  0.76474936374E+02 -0.36158911505E+03  0.38124760903E+03  0.91966692257E+02 0.  0.
        -24    2    1    2    0    0  0.94577396570E+02  0.13342726214E+03 -0.14629141951E+03  0.23342910042E+03  0.79625669691E+02 0.  0.
         11    1    4    4    0    0  0.54562343398E+02  0.22567238826E+02 -0.75849146426E+02  0.96121915289E+02  0.00000000000E+00 0. -1.
        -12    1    4    4    0    0  0.40015053172E+02  0.11086002332E+03 -0.70442273086E+02  0.13730718513E+03  0.00000000000E+00 0.  1.
        -11    1    3    3    0    0 -0.52095443467E+02  0.36518422034E+02 -0.14650935664E+03  0.15972639719E+03  0.00000000000E+00 0. -1.
         11    1    3    3    0    0  0.34868636037E+02  0.39956514341E+02 -0.21507975841E+03  0.22152121184E+03  0.00000000000E+00 0.  1.
          2    1    1    2  501    0 -0.77350589140E+02 -0.20990219852E+03 -0.83303983668E+03  0.86255284828E+03  0.00000000000E+00 0. -1.
<scales pt_clust_5="13000.00000" pt_clust_6="13000.00000" pt_clust_7="13000.00000" pt_clust_8="13000.00000" pt_clust_9="173.46833"></scales>
<clustering>
<clus scale="   79.626">  5  6 -1 -1</clus>
<clus scale="   91.967">  7  8 -1 -1</clus>
<clus scale="  120.843">  2  7  1 -1</clus>
<clus scale="  173.468">  1  9  2 -1</clus>
<clus scale="  173.468">  1  5  2 -1</clus>
</clustering>
</event>
<event>
 9    1  0.9171696E-005  0.9079628E+02  0.7546771E-02  0.1306025E+00
          3   -1    0    0  502    0 -0.00000000000E+00  0.00000000000E+00  0.23345379763E+03  0.23345379763E+03  0.00000000000E+00 0. -1.
         21   -1    0    0  501  502  0.00000000000E+00 -0.00000000000E+00 -0.14833053504E+03  0.14833053504E+03  0.00000000000E+00 0. -1.
         23    2    1    2    0    0  0.18011724396E+01 -0.30502262474E+00  0.12062227335E+03  0.15052012487E+03  0.90017986559E+02 0.  0.
        -24    2    1    2    0    0 -0.76099089956E+02  0.36636126143E+02 -0.75578842712E+02  0.13935924296E+03  0.81089826138E+02 0.  0.
         13    1    4    4    0    0 -0.89817137053E+02  0.32972505180E+02 -0.45182341782E+02  0.10580996274E+03  0.00000000000E+00 0. -1.
        -14    1    4    4    0    0  0.13718047098E+02  0.36636209635E+01 -0.30396500930E+02  0.33549280224E+02  0.00000000000E+00 0.  1.
        -11    1    3    3    0    0  0.27952440874E+02  0.26139211556E+02  0.19866283844E+02  0.43119213413E+02  0.00000000000E+00 0.  1.
         11    1    3    3    0    0 -0.26151268434E+02 -0.26444234181E+02  0.10075598950E+03  0.10740091146E+03  0.00000000000E+00 0. -1.
          4    1    1    2  501    0  0.74297917516E+02 -0.36331103519E+02  0.40079831963E+02  0.91904964829E+02  0.00000000000E+00 0. -1.
<scales pt_clust_5="13000.00000" pt_clust_6="13000.00000" pt_clust_7="13000.00000" pt_clust_8="13000.00000" pt_clust_9="82.70512"></scales>
<clustering>
<clus scale="   81.090">  5  6 -1 -1</clus>
<clus scale="   82.705">  2  9  1 -1</clus>
<clus scale="   82.705">  2  5  1 -1</clus>
<clus scale="   90.018">  7  8 -1 -1</clus>
<clus scale="   82.705">  2  5  1 -1</clus>
</clustering>
</event>
<event>
 9    1  0.9171696E-005  0.1329116E+03  0.7546771E-02  0.1225189E+00
          3   -1    0    0  502    0 -0.00000000000E+00  0.00000000000E+00  0.39056826013E+03  0.39056826013E+03  0.00000000000E+00 0. -1.
         21   -1    0    0  501  502  0.00000000000E+00 -0.00000000000E+00 -0.89688792807E+02  0.89688792807E+02  0.00000000000E+00 0.  1.
        -24    2    1    2    0    0  0.61329308278E+02  0.66446260136E+02  0.21672016992E+03  0.24826195809E+03  0.80560401207E+02 0.  0.
         23    2    1    2    0    0 -0.85476167424E+02 -0.10329250413E+03  0.32496650521E+02  0.16409998762E+03  0.88866512441E+02 0.  0.
         13    1    3    3    0    0  0.78927780652E+02  0.61403527621E+02  0.16018297612E+03  0.18883477858E+03  0.00000000000E+00 0. -1.
        -14    1    3    3    0    0 -0.17598472375E+02  0.50427325145E+01  0.56537193801E+02  0.59427179506E+02  0.00000000000E+00 0.  1.
        -13    1    4    4    0    0 -0.71686755808E+01 -0.47942992632E+02 -0.22621254147E+02  0.53494313635E+02  0.00000000000E+00 0.  1.
         13    1    4    4    0    0 -0.78307491843E+02 -0.55349511502E+02  0.55117904668E+02  0.11060567398E+03  0.00000000000E+00 0. -1.
          4    1    1    2  501    0  0.24146859147E+02  0.36846243998E+02  0.51662646881E+02  0.67895107233E+02  0.00000000000E+00 0. -1.
<scales pt_clust_5="13000.00000" pt_clust_6="13000.00000" pt_clust_7="13000.00000" pt_clust_8="13000.00000" pt_clust_9="44.05359"></scales>
<clustering>
<clus scale="   44.054">  2  9  1 -1</clus>
<clus scale="   80.560">  5  6 -1 -1</clus>
<clus scale="   88.867">  7  8 -1 -1</clus>
<clus scale="  127.508">  1  5  2 -1</clus>
<clus scale="   44.054">  2  5  1 -1</clus>
</clustering>
</event>
<event>
 9    1  0.9171696E-005  0.1026846E+03  0.7546771E-02  0.1281586E+00
         21   -1    0    0  501  502  0.00000000000E+00  0.00000000000E+00  0.29880871630E+03  0.29880871630E+03  0.00000000000E+00 0. -1.
          1   -1    0    0  502    0 -0.00000000000E+00 -0.00000000000E+00 -0.24678327965E+03  0.24678327965E+03  0.00000000000E+00 0. -1.
         23    2    1    2    0    0  0.23800855361E+02  0.62551273834E+01 -0.14821651213E+03  0.17769586910E+03  0.94879292229E+02 0.  0.
        -24    2    1    2    0    0 -0.67839508085E+02 -0.65444077305E+02 -0.28472574461E+02  0.12757744703E+03  0.81118378824E+02 0.  0.
         11    1    4    4    0    0 -0.64339660934E+02 -0.78665032258E+02 -0.40467263899E+02  0.10938637354E+03  0.00000000000E+00 0. -1.
        -12    1    4    4    0    0 -0.34998471512E+01  0.13220954953E+02  0.11994689438E+02  0.18191073489E+02  0.00000000000E+00 0.  1.
        -13    1    3    3    0    0  0.33007895030E+02 -0.33958457700E+02 -0.11618703514E+03  0.12546762577E+03  0.00000000000E+00 0.  1.
         13    1    3    3    0    0 -0.92070396692E+01  0.40213585083E+02 -0.32029476990E+02  0.52228243326E+02  0.00000000000E+00 0. -1.
          2    1    1    2  501    0  0.44038652725E+02  0.59188949921E+02  0.22871452324E+03  0.24031867981E+03  0.00000000000E+00 0. -1.
<scales pt_clust_5="13000.00000" pt_clust_6="13000.00000" pt_clust_7="13000.00000" pt_clust_8="13000.00000" pt_clust_9="73.77489"></scales>
<clustering>
<clus scale="   73.775">  1  9  2 -1</clus>
<clus scale="   81.118">  5  6 -1 -1</clus>
<clus scale="   90.123">  1  5  2 -1</clus>
<clus scale="   94.879">  7  8 -1 -1</clus>
<clus scale="   73.775">  1  5  2 -1</clus>
</clustering>
</event>
<event>
 9    1  0.9171696E-005  0.1694905E+03  0.7546771E-02  0.1179568E+00
          1   -1    0    0  502    0 -0.00000000000E+00  0.00000000000E+00  0.91458236076E+03  0.91458236076E+03  0.00000000000E+00 0. -1.
         21   -1    0    0  501  502  0.00000000000E+00 -0.00000000000E+00 -0.48246003505E+02  0.48246003505E+02  0.00000000000E+00 0. -1.
         23    2    1    2    0    0 -0.11361098749E+03  0.92662454135E+02  0.32627471643E+03  0.36870965300E+03  0.89430591801E+02 0.  0.
        -24    2    1    2    0    0  0.76871997164E+02 -0.12307895594E+03  0.24959443116E+03  0.29976158653E+03  0.80634331067E+02 0.  0.
         11    1    4    4    0    0  0.91738633380E+02 -0.86687894202E+02  0.18020252862E+03  0.22000845252E+03  0.00000000000E+00 0. -1.
        -12    1    4    4    0    0 -0.14866636216E+02 -0.36391061741E+02  0.69391902539E+02  0.79753134013E+02  0.00000000000E+00 0.  1.
        -11    1    3    3    0    0 -0.11877316331E+03  0.54396367029E+02  0.22292830053E+03  0.25838547994E+03  0.00000000000E+00 0. -1.
         11    1    3    3    0    0  0.51621758159E+01  0.38266087107E+02  0.10334641590E+03  0.11032417306E+03  0.00000000000E+00 0.  1.
          2    1    1    2  501    0  0.36738990330E+02  0.30416501807E+02  0.29046720966E+03  0.29435712473E+03  0.00000000000E+00 0. -1.
<scales pt_clust_5="13000.00000" pt_clust_6="13000.00000" pt_clust_7="13000.00000" pt_clust_8="13000.00000" pt_clust_9="47.69611"></scales>
<clustering>
<clus scale="   47.696">  2  9  1 -1</clus>
<clus scale="   80.634">  5  6 -1 -1</clus>
<clus scale="   89.431">  7  8 -1 -1</clus>
<clus scale="  165.018">  2  5  1 -1</clus>
<clus scale="   47.696">  2  5  1 -1</clus>
</clustering>
</event>
<event>
 9    1  0.9171696E-005  0.2420092E+03  0.7546771E-02  0.1158696E+00
         21   -1    0    0  501  502  0.00000000000E+00  0.00000000000E+00  0.16396830381E+04  0.16396830381E+04  0.00000000000E+00 0.  1.
          1   -1    0    0  502    0 -0.00000000000E+00 -0.00000000000E+00 -0.91710145915E+02  0.91710145915E+02  0.00000000000E+00 0. -1.
        -24    2    1    2    0    0  0.33677915145E+02 -0.24549327656E+01  0.11785621338E+03  0.14916949569E+03  0.84977777960E+02 0.  0.
         23    2    1    2    0    0 -0.22441169143E+03  0.47663683397E+02  0.13468782967E+04  0.13692639907E+04  0.90389690547E+02 0.  0.
         13    1    3    3    0    0 -0.26543880951E+02  0.31064596899E+01  0.17326502741E+02  0.31850202589E+02  0.00000000000E+00 0. -1.
        -14    1    3    3    0    0  0.60221796096E+02 -0.55613924554E+01  0.10052971064E+03  0.11731929310E+03  0.00000000000E+00 0.  1.
        -13    1    4    4    0    0 -0.19987522223E+03  0.87164372865E+01  0.11268098754E+04  0.11444328622E+04  0.00000000000E+00 0.  1.
         13    1    4    4    0    0 -0.24536469202E+02  0.38947246111E+02  0.22006842127E+03  0.22483112850E+03  0.00000000000E+00 0. -1.
          2    1    1    2  501    0  0.19073377629E+03 -0.45208750632E+02  0.83238382082E+02  0.21295969760E+03  0.00000000000E+00 0. -1.
<scales pt_clust_5="13000.00000" pt_clust_6="13000.00000" pt_clust_7="13000.00000" pt_clust_8="13000.00000" pt_clust_9="224.49541"></scales>
<clustering>
<clus scale="   84.978">  5  6 -1 -1</clus>
<clus scale="   90.390">  7  8 -1 -1</clus>
<clus scale="   91.441">  2  5  1 -1</clus>
<clus scale="  224.495">  1  9  2 -1</clus>
<clus scale="  224.495">  1  5  2 -1</clus>
</clustering>
</event>
<event>
 9    1  0.9171696E-005  0.1323548E+03  0.7546771E-02  0.1226208E+00
         -2   -1    0    0    0  501 -0.00000000000E+00  0.00000000000E+00  0.25014109746E+03  0.25014109746E+03  0.00000000000E+00 0.  1.
         21   -1    0    0  501  502  0.00000000000E+00 -0.00000000000E+00 -0.68077615730E+03  0.68077615730E+03  0.00000000000E+00 0.  1.
        -24    2    1    2    0    0 -0.44941601636E+02 -0.91773831863E+02  0.21995702881E+03  0.25549937102E+03  0.80353284290E+02 0.  0.
         23    2    1    2    0    0 -0.10147589875E+02  0.32216897345E+02 -0.27411895034E+03  0.29030248371E+03  0.89405990059E+02 0.  0.
         11    1    3    3    0    0 -0.47460550331E+02 -0.22302025437E+02  0.14026691886E+03  0.14974876528E+03  0.00000000000E+00 0. -1.
        -12    1    3    3    0    0  0.25189486946E+01 -0.69471806426E+02  0.79690109951E+02  0.10575060574E+03  0.00000000000E+00 0.  1.
        -11    1    4    4    0    0  0.25863602386E+02  0.45741649399E+02 -0.11247530914E+03  0.12414475254E+03  0.00000000000E+00 0. -1.
         11    1    4    4    0    0 -0.36011192260E+02 -0.13524752054E+02 -0.16164364120E+03  0.16615773117E+03  0.00000000000E+00 0.  1.
         -1    1    1    2    0  502  0.55089191511E+02  0.59556934518E+02 -0.37647313831E+03  0.38511540003E+03  0.00000000000E+00 0.  1.
<scales pt_clust_5="13000.00000" pt_clust_6="13000.00000" pt_clust_7="13000.00000" pt_clust_8="13000.00000" pt_clust_9="81.12859"></scales>
<clustering>
<clus scale="   80.353">  5  6 -1 -1</clus>
<clus scale="   81.129">  2  9  1 -1</clus>
<clus scale="   89.406">  7  8 -1 -1</clus>
<clus scale="  126.416">  1  5  2 -1</clus>
<clus scale="   81.129">  2  5  1 -1</clus>
</clustering>
</event>
<event>
 9    1  0.9171696E-005  0.1161597E+03  0.7546771E-02  0.1254061E+00
          1   -1    0    0  502    0 -0.00000000000E+00  0.00000000000E+00  0.31757775376E+03  0.31757775376E+03  0.00000000000E+00 0. -1.
         21   -1    0    0  501  502  0.00000000000E+00 -0.00000000000E+00 -0.11111212593E+03  0.11111212593E+03  0.00000000000E+00 0. -1.
         23    2    1    2    0    0 -0.33619786124E+02  0.65227922407E+02  0.26254677940E+03  0.28764715102E+03  0.91788344752E+02 0.  0.
        -24    2    1    2    0    0  0.10037161269E+02 -0.57230637624E+02 -0.61386892024E+02  0.11558202089E+03  0.78833765307E+02 0.  0.
         11    1    4    4    0    0 -0.24400108264E+02 -0.56215917685E+02 -0.27205100986E+02  0.67050072365E+02  0.00000000000E+00 0. -1.
        -12    1    4    4    0    0  0.34437269534E+02 -0.10147199392E+01 -0.34181791038E+02  0.48531948529E+02  0.00000000000E+00 0.  1.
        -13    1    3    3    0    0  0.30799522354E+02  0.31980882768E+02  0.11442083861E+03  0.12273351518E+03  0.00000000000E+00 0.  1.
         13    1    3    3    0    0 -0.64419308478E+02  0.33247039639E+02  0.14812594079E+03  0.16491363584E+03  0.00000000000E+00 0. -1.
          2    1    1    2  501    0  0.23582624855E+02 -0.79972847826E+01  0.53057404508E+01  0.25460707780E+02  0.00000000000E+00 0. -1.
<scales pt_clust_5="13000.00000" pt_clust_6="13000.00000" pt_clust_7="13000.00000" pt_clust_8="13000.00000" pt_clust_9="24.90174"></scales>
<clustering>
<clus scale="   24.902">  2  9  1 -1</clus>
<clus scale="   78.834">  5  6 -1 -1</clus>
<clus scale="   91.788">  7  8 -1 -1</clus>
<clus scale="  106.220">  2  5  1 -1</clus>
<clus scale="   24.902">  2  5  1 -1</clus>
</clustering>
</event>
<event>
 9    1  0.9171696E-005  0.1629351E+03  0.7546771E-02  0.1188908E+00
         21   -1    0    0  501  502  0.00000000000E+00  0.00000000000E+00  0.24447798363E+02  0.24447798363E+02  0.00000000000E+00 0. -1.
          1   -1    0    0  502    0 -0.00000000000E+00 -0.00000000000E+00 -0.15317039222E+04  0.15317039222E+04  0.00000000000E+00 0. -1.
        -24    2    1    2    0    0 -0.78658515102E+02  0.11112078775E+03 -0.62297233669E+03  0.64276301833E+03  0.80714149821E+02 0.  0.
         23    2    1    2    0    0  0.22685521937E+02 -0.12082629371E+03 -0.49704172771E+03  0.52200195564E+03  0.10159693132E+03 0.  0.
         11    1    3    3    0    0 -0.68133757803E+02  0.10232542981E+03 -0.61442323438E+03  0.62660084063E+03  0.00000000000E+00 0. -1.
        -12    1    3    3    0    0 -0.10524757299E+02  0.87953579444E+01 -0.85491023137E+01  0.16162177698E+02  0.00000000000E+00 0.  1.
        -11    1    4    4    0    0  0.54723574279E+02 -0.11283789053E+03 -0.41600500083E+03  0.43449651303E+03  0.00000000000E+00 0. -1.
         11    1    4    4    0    0 -0.32038052342E+02 -0.79884031820E+01 -0.81036726885E+02  0.87505442617E+02  0.00000000000E+00 0.  1.
          2    1    1    2  501    0  0.55972993165E+02  0.97055059587E+01 -0.38724205944E+03  0.39138674660E+03  0.00000000000E+00 0. -1.
<scales pt_clust_5="13000.00000" pt_clust_6="13000.00000" pt_clust_7="13000.00000" pt_clust_8="13000.00000" pt_clust_9="56.80824"></scales>
<clustering>
<clus scale="   56.808">  1  9  2 -1</clus>
<clus scale="   80.714">  5  6 -1 -1</clus>
<clus scale="  101.597">  7  8 -1 -1</clus>
<clus scale="  150.800">  2  5  1 -1</clus>
<clus scale="   56.808">  1  5  2 -1</clus>
</clustering>
</event>
<event>
 9    1  0.9171696E-005  0.1286900E+03  0.7546771E-02  0.1251350E+00
          1   -1    0    0  502    0 -0.00000000000E+00  0.00000000000E+00  0.16522912381E+04  0.16522912381E+04  0.00000000000E+00 0. -1.
         21   -1    0    0  501  502  0.00000000000E+00 -0.00000000000E+00 -0.16476724299E+02  0.16476724299E+02  0.00000000000E+00 0. -1.
        -24    2    1    2    0    0 -0.12309151571E+02 -0.27068912203E+02  0.43283267277E+03  0.44061436964E+03  0.76893815680E+02 0.  0.
         23    2    1    2    0    0 -0.86701294531E+02  0.79689930558E+01  0.41339914164E+03  0.43215816908E+03  0.91001172909E+02 0.  0.
         11    1    3    3    0    0 -0.31059560410E+01 -0.53075928038E+02  0.24000863658E+03  0.24582686333E+03  0.00000000000E+00 0. -1.
        -12    1    3    3    0    0 -0.92031955299E+01  0.26007015835E+02  0.19282403619E+03  0.19478750631E+03  0.00000000000E+00 0.  1.
        -13    1    4    4    0    0  0.10691612779E+02 -0.17850142768E+02  0.12369291229E+03  0.12543075672E+03  0.00000000000E+00 0.  1.
         13    1    4    4    0    0 -0.97392907310E+02  0.25819135824E+02  0.28970622935E+03  0.30672741236E+03  0.00000000000E+00 0. -1.
          2    1    1    2  501    0  0.99010446102E+02  0.19099919147E+02  0.78958269938E+03  0.79599542367E+03  0.00000000000E+00 0. -1.
<scales pt_clust_5="13000.00000" pt_clust_6="13000.00000" pt_clust_7="13000.00000" pt_clust_8="13000.00000" pt_clust_9="90.99399"></scales>
<clustering>
<clus scale="   76.894">  5  6 -1 -1</clus>
<clus scale="   82.443">  1  5  2 -1</clus>
<clus scale="   90.994">  2  9  1 -1</clus>
<clus scale="   91.001">  7  8 -1 -1</clus>
<clus scale="   90.994">  2  5  1 -1</clus>
</clustering>
</event>
<event>
 9    1  0.9171696E-005  0.1245933E+03  0.7546771E-02  0.1251470E+00
         21   -1    0    0  501  502  0.00000000000E+00  0.00000000000E+00  0.69320421293E+03  0.69320421293E+03  0.00000000000E+00 0. -1.
          1   -1    0    0  502    0 -0.00000000000E+00 -0.00000000000E+00 -0.50224268430E+02  0.50224268430E+02  0.00000000000E+00 0. -1.
         23    2    1    2    0    0  0.67776021824E+01 -0.90685823027E+01  0.67807947919E+02  0.11318864269E+03  0.89919830720E+02 0.  0.
        -24    2    1    2    0    0  0.92709396021E+02  0.56314975286E+01  0.46810116268E+03  0.48404257524E+03  0.80943006267E+02 0.  0.
         13    1    4    4    0    0  0.79626476981E+02 -0.29975434879E+02  0.33573330995E+03  0.34634629772E+03  0.00000000000E+00 0. -1.
        -14    1    4    4    0    0  0.13082919040E+02  0.35606932407E+02  0.13236785273E+03  0.13769627752E+03  0.00000000000E+00 0.  1.
        -11    1    3    3    0    0 -0.17897258244E+02  0.24808141543E+02  0.64209627455E+02  0.71124060608E+02  0.00000000000E+00 0.  1.
         11    1    3    3    0    0  0.24674860426E+02 -0.33876723846E+02  0.35983204636E+01  0.42064582082E+02  0.00000000000E+00 0. -1.
          2    1    1    2  501    0 -0.99486998203E+02  0.34370847741E+01  0.10707083390E+03  0.14619726343E+03  0.00000000000E+00 0. -1.
<scales pt_clust_5="13000.00000" pt_clust_6="13000.00000" pt_clust_7="13000.00000" pt_clust_8="13000.00000" pt_clust_9="94.71919"></scales>
<clustering>
<clus scale="   80.943">  5  6 -1 -1</clus>
<clus scale="   89.920">  7  8 -1 -1</clus>
<clus scale="   90.630">  2  7  1 -1</clus>
<clus scale="   94.719">  1  9  2 -1</clus>
<clus scale="   94.719">  1  5  2 -1</clus>
</clustering>
</event>
<event>
 9    1  0.9171696E-005  0.1177958E+03  0.7546771E-02  0.1258546E+00
         21   -1    0    0  501  502  0.00000000000E+00  0.00000000000E+00  0.54279847748E+03  0.54279847748E+03  0.00000000000E+00 0.  1.
          1   -1    0    0  502    0 -0.00000000000E+00 -0.00000000000E+00 -0.10795377583E+03  0.10795377583E+03  0.00000000000E+00 0. -1.
         23    2    1    2    0    0 -0.33416334930E+02  0.31993694761E+02 -0.63124871820E+02  0.13409627215E+03  0.10888899309E+03 0.  0.
        -24    2    1    2    0    0  0.24369718449E+01 -0.36922891134E+02  0.45324263825E+03  0.46202525127E+03  0.81665200452E+02 0.  0.
         11    1    4    4    0    0  0.86145907645E+01 -0.25914761827E+02  0.39113599832E+02  0.47703875591E+02  0.00000000000E+00 0. -1.
        -12    1    4    4    0    0 -0.61776189196E+01 -0.11008129307E+02  0.41412903842E+03  0.41432137568E+03  0.00000000000E+00 0.  1.
        -11    1    3    3    0    0 -0.30717685703E+02  0.71598893690E+02 -0.34793740159E+02  0.85326327396E+02  0.00000000000E+00 0. -1.
         11    1    3    3    0    0 -0.26986492270E+01 -0.39605198929E+02 -0.28331131661E+02  0.48769944751E+02  0.00000000000E+00 0.  1.
          2    1    1    2  501    0  0.30979363085E+02  0.49291963723E+01  0.44726935226E+02  0.54630729894E+02  0.00000000000E+00 0. -1.
<scales pt_clust_5="13000.00000" pt_clust_6="13000.00000" pt_clust_7="13000.00000" pt_clust_8="13000.00000" pt_clust_9="31.36906"></scales>
<clustering>
<clus scale="   31.369">  1  9  2 -1</clus>
<clus scale="   81.665">  5  6 -1 -1</clus>
<clus scale="   93.211">  1  5  2 -1</clus>
<clus scale="  108.889">  7  8 -1 -1</clus>
<clus scale="   31.369">  1  5  2 -1</clus>
</clustering>
</event>
<event>
 9    1  0.9171696E-005  0.9692283E+02  0.7546771E-02  0.1294836E+00
         21   -1    0    0  501  502  0.00000000000E+00  0.00000000000E+00  0.92400410266E+02  0.92400410266E+02  0.00000000000E+00 0.  1.
          1   -1    0    0  502    0 -0.00000000000E+00 -0.00000000000E+00 -0.31233690789E+03  0.31233690789E+03  0.00000000000E+00 0. -1.
        -24    2    1    2    0    0 -0.10125930202E+02  0.24817947107E+02 -0.13099438657E+03  0.15483489913E+03  0.78075935555E+02 0.  0.
         23    2    1    2    0    0  0.86112090500E+02  0.51932825130E+01  0.37445418219E+01  0.12634924796E+03  0.92237999509E+02 0.  0.
         13    1    3    3    0    0 -0.43300853283E+02  0.16013650572E+02 -0.91663170081E+02  0.10263302416E+03  0.00000000000E+00 0. -1.
        -14    1    3    3    0    0  0.33174923081E+02  0.88042965353E+01 -0.39331216494E+02  0.52201874964E+02  0.00000000000E+00 0.  1.
        -13    1    4    4    0    0  0.39394908694E+01 -0.27413531057E+02 -0.20758035818E+02  0.34610942263E+02  0.00000000000E+00 0. -1.
         13    1    4    4    0    0  0.82172599631E+02  0.32606813570E+02  0.24502577640E+02  0.91738305698E+02  0.00000000000E+00 0.  1.
          2    1    1    2  501    0 -0.75986160298E+02 -0.30011229620E+02 -0.92686652871E+02  0.12355317107E+03  0.00000000000E+00 0. -1.
<scales pt_clust_5="13000.00000" pt_clust_6="13000.00000" pt_clust_7="13000.00000" pt_clust_8="13000.00000" pt_clust_9="81.69809"></scales>
<clustering>
<clus scale="   78.076">  5  6 -1 -1</clus>
<clus scale="   81.698">  1  9  2 -1</clus>
<clus scale="   83.559">  2  5  1 -1</clus>
<clus scale="   92.238">  7  8 -1 -1</clus>
<clus scale="   81.698">  1  5  2 -1</clus>
</clustering>
</event>
<event>
 9    1  0.1160422E-004  0.9042479E+02  0.7546771E-02  0.1307562E+00
         21   -1    0    0  501  502  0.00000000000E+00  0.00000000000E+00  0.14527685780E+03  0.14527685780E+03  0.00000000000E+00 0. -1.
         -4   -1    0    0    0  501 -0.00000000000E+00 -0.00000000000E+00 -0.23389224144E+03  0.23389224144E+03  0.00000000000E+00 0.  1.
        -24    2    1    2    0    0 -0.24621739608E+02  0.78546802275E+01 -0.10304724096E+03  0.13194770864E+03  0.78253037541E+02 0.  0.
         23    2    1    2    0    0 -0.10821865276E+02 -0.86579340287E+01  0.11232209867E+03  0.14310898165E+03  0.87589121425E+02 0.  0.
         13    1    3    3    0    0 -0.11447163111E+02 -0.35388502521E+02 -0.45446584614E+02  0.58726277824E+02  0.00000000000E+00 0. -1.
        -14    1    3    3    0    0 -0.13174576497E+02  0.43243182748E+02 -0.57600656342E+02  0.73221430818E+02  0.00000000000E+00 0.  1.
        -13    1    4    4    0    0 -0.19233461992E+02 -0.44312980090E+02  0.83619055948E+02  0.96569730155E+02  0.00000000000E+00 0. -1.
         13    1    4    4    0    0  0.84115967162E+01  0.35655046061E+02  0.28703042717E+02  0.46539251500E+02  0.00000000000E+00 0.  1.
         -3    1    1    2    0  502  0.35443604884E+02  0.80325380120E+00 -0.97890241350E+02  0.10411240894E+03  0.00000000000E+00 0.  1.
<scales pt_clust_5="13000.00000" pt_clust_6="13000.00000" pt_clust_7="13000.00000" pt_clust_8="13000.00000" pt_clust_9="35.45272"></scales>
<clustering>
<clus scale="   35.453">  1  9  2 -1</clus>
<clus scale="   78.253">  5  6 -1 -1</clus>
<clus scale="   81.415">  2  5  1 -1</clus>
<clus scale="   87.589">  7  8 -1 -1</clus>
<clus scale="   35.453">  1  5  2 -1</clus>
</clustering>
</event>
<event>
 9    1  0.9171696E-005  0.1920903E+03  0.7546771E-02  0.1157629E+00
         21   -1    0    0  501  502  0.00000000000E+00  0.00000000000E+00  0.13516870133E+04  0.13516870133E+04  0.00000000000E+00 0. -1.
          1   -1    0    0  502    0 -0.00000000000E+00 -0.00000000000E+00 -0.40641966002E+02  0.40641966002E+02  0.00000000000E+00 0. -1.
         23    2    1    2    0    0 -0.17300277100E+03 -0.56200846611E+02  0.33545821542E+03  0.39214295026E+03  0.90307171453E+02 0.  0.
        -24    2    1    2    0    0  0.13138614644E+03  0.69739104268E+02  0.64641386737E+03  0.66811665613E+03  0.80019473464E+02 0.  0.
         13    1    4    4    0    0  0.12380294537E+03  0.40009063232E+02  0.58702391980E+03  0.60126947107E+03  0.00000000000E+00 0. -1.
        -14    1    4    4    0    0  0.75832010717E+01  0.29730041036E+02  0.59389947565E+02  0.66847185059E+02  0.00000000000E+00 0.  1.
        -13    1    3    3    0    0 -0.12953607177E+03 -0.20221949947E+01  0.17903672843E+03  0.22099283538E+03  0.00000000000E+00 0. -1.
         13    1    3    3    0    0 -0.43466699228E+02 -0.54178651617E+02  0.15642148699E+03  0.17115011489E+03  0.00000000000E+00 0.  1.
          2    1    1    2  501    0  0.41616624556E+02 -0.13538257657E+02  0.32917296450E+03  0.33206937290E+03  0.00000000000E+00 0. -1.
<scales pt_clust_5="13000.00000" pt_clust_6="13000.00000" pt_clust_7="13000.00000" pt_clust_8="13000.00000" pt_clust_9="43.76332"></scales>
<clustering>
<clus scale="   43.763">  1  9  2 -1</clus>
<clus scale="   80.019">  5  6 -1 -1</clus>
<clus scale="   90.307">  7  8 -1 -1</clus>
<clus scale="  187.474">  1  5  2 -1</clus>
<clus scale="   43.763">  1  5  2 -1</clus>
</clustering>
</event>
<event>
 9    1  0.9171696E-005  0.2794042E+03  0.7546771E-02  0.1096598E+00
         -2   -1    0    0    0  501 -0.00000000000E+00  0.00000000000E+00  0.56347120965E+03  0.56347120965E+03  0.00000000000E+00 0.  1.
         21   -1    0    0  501  502  0.00000000000E+00 -0.00000000000E+00 -0.14767124046E+03  0.14767124046E+03  0.00000000000E+00 0.  1.
         23    2    1    2    0    0 -0.24054178153E+03  0.11061021756E+03  0.21479091555E+03  0.35325386651E+03  0.92510474597E+02 0.  0.
        -24    2    1    2    0    0  0.22918501100E+03 -0.12886982923E+03  0.18887276760E+03  0.33319690293E+03  0.78829256171E+02 0.  0.
         13    1    4    4    0    0  0.93238042236E+02 -0.92231254628E+02  0.11378229510E+03  0.17362703571E+03  0.00000000000E+00 0. -1.
        -14    1    4    4    0    0  0.13594696876E+03 -0.36638574601E+02  0.75090472494E+02  0.15956986722E+03  0.00000000000E+00 0.  1.
        -13    1    3    3    0    0 -0.46960356595E+02  0.91375881046E+01  0.15021536993E+01  0.47864674590E+02  0.00000000000E+00 0. -1.
         13    1    3    3    0    0 -0.19358142493E+03  0.10147262945E+03  0.21328876186E+03  0.30538919192E+03  0.00000000000E+00 0.  1.
         -1    1    1    2    0  502  0.11356770528E+02  0.18259611673E+02  0.12136286038E+02  0.24691680665E+02  0.00000000000E+00 0.  1.
<scales pt_clust_5="13000.00000" pt_clust_6="13000.00000" pt_clust_7="13000.00000" pt_clust_8="13000.00000" pt_clust_9="21.50325"></scales>
<clustering>
<clus scale="   21.503">  2  9  1 -1</clus>
<clus scale="   78.829">  5  6 -1 -1</clus>
<clus scale="   92.510">  7  8 -1 -1</clus>
<clus scale="  275.177">  2  5  1 -1</clus>
<clus scale="   21.503">  2  5  1 -1</clus>
</clustering>
</event>
<event>
 9    1  0.9171696E-005  0.9298318E+02  0.7546771E-02  0.1301476E+00
          1   -1    0    0  502    0 -0.00000000000E+00  0.00000000000E+00  0.14708145593E+03  0.14708145593E+03  0.00000000000E+00 0. -1.
         21   -1    0    0  501  502  0.00000000000E+00 -0.00000000000E+00 -0.60143167652E+03  0.60143167652E+03  0.00000000000E+00 0. -1.
         23    2    1    2    0    0  0.70343666700E+01 -0.19944879125E+02  0.11696052395E+03  0.15000246311E+03  0.91507891776E+02 0.  0.
        -24    2    1    2    0    0  0.26261066683E+02 -0.25744397433E+02 -0.16174087578E+03  0.18505743949E+03  0.82059291909E+02 0.  0.
         11    1    4    4    0    0 -0.27522669465E+02  0.12513643153E+01 -0.71170590286E+02  0.76317207553E+02  0.00000000000E+00 0. -1.
        -12    1    4    4    0    0  0.53783736148E+02 -0.26995761748E+02 -0.90570285497E+02  0.10874023194E+03  0.00000000000E+00 0.  1.
        -11    1    3    3    0    0  0.37193711994E+02  0.10494128306E+02  0.18965824139E+02  0.43048826071E+02  0.00000000000E+00 0.  1.
         11    1    3    3    0    0 -0.30159345324E+02 -0.30439007431E+02  0.97994699815E+02  0.10695363704E+03  0.00000000000E+00 0. -1.
          2    1    1    2  501    0 -0.33295433353E+02  0.45689276558E+02 -0.40956986876E+03  0.41345322985E+03  0.00000000000E+00 0. -1.
<scales pt_clust_5="13000.00000" pt_clust_6="13000.00000" pt_clust_7="13000.00000" pt_clust_8="13000.00000" pt_clust_9="56.53402"></scales>
<clustering>
<clus scale="   56.534">  2  9  1 -1</clus>
<clus scale="   82.059">  5  6 -1 -1</clus>
<clus scale="   83.701">  2  5  1 -1</clus>
<clus scale="   91.508">  7  8 -1 -1</clus>
<clus scale="   56.534">  2  5  1 -1</clus>
</clustering>
</event>
<event>
 9    1  0.9171696E-005  0.3034745E+03  0.7546771E-02  0.1097294E+00
          1   -1    0    0  502    0 -0.00000000000E+00  0.00000000000E+00  0.19978275886E+03  0.19978275886E+03  0.00000000000E+00 0. -1.
         21   -1    0    0  501  502  0.00000000000E+00 -0.00000000000E+00 -0.11092811359E+04  0.11092811359E+04  0.00000000000E+00 0. -1.
        -24    2    1    2    0    0  0.10955761803E+03  0.16117614774E+03 -0.16847091844E+03  0.26992068456E+03  0.80585999569E+02 0.  0.
         23    2    1    2    0    0 -0.13727122693E+03  0.22832532841E+03 -0.51736621390E+03  0.58913899195E+03  0.91875498428E+02 0.  0.
         13    1    3    3    0    0  0.73030813893E+02  0.11909642243E+03 -0.68789887928E+02  0.15572252982E+03  0.00000000000E+00 0. -1.
        -14    1    3    3    0    0  0.36526804141E+02  0.42079725313E+02 -0.99681030509E+02  0.11419815474E+03  0.00000000000E+00 0.  1.
        -11    1    4    4    0    0 -0.59381537260E+02  0.15396009717E+03 -0.23688016978E+03  0.28869030694E+03  0.00000000000E+00 0.  1.
         11    1    4    4    0    0 -0.77889689669E+02  0.74365231239E+02 -0.28048604412E+03  0.30044868501E+03  0.00000000000E+00 0. -1.
          2    1    1    2  501    0  0.27713608895E+02 -0.38950147615E+03 -0.22366124465E+03  0.45000421821E+03  0.00000000000E+00 0. -1.
<scales pt_clust_5="13000.00000" pt_clust_6="13000.00000" pt_clust_7="13000.00000" pt_clust_8="13000.00000" pt_clust_9="289.23305"></scales>
<clustering>
<clus scale="   80.586">  5  6 -1 -1</clus>
<clus scale="   91.875">  7  8 -1 -1</clus>
<clus scale="  210.890">  1  5  2 -1</clus>
<clus scale="  289.233">  2  9  1 -1</clus>
<clus scale="  289.233">  2  5  1 -1</clus>
</clustering>
</event>
<event>
 9    1  0.9171696E-005  0.1255354E+03  0.7546771E-02  0.1247364E+00
         21   -1    0    0  501  502  0.00000000000E+00  0.00000000000E+00  0.13498535456E+03  0.13498535456E+03  0.00000000000E+00 0. -1.
         -2   -1    0    0    0  501 -0.00000000000E+00 -0.00000000000E+00 -0.42099893024E+03  0.42099893024E+03  0.00000000000E+00 0.  1.
         23    2    1    2    0    0  0.24375566132E+02  0.90432541633E+01  0.75114413502E+02  0.12204029062E+03  0.92605122697E+02 0.  0.
        -24    2    1    2    0    0 -0.35645647219E+02  0.92191897154E+02 -0.12581288586E+03  0.17752876755E+03  0.76926087858E+02 0.  0.
         11    1    4    4    0    0 -0.49534102089E+02  0.79177938934E+02 -0.64951079491E+02  0.11376034463E+03  0.00000000000E+00 0. -1.
        -12    1    4    4    0    0  0.13888454870E+02  0.13013958220E+02 -0.60861806366E+02  0.63768422917E+02  0.00000000000E+00 0.  1.
        -13    1    3    3    0    0 -0.98084334526E+01 -0.37206788260E+02  0.26325960291E+02  0.46621954535E+02  0.00000000000E+00 0.  1.
         13    1    3    3    0    0  0.34183999585E+02  0.46250042423E+02  0.48788453211E+02  0.75418336089E+02  0.00000000000E+00 0. -1.
         -1    1    1    2    0  502  0.11270081087E+02 -0.10123515132E+03 -0.23531510332E+03  0.25641522662E+03  0.00000000000E+00 0.  1.
<scales pt_clust_5="13000.00000" pt_clust_6="13000.00000" pt_clust_7="13000.00000" pt_clust_8="13000.00000" pt_clust_9="99.20447"></scales>
<clustering>
<clus scale="   76.926">  5  6 -1 -1</clus>
<clus scale="   92.605">  7  8 -1 -1</clus>
<clus scale="   96.186">  2  7  1 -1</clus>
<clus scale="   99.204">  1  9  2 -1</clus>
<clus scale="   99.204">  1  5  2 -1</clus>
</clustering>
</event>
<event>
 9    1  0.9171696E-005  0.1005868E+03  0.7546771E-02  0.1284403E+00
         21   -1    0    0  501  502  0.00000000000E+00  0.00000000000E+00  0.60599330105E+03  0.60599330105E+03  0.00000000000E+00 0. -1.
          1   -1    0    0  502    0 -0.00000000000E+00 -0.00000000000E+00 -0.32903916178E+02  0.32903916178E+02  0.00000000000E+00 0. -1.
        -24    2    1    2    0    0  0.39187053246E+02  0.17577238083E+02  0.83587514114E+02  0.12413007467E+03  0.81097586168E+02 0.  0.
         23    2    1    2    0    0 -0.45117516316E+02  0.30072038833E+02  0.27489954601E+03  0.29485856662E+03  0.91825356590E+02 0.  0.
         13    1    3    3    0    0  0.36774981779E+02  0.22418793707E+02  0.27988961819E+01  0.43160577104E+02  0.00000000000E+00 0. -1.
        -14    1    3    3    0    0  0.24120714678E+01 -0.48415556239E+01  0.80788617932E+02  0.80969497571E+02  0.00000000000E+00 0.  1.
        -13    1    4    4    0    0 -0.37905818255E+02  0.56023436781E+02  0.24693526163E+03  0.25603222446E+03  0.00000000000E+00 0. -1.
         13    1    4    4    0    0 -0.72116980612E+01 -0.25951397948E+02  0.27964284384E+02  0.38826342160E+02  0.00000000000E+00 0.  1.
          2    1    1    2  501    0  0.59304630701E+01 -0.47649276916E+02  0.21460232475E+03  0.21990857593E+03  0.00000000000E+00 0. -1.
<scales pt_clust_5="13000.00000" pt_clust_6="13000.00000" pt_clust_7="13000.00000" pt_clust_8="13000.00000" pt_clust_9="48.01691"></scales>
<clustering>
<clus scale="   48.017">  1  9  2 -1</clus>
<clus scale="   81.098">  5  6 -1 -1</clus>
<clus scale="   90.899">  2  5  1 -1</clus>
<clus scale="   91.825">  7  8 -1 -1</clus>
<clus scale="   48.017">  1  5  2 -1</clus>
</clustering>
</event>
<event>
 9    1  0.9171696E-005  0.1919346E+03  0.7546771E-02  0.1167311E+00
         21   -1    0    0  501  502  0.00000000000E+00  0.00000000000E+00  0.77057146871E+02  0.77057146871E+02  0.00000000000E+00 0.  1.
          1   -1    0    0  502    0 -0.00000000000E+00 -0.00000000000E+00 -0.15725638064E+04  0.15725638064E+04  0.00000000000E+00 0. -1.
         23    2    1    2    0    0 -0.47220909688E+02  0.10930054873E+03 -0.15878770229E+03  0.21854020226E+03  0.91486946299E+02 0.  0.
        -24    2    1    2    0    0 -0.15992372500E+03 -0.65261062268E+02 -0.20527987200E+03  0.27999310028E+03  0.80135549477E+02 0.  0.
         13    1    4    4    0    0 -0.11182214958E+03 -0.82161732359E+02 -0.16016573066E+03  0.21191461648E+03  0.00000000000E+00 0. -1.
        -14    1    4    4    0    0 -0.48101575419E+02  0.16900670091E+02 -0.45114141343E+02  0.68078483799E+02  0.00000000000E+00 0.  1.
        -11    1    3    3    0    0  0.32993530833E+00  0.27646988951E+02 -0.10756011488E+03  0.11105693661E+03  0.00000000000E+00 0. -1.
         11    1    3    3    0    0 -0.47550844997E+02  0.81653559778E+02 -0.51227587404E+02  0.10748326565E+03  0.00000000000E+00 0.  1.
          2    1    1    2  501    0  0.20714463469E+03 -0.44039486461E+02 -0.11314390852E+04  0.11510876507E+04  0.00000000000E+00 0. -1.
<scales pt_clust_5="13000.00000" pt_clust_6="13000.00000" pt_clust_7="13000.00000" pt_clust_8="13000.00000" pt_clust_9="174.40535"></scales>
<clustering>
<clus scale="   80.136">  5  6 -1 -1</clus>
<clus scale="   91.487">  7  8 -1 -1</clus>
<clus scale="  150.154">  2  7  1 -1</clus>
<clus scale="  174.405">  1  9  2 -1</clus>
<clus scale="  174.405">  1  5  2 -1</clus>
</clustering>
</event>
<event>
 9    1  0.9171696E-005  0.1026065E+03  0.7546771E-02  0.1280146E+00
         21   -1    0    0  501  502  0.00000000000E+00  0.00000000000E+00  0.10399202340E+03  0.10399202340E+03  0.00000000000E+00 0. -1.
          1   -1    0    0  502    0 -0.00000000000E+00 -0.00000000000E+00 -0.20269242992E+03  0.20269242992E+03  0.00000000000E+00 0. -1.
         23    2    1    2    0    0  0.35067414789E+02 -0.49479932703E+02 -0.89180849066E+02  0.14214889648E+03  0.92601822925E+02 0.  0.
        -24    2    1    2    0    0 -0.13280236417E+02 -0.43084295123E+01  0.36458538114E+02  0.90496011167E+02  0.81641752747E+02 0.  0.
         11    1    4    4    0    0  0.14667983979E+02 -0.22900982353E+02  0.47858166804E+02  0.55045516407E+02  0.00000000000E+00 0. -1.
        -12    1    4    4    0    0 -0.27948220396E+02  0.18592552840E+02 -0.11399628690E+02  0.35450494759E+02  0.00000000000E+00 0.  1.
        -11    1    3    3    0    0 -0.27661269027E+02 -0.37271276147E+02 -0.43329249719E+02  0.63495808610E+02  0.00000000000E+00 0.  1.
         11    1    3    3    0    0  0.62728683816E+02 -0.12208656556E+02 -0.45851599346E+02  0.78653087866E+02  0.00000000000E+00 0. -1.
          2    1    1    2  501    0 -0.21787178372E+02  0.53788362215E+02 -0.45978095572E+02  0.74039545674E+02  0.00000000000E+00 0. -1.
<scales pt_clust_5="13000.00000" pt_clust_6="13000.00000" pt_clust_7="13000.00000" pt_clust_8="13000.00000" pt_clust_9="58.03337"></scales>
<clustering>
<clus scale="   58.033">  1  9  2 -1</clus>
<clus scale="   81.642">  5  6 -1 -1</clus>
<clus scale="   92.602">  7  8 -1 -1</clus>
<clus scale="   92.835">  1  5  2 -1</clus>
<clus scale="   58.033">  1  5  2 -1</clus>
</clustering>
</event>
<event>
 9    1  0.9171696E-005  0.1332852E+03  0.7546771E-02  0.1225192E+00
         21   -1    0    0  501  502  0.00000000000E+00  0.00000000000E+00  0.45250935505E+02  0.45250935505E+02  0.00000000000E+00 0.  1.
          1   -1    0    0  502    0 -0.00000000000E+00 -0.00000000000E+00 -0.90458323443E+03  0.90458323443E+03  0.00000000000E+00 0. -1.
         23    2    1    2    0    0  0.74191888118E+02 -0.32543015558E+02 -0.41845705935E+03  0.43570334646E+03  0.90374838742E+02 0.  0.
        -24    2    1    2    0    0 -0.88755223464E+02  0.12146464227E+03 -0.32896055273E+03  0.37045047142E+03  0.79920945361E+02 0.  0.
         13    1    4    4    0    0 -0.11098917046E+02  0.41292875871E+02 -0.17585903361E+03  0.18098256065E+03  0.00000000000E+00 0. -1.
        -14    1    4    4    0    0 -0.77656306417E+02  0.80171766399E+02 -0.15310151912E+03  0.18946791077E+03  0.00000000000E+00 0.  1.
        -13    1    3    3    0    0  0.93247933192E+02 -0.13865415108E+02 -0.34030566182E+03  0.35312231627E+03  0.00000000000E+00 0. -1.
         13    1    3    3    0    0 -0.19056045074E+02 -0.18677600450E+02 -0.78151397532E+02  0.82581030198E+02  0.00000000000E+00 0.  1.
          2    1    1    2  501    0  0.14563335345E+02 -0.88921626713E+02 -0.11191468684E+03  0.14368035205E+03  0.00000000000E+00 0. -1.
<scales pt_clust_5="13000.00000" pt_clust_6="13000.00000" pt_clust_7="13000.00000" pt_clust_8="13000.00000" pt_clust_9="90.10631"></scales>
<clustering>
<clus scale="   79.921">  5  6 -1 -1</clus>
<clus scale="   90.106">  1  9  2 -1</clus>
<clus scale="   90.375">  7  8 -1 -1</clus>
<clus scale="  126.431">  1  5  2 -1</clus>
<clus scale="   90.106">  1  5  2 -1</clus>
</clustering>
</event>
<event>
 9    1  0.9171696E-005  0.1018752E+03  0.7546771E-02  0.1280622E+00
          1   -1    0    0  502    0 -0.00000000000E+00  0.00000000000E+00  0.29320340394E+03  0.29320340394E+03  0.00000000000E+00 0. -1.
         21   -1    0    0  501  502  0.00000000000E+00 -0.00000000000E+00 -0.20788762854E+03  0.20788762854E+03  0.00000000000E+00 0. -1.
         23    2    1    2    0    0  0.22908930687E+02  0.26634922170E+02  0.15089468486E+03  0.18152101139E+03  0.94585588086E+02 0.  0.
        -24    2    1    2    0    0 -0.10737181962E+03  0.14608840583E+02 -0.14353527586E+03  0.19745440933E+03  0.81509155774E+02 0.  0.
         13    1    4    4    0    0 -0.92455539329E+02 -0.22279990247E+02 -0.91732096689E+02  0.13213327469E+03  0.00000000000E+00 0. -1.
        -14    1    4    4    0    0 -0.14916280291E+02  0.36888830830E+02 -0.51803179174E+02  0.65321134637E+02  0.00000000000E+00 0.  1.
        -13    1    3    3    0    0 -0.22923841502E+02 -0.23513889281E+02  0.53424508769E+02  0.62710315224E+02  0.00000000000E+00 0.  1.
         13    1    3    3    0    0  0.45832772189E+02  0.50148811452E+02  0.97470176094E+02  0.11881069617E+03  0.00000000000E+00 0. -1.
          2    1    1    2  501    0  0.84462888933E+02 -0.41243762754E+02  0.77956366404E+02  0.12211561176E+03  0.00000000000E+00 0. -1.
<scales pt_clust_5="13000.00000" pt_clust_6="13000.00000" pt_clust_7="13000.00000" pt_clust_8="13000.00000" pt_clust_9="93.99487"></scales>
<clustering>
<clus scale="   81.509">  5  6 -1 -1</clus>
<clus scale="   93.995">  2  9  1 -1</clus>
<clus scale="   93.995">  2  5  1 -1</clus>
<clus scale="   94.586">  7  8 -1 -1</clus>
<clus scale="   93.995">  2  5  1 -1</clus>
</clustering>
</event>
<event>
 9    1  0.9171696E-005  0.8981215E+02  0.7546771E-02  0.1306669E+00
         21   -1    0    0  501  502  0.00000000000E+00  0.00000000000E+00  0.10878256322E+03  0.10878256322E+03  0.00000000000E+00 0. -1.
          1   -1    0    0  502    0 -0.00000000000E+00 -0.00000000000E+00 -0.31346290380E+03  0.31346290380E+03  0.00000000000E+00 0. -1.
        -24    2    1    2    0    0  0.38445605001E+01  0.18533129492E+02 -0.21315816774E+03  0.22853493805E+03  0.80209450187E+02 0.  0.
         23    2    1    2    0    0  0.67196299728E+01 -0.58244902610E+02 -0.55376765461E+02  0.11777610961E+03  0.85831251511E+02 0.  0.
         13    1    3    3    0    0 -0.29649754637E+02 -0.15771410284E+02 -0.71764357022E+02  0.79233630935E+02  0.00000000000E+00 0. -1.
        -14    1    3    3    0    0  0.33494315137E+02  0.34304539776E+02 -0.14139381072E+03  0.14930130711E+03  0.00000000000E+00 0.  1.
        -13    1    4    4    0    0 -0.16008346500E+02 -0.46857535436E+02 -0.72013666192E+02  0.87394873438E+02  0.00000000000E+00 0. -1.
         13    1    4    4    0    0  0.22727976472E+02 -0.11387367175E+02  0.16636900731E+02  0.30381236177E+02  0.00000000000E+00 0.  1.
          2    1    1    2  501    0 -0.10564190473E+02  0.39711773118E+02  0.63854592618E+02  0.75934419356E+02  0.00000000000E+00 0. -1.
<scales pt_clust_5="13000.00000" pt_clust_6="13000.00000" pt_clust_7="13000.00000" pt_clust_8="13000.00000" pt_clust_9="41.09291"></scales>
<clustering>
<clus scale="   41.093">  1  9  2 -1</clus>
<clus scale="   80.209">  5  6 -1 -1</clus>
<clus scale="   84.456">  2  5  1 -1</clus>
<clus scale="   85.831">  7  8 -1 -1</clus>
<clus scale="   41.093">  1  5  2 -1</clus>
</clustering>
</event>
<event>
 9    1  0.9171696E-005  0.1034105E+03  0.7546771E-02  0.1279232E+00
          3   -1    0    0  502    0 -0.00000000000E+00  0.00000000000E+00  0.10927024739E+03  0.10927024739E+03  0.00000000000E+00 0. -1.
         21   -1    0    0  501  502  0.00000000000E+00 -0.00000000000E+00 -0.20757105459E+03  0.20757105459E+03  0.00000000000E+00 0. -1.
         23    2    1    2    0    0  0.27675385015E+02 -0.29232723478E+02  0.24318738174E+02  0.10257972244E+03  0.91163147004E+02 0.  0.
        -24    2    1    2    0    0 -0.83675139681E+02  0.17828889691E+02 -0.98755413540E+02  0.15233003075E+03  0.78309694529E+02 0.  0.
         13    1    4    4    0    0 -0.72022020181E+02  0.71864229219E+00 -0.10787392232E+03  0.12970917837E+03  0.00000000000E+00 0. -1.
        -14    1    4    4    0    0 -0.11653119499E+02  0.17110247399E+02  0.91185087765E+01  0.22620852381E+02  0.00000000000E+00 0.  1.
        -11    1    3    3    0    0  0.11931732644E+02  0.32171941110E+02  0.18341523283E+02  0.38907730787E+02  0.00000000000E+00 0.  1.
         11    1    3    3    0    0  0.15743652370E+02 -0.61404664587E+02  0.59772148910E+01  0.63671991652E+02  0.00000000000E+00 0. -1.
          4    1    1    2  501    0  0.55999754666E+02  0.11403833787E+02 -0.23864131837E+02  0.61931548794E+02  0.00000000000E+00 0. -1.
<scales pt_clust_5="13000.00000" pt_clust_6="13000.00000" pt_clust_7="13000.00000" pt_clust_8="13000.00000" pt_clust_9="57.14910"></scales>
<clustering>
<clus scale="   57.149">  2  9  1 -1</clus>
<clus scale="   78.310">  5  6 -1 -1</clus>
<clus scale="   91.163">  7  8 -1 -1</clus>
<clus scale="   92.279">  2  5  1 -1</clus>
<clus scale="   57.149">  2  5  1 -1</clus>
</clustering>
</event>
<event>
 9    1  0.9171696E-005  0.1011392E+03  0.7546771E-02  0.1282695E+00
         21   -1    0    0  501  502  0.00000000000E+00  0.00000000000E+00  0.98082161404E+02  0.98082161404E+02  0.00000000000E+00 0.  1.
          3   -1    0    0  502    0 -0.00000000000E+00 -0.00000000000E+00 -0.15739847344E+03  0.15739847344E+03  0.00000000000E+00 0. -1.
        -24    2    1    2    0    0  0.49788572472E+02 -0.33422719405E+02 -0.25738100639E+02  0.10351965641E+03  0.80360993755E+02 0.  0.
         23    2    1    2    0    0 -0.12119724578E+02  0.27009790272E+02  0.81318376022E+01  0.95394239539E+02  0.90318977298E+02 0.  0.
         11    1    3    3    0    0  0.19514438967E+02  0.20989874874E+02 -0.29511567920E+02  0.41137827076E+02  0.00000000000E+00 0. -1.
        -12    1    3    3    0    0  0.30274133505E+02 -0.54412594279E+02  0.37734672820E+01  0.62381829333E+02  0.00000000000E+00 0.  1.
        -13    1    4    4    0    0  0.30046659490E+02  0.40808448840E+02  0.47468941109E+01  0.50898568221E+02  0.00000000000E+00 0.  1.
         13    1    4    4    0    0 -0.42166384068E+02 -0.13798658568E+02  0.33849434914E+01  0.44495671319E+02  0.00000000000E+00 0. -1.
          4    1    1    2  501    0 -0.37668847894E+02  0.64129291332E+01 -0.41710048995E+02  0.56566738892E+02  0.00000000000E+00 0. -1.
<scales pt_clust_5="13000.00000" pt_clust_6="13000.00000" pt_clust_7="13000.00000" pt_clust_8="13000.00000" pt_clust_9="38.21085"></scales>
<clustering>
<clus scale="   38.211">  1  9  2 -1</clus>
<clus scale="   80.361">  5  6 -1 -1</clus>
<clus scale="   90.319">  7  8 -1 -1</clus>
<clus scale="   92.355">  2  5  1 -1</clus>
<clus scale="   38.211">  1  5  2 -1</clus>
</clustering>
</event>
<event>
 9    1  0.9171696E-005  0.1065628E+03  0.7546771E-02  0.1273305E+00
         21   -1    0    0  501  502  0.00000000000E+00  0.00000000000E+00  0.30139812900E+02  0.30139812900E+02  0.00000000000E+00 0.  1.
          1   -1    0    0  502    0 -0.00000000000E+00 -0.00000000000E+00 -0.85424950162E+03  0.85424950162E+03  0.00000000000E+00 0. -1.
        -24    2    1    2    0    0  0.34257948680E+02  0.41677413203E+02 -0.52292806870E+03  0.53143314819E+03  0.77825523711E+02 0.  0.
         23    2    1    2    0    0  0.31264678874E+01 -0.65355319364E+02 -0.11363439134E+03  0.16025899244E+03  0.92136188280E+02 0.  0.
         11    1    3    3    0    0  0.54816410668E+02  0.83817107569E+01 -0.31918923345E+03  0.32397045962E+03  0.00000000000E+00 0. -1.
        -12    1    3    3    0    0 -0.20558461989E+02  0.33295702446E+02 -0.20373883525E+03  0.20746268857E+03  0.00000000000E+00 0.  1.
        -11    1    4    4    0    0  0.46789642951E+02 -0.27208585911E+02 -0.44808448116E+02  0.70266456132E+02  0.00000000000E+00 0. -1.
         11    1    4    4    0    0 -0.43663175064E+02 -0.38146733453E+02 -0.68825943228E+02  0.89992536307E+02  0.00000000000E+00 0.  1.
          2    1    1    2  501    0 -0.37384416567E+02  0.23677906161E+02 -0.18754722868E+03  0.19269717390E+03  0.00000000000E+00 0. -1.
<scales pt_clust_5="13000.00000" pt_clust_6="13000.00000" pt_clust_7="13000.00000" pt_clust_8="13000.00000" pt_clust_9="44.25200"></scales>
<clustering>
<clus scale="   44.252">  1  9  2 -1</clus>
<clus scale="   77.826">  5  6 -1 -1</clus>
<clus scale="   92.136">  7  8 -1 -1</clus>
<clus scale="   94.464">  2  5  1 -1</clus>
<clus scale="   44.252">  1  5  2 -1</clus>
</clustering>
</event>
<event>
 9    1  0.9171696E-005  0.2108592E+03  0.7546771E-02  0.1141591E+00
         21   -1    0    0  501  502  0.00000000000E+00  0.00000000000E+00  0.75157848937E+03  0.75157848937E+03  0.00000000000E+00 0. -1.
          1   -1    0    0  502    0 -0.00000000000E+00 -0.00000000000E+00 -0.12880265692E+03  0.12880265692E+03  0.00000000000E+00 0. -1.
         23    2    1    2    0    0  0.67515622595E+02  0.18822303665E+03  0.13154325885E+02  0.21945256017E+03  0.89443384634E+02 0.  0.
        -24    2    1    2    0    0 -0.58970032319E+02 -0.13390912636E+03  0.56770421096E+03  0.59179040828E+03  0.80738450264E+02 0.  0.
         13    1    4    4    0    0 -0.27570475150E+02 -0.12067769115E+03  0.50972150544E+03  0.52453717633E+03  0.00000000000E+00 0. -1.
        -14    1    4    4    0    0 -0.31399557169E+02 -0.13231435217E+02  0.57982705522E+02  0.67253231952E+02  0.00000000000E+00 0.  1.
        -11    1    3    3    0    0  0.23897246135E+02  0.66214768334E+02  0.48091648403E+02  0.85254211418E+02  0.00000000000E+00 0.  1.
         11    1    3    3    0    0  0.43618376460E+02  0.12200826832E+03 -0.34937322518E+02  0.13419834875E+03  0.00000000000E+00 0. -1.
          2    1    1    2  501    0 -0.85455902759E+01 -0.54313910293E+02  0.41917295598E+02  0.69138177838E+02  0.00000000000E+00 0. -1.
<scales pt_clust_5="13000.00000" pt_clust_6="13000.00000" pt_clust_7="13000.00000" pt_clust_8="13000.00000" pt_clust_9="54.98210"></scales>
<clustering>
<clus scale="   54.982">  1  9  2 -1</clus>
<clus scale="   80.738">  5  6 -1 -1</clus>
<clus scale="   89.443">  7  8 -1 -1</clus>
<clus scale="  207.317">  1  5  2 -1</clus>
<clus scale="   54.982">  1  5  2 -1</clus>
</clustering>
</event>
<event>
 9    1  0.9171696E-005  0.2384611E+03  0.7546771E-02  0.1121505E+00
         21   -1    0    0  501  502  0.00000000000E+00  0.00000000000E+00  0.26240876855E+03  0.26240876855E+03  0.00000000000E+00 0. -1.
          3   -1    0    0  502    0 -0.00000000000E+00 -0.00000000000E+00 -0.62112654886E+03  0.62112654886E+03  0.00000000000E+00 0. -1.
         23    2    1    2    0    0  0.14192899878E+03 -0.18149731615E+03 -0.51855305365E+03  0.57469004809E+03  0.91028926503E+02 0.  0.
        -24    2    1    2    0    0 -0.75026108083E+02  0.13701179785E+03  0.14395586273E+03  0.22694829864E+03  0.79881726330E+02 0.  0.
         11    1    4    4    0    0 -0.26086005291E+02  0.10860433786E+03  0.12414093031E+03  0.16699207302E+03  0.00000000000E+00 0. -1.
        -12    1    4    4    0    0 -0.48940102792E+02  0.28407459986E+02  0.19814932415E+02  0.59956225622E+02  0.00000000000E+00 0.  1.
        -13    1    3    3    0    0  0.10397845836E+03 -0.15177011057E+03 -0.47626832051E+03  0.51056556816E+03  0.00000000000E+00 0. -1.
         13    1    3    3    0    0  0.37950540426E+02 -0.29727205585E+02 -0.42284733141E+02  0.64124479938E+02  0.00000000000E+00 0.  1.
          4    1    1    2  501    0 -0.66902890699E+02  0.44485518308E+02  0.15879410614E+02  0.81896970667E+02  0.00000000000E+00 0. -1.
<scales pt_clust_5="13000.00000" pt_clust_6="13000.00000" pt_clust_7="13000.00000" pt_clust_8="13000.00000" pt_clust_9="80.34275"></scales>
<clustering>
<clus scale="   79.882">  5  6 -1 -1</clus>
<clus scale="   80.343">  1  9  2 -1</clus>
<clus scale="   91.029">  7  8 -1 -1</clus>
<clus scale="  234.432">  1  5  2 -1</clus>
<clus scale="   80.343">  1  5  2 -1</clus>
</clustering>
</event>
<event>
 9    1  0.9171696E-005  0.1013697E+03  0.7546771E-02  0.1283662E+00
         -2   -1    0    0    0  501 -0.00000000000E+00  0.00000000000E+00  0.10538205645E+03  0.10538205645E+03  0.00000000000E+00 0.  1.
         21   -1    0    0  501  502  0.00000000000E+00 -0.00000000000E+00 -0.16495773692E+03  0.16495773692E+03  0.00000000000E+00 0. -1.
        -24    2    1    2    0    0 -0.36918832721E+02 -0.16285325683E+02  0.44783010072E+02  0.99257142667E+02  0.78855883340E+02 0.  0.
         23    2    1    2    0    0  0.41400917052E+02  0.39716888240E+02 -0.68226402368E+02  0.12778519752E+03  0.91557345854E+02 0.  0.
         13    1    3    3    0    0 -0.47537158860E+02  0.69996666443E+01  0.43145148189E+00  0.48051669649E+02  0.00000000000E+00 0. -1.
        -14    1    3    3    0    0  0.10618326140E+02 -0.23284992327E+02  0.44351558590E+02  0.51205473019E+02  0.00000000000E+00 0.  1.
        -13    1    4    4    0    0  0.13707641470E+02  0.48019742519E+02  0.38902482495E+01  0.50089211789E+02  0.00000000000E+00 0. -1.
         13    1    4    4    0    0  0.27693275583E+02 -0.83028542794E+01 -0.72116650617E+02  0.77695985726E+02  0.00000000000E+00 0.  1.
         -1    1    1    2    0  502 -0.44820843316E+01 -0.23431562557E+02 -0.36132288175E+02  0.43297453188E+02  0.00000000000E+00 0.  1.
<scales pt_clust_5="13000.00000" pt_clust_6="13000.00000" pt_clust_7="13000.00000" pt_clust_8="13000.00000" pt_clust_9="23.85639"></scales>
<clustering>
<clus scale="   23.856">  2  9  1 -1</clus>
<clus scale="   78.856">  5  6 -1 -1</clus>
<clus scale="   90.063">  1  5  2 -1</clus>
<clus scale="   91.557">  7  8 -1 -1</clus>
<clus scale="   23.856">  2  5  1 -1</clus>
</clustering>
</event>
<event>
 9    1  0.9171696E-005  0.1576172E+03  0.7546771E-02  0.1208601E+00
         21   -1    0    0  501  502  0.00000000000E+00  0.00000000000E+00  0.53767734194E+02  0.53767734194E+02  0.00000000000E+00 0.  1.
          1   -1    0    0  502    0 -0.00000000000E+00 -0.00000000000E+00 -0.83890616881E+03  0.83890616881E+03  0.00000000000E+00 0. -1.
        -24    2    1    2    0    0  0.29648610002E+02  0.66122346491E+02 -0.34103932711E+03  0.35788587478E+03  0.80766775056E+02 0.  0.
         23    2    1    2    0    0 -0.10612049528E+02  0.95965866745E+02 -0.20640532197E+03  0.24645954335E+03  0.93899341834E+02 0.  0.
         13    1    3    3    0    0  0.54135750890E+02  0.57133186968E+02 -0.20976821316E+03  0.22404817301E+03  0.00000000000E+00 0. -1.
        -14    1    3    3    0    0 -0.24487140887E+02  0.89891595227E+01 -0.13127111395E+03  0.13383770177E+03  0.00000000000E+00 0.  1.
        -13    1    4    4    0    0 -0.48488919722E+02  0.28569973431E+02 -0.10268430523E+03  0.11709605142E+03  0.00000000000E+00 0. -1.
         13    1    4    4    0    0  0.37876870194E+02  0.67395893314E+02 -0.10372101673E+03  0.12936349193E+03  0.00000000000E+00 0.  1.
          2    1    1    2  501    0 -0.19036560474E+02 -0.16208821324E+03 -0.23769378555E+03  0.28832848488E+03  0.00000000000E+00 0. -1.
<scales pt_clust_5="13000.00000" pt_clust_6="13000.00000" pt_clust_7="13000.00000" pt_clust_8="13000.00000" pt_clust_9="126.59434"></scales>
<clustering>
<clus scale="   80.767">  5  6 -1 -1</clus>
<clus scale="   93.899">  7  8 -1 -1</clus>
<clus scale="  108.510">  2  5  1 -1</clus>
<clus scale="  126.594">  1  9  2 -1</clus>
<clus scale="  126.594">  1  5  2 -1</clus>
</clustering>
</event>
<event>
 9    1  0.9171696E-005  0.1449324E+03  0.7546771E-02  0.1210256E+00
         21   -1    0    0  501  502  0.00000000000E+00  0.00000000000E+00  0.10603298322E+03  0.10603298322E+03  0.00000000000E+00 0.  1.
          1   -1    0    0  502    0 -0.00000000000E+00 -0.00000000000E+00 -0.36104740037E+03  0.36104740037E+03  0.00000000000E+00 0. -1.
        -24    2    1    2    0    0 -0.26776803832E+02  0.10115513665E+03 -0.19375013637E+03  0.23394401618E+03  0.79002078898E+02 0.  0.
         23    2    1    2    0    0 -0.58514528338E+01 -0.12244782616E+03 -0.94596589250E+02  0.18186235306E+03  0.95381817621E+02 0.  0.
         13    1    3    3    0    0  0.11297916170E+02  0.62838426284E+02 -0.15450091571E+03  0.16717309498E+03  0.00000000000E+00 0. -1.
        -14    1    3    3    0    0 -0.38074720002E+02  0.38316710364E+02 -0.39249220651E+02  0.66770921201E+02  0.00000000000E+00 0.  1.
        -11    1    4    4    0    0  0.19861276338E+02 -0.26216955544E+02 -0.72819197140E+02  0.79902656576E+02  0.00000000000E+00 0. -1.
         11    1    4    4    0    0 -0.25712729171E+02 -0.96230870614E+02 -0.21777392110E+02  0.10195969649E+03  0.00000000000E+00 0.  1.
          2    1    1    2  501    0  0.32628256666E+02  0.21292689510E+02  0.33332308466E+02  0.51274014347E+02  0.00000000000E+00 0. -1.
<scales pt_clust_5="13000.00000" pt_clust_6="13000.00000" pt_clust_7="13000.00000" pt_clust_8="13000.00000" pt_clust_9="38.96129"></scales>
<clustering>
<clus scale="   38.961">  1  9  2 -1</clus>
<clus scale="   79.002">  5  6 -1 -1</clus>
<clus scale="   95.382">  7  8 -1 -1</clus>
<clus scale="  134.718">  2  5  1 -1</clus>
<clus scale="   38.961">  1  5  2 -1</clus>
</clustering>
</event>
<event>
 9    1  0.9171696E-005  0.2884939E+03  0.7546771E-02  0.1116813E+00
         21   -1    0    0  501  502  0.00000000000E+00  0.00000000000E+00  0.21265421826E+03  0.21265421826E+03  0.00000000000E+00 0. -1.
          1   -1    0    0  502    0 -0.00000000000E+00 -0.00000000000E+00 -0.66147298494E+03  0.66147298494E+03  0.00000000000E+00 0. -1.
         23    2    1    2    0    0  0.96453735759E+02  0.67560745599E+02 -0.14703416954E+03  0.20926318688E+03  0.91127695476E+02 0.  0.
        -24    2    1    2    0    0 -0.22092259715E+03 -0.26766757591E+03 -0.19543976162E+03  0.40632105077E+03  0.80295521349E+02 0.  0.
         11    1    4    4    0    0 -0.19725355445E+03 -0.26738479253E+03 -0.17821582279E+03  0.37704704152E+03  0.00000000000E+00 0. -1.
        -12    1    4    4    0    0 -0.23669042700E+02 -0.28278337279E+00 -0.17223938830E+02  0.29274009250E+02  0.00000000000E+00 0.  1.
        -11    1    3    3    0    0  0.93396488018E+02  0.14310606246E+02 -0.10576665280E+03  0.14182482952E+03  0.00000000000E+00 0.  1.
         11    1    3    3    0    0  0.30572477409E+01  0.53250139353E+02 -0.41267516746E+02  0.67438357359E+02  0.00000000000E+00 0. -1.
          2    1    1    2  501    0  0.12446886139E+03  0.20010683031E+03 -0.10634483552E+03  0.25854296555E+03  0.00000000000E+00 0. -1.
<scales pt_clust_5="13000.00000" pt_clust_6="13000.00000" pt_clust_7="13000.00000" pt_clust_8="13000.00000" pt_clust_9="277.09447"></scales>
<clustering>
<clus scale="   80.296">  5  6 -1 -1</clus>
<clus scale="   91.128">  7  8 -1 -1</clus>
<clus scale="  148.903">  2  7  1 -1</clus>
<clus scale="  277.094">  1  9  2 -1</clus>
<clus scale="  277.094">  1  5  2 -1</clus>
</clustering>
</event>
<event>
 9    1  0.9171696E-005  0.9290235E+02  0.7546771E-02  0.1302420E+00
         21   -1    0    0  501  502  0.00000000000E+00  0.00000000000E+00  0.31539261797E+03  0.31539261797E+03  0.00000000000E+00 0. -1.
         -2   -1    0    0    0  501 -0.00000000000E+00 -0.00000000000E+00 -0.78471102707E+02  0.78471102707E+02  0.00000000000E+00 0.  1.
         23    2    1    2    0    0  0.95226537583E+01 -0.21408274378E+02 -0.13061998766E+02  0.94886847068E+02  0.91015947989E+02 0.  0.
        -24    2    1    2    0    0  0.25988464822E+02 -0.21505207551E+01  0.24106765824E+03  0.25543897224E+03  0.80345675965E+02 0.  0.
         13    1    4    4    0    0  0.49714092677E+02  0.61010103690E+00  0.21231864138E+03  0.21806207536E+03  0.00000000000E+00 0. -1.
        -14    1    4    4    0    0 -0.23725627855E+02 -0.27606217920E+01  0.28749016864E+02  0.37376896881E+02  0.00000000000E+00 0.  1.
        -13    1    3    3    0    0 -0.12713617195E+02 -0.45617262356E+02  0.17026849733E+02  0.50323794560E+02  0.00000000000E+00 0.  1.
         13    1    3    3    0    0  0.22236270954E+02  0.24208987978E+02 -0.30088848499E+02  0.44563052508E+02  0.00000000000E+00 0. -1.
         -1    1    1    2    0  502 -0.35511118580E+02  0.23558795133E+02  0.89158557867E+01  0.43537901366E+02  0.00000000000E+00 0.  1.
<scales pt_clust_5="13000.00000" pt_clust_6="13000.00000" pt_clust_7="13000.00000" pt_clust_8="13000.00000" pt_clust_9="42.61523"></scales>
<clustering>
<clus scale="   42.615">  1  9  2 -1</clus>
<clus scale="   80.346">  5  6 -1 -1</clus>
<clus scale="   82.476">  1  5  2 -1</clus>
<clus scale="   91.016">  7  8 -1 -1</clus>
<clus scale="   42.615">  1  5  2 -1</clus>
</clustering>
</event>
<event>
 9    1  0.9171696E-005  0.1120164E+03  0.7546771E-02  0.1259179E+00
         21   -1    0    0  501  502  0.00000000000E+00  0.00000000000E+00  0.20366788492E+03  0.20366788492E+03  0.00000000000E+00 0.  1.
         -2   -1    0    0    0  501 -0.00000000000E+00 -0.00000000000E+00 -0.23414449142E+03  0.23414449142E+03  0.00000000000E+00 0.  1.
        -24    2    1    2    0    0 -0.24568925828E+02  0.81233222321E+02 -0.14024183033E+03  0.18299273192E+03  0.81339415027E+02 0.  0.
         23    2    1    2    0    0 -0.38750785699E+02 -0.44941217538E+02 -0.18206916982E+02  0.10749902704E+03  0.87767947236E+02 0.  0.
         11    1    3    3    0    0 -0.11654772940E+02  0.61680590871E+02 -0.28710165874E+02  0.69026101201E+02  0.00000000000E+00 0. -1.
        -12    1    3    3    0    0 -0.12914152888E+02  0.19552631450E+02 -0.11153166446E+03  0.11396663072E+03  0.00000000000E+00 0.  1.
        -13    1    4    4    0    0 -0.18132806434E+02 -0.95813785924E+01 -0.51052663756E+02  0.55017960354E+02  0.00000000000E+00 0. -1.
         13    1    4    4    0    0 -0.20617979266E+02 -0.35359838945E+02  0.32845746774E+02  0.52481066685E+02  0.00000000000E+00 0.  1.
         -1    1    1    2    0  502  0.63319711527E+02 -0.36292004783E+02  0.12797214082E+03  0.14732061738E+03  0.00000000000E+00 0.  1.
<scales pt_clust_5="13000.00000" pt_clust_6="13000.00000" pt_clust_7="13000.00000" pt_clust_8="13000.00000" pt_clust_9="72.98284"></scales>
<clustering>
<clus scale="   72.983">  1  9  2 -1</clus>
<clus scale="   81.339">  5  6 -1 -1</clus>
<clus scale="   87.768">  7  8 -1 -1</clus>
<clus scale="  107.054">  2  5  1 -1</clus>
<clus scale="   72.983">  1  5  2 -1</clus>
</clustering>
</event>
<event>
 9    1  0.9171696E-005  0.9407300E+02  0.7546771E-02  0.1301892E+00
         21   -1    0    0  501  502  0.00000000000E+00  0.00000000000E+00  0.25529606301E+03  0.25529606301E+03  0.00000000000E+00 0.  1.
         -4   -1    0    0    0  501 -0.00000000000E+00 -0.00000000000E+00 -0.17484357635E+03  0.17484357635E+03  0.00000000000E+00 0.  1.
        -24    2    1    2    0    0  0.26903285277E+01  0.19798782205E+01 -0.14818709863E+03  0.16849715084E+03  0.80129369488E+02 0.  0.
         23    2    1    2    0    0  0.14518024681E+02 -0.23096957195E+02  0.15717360684E+03  0.18516082719E+03  0.94003972070E+02 0.  0.
         13    1    3    3    0    0 -0.19165058350E+02  0.33427537886E+02 -0.50133709631E+02  0.63230440391E+02  0.00000000000E+00 0. -1.
        -14    1    3    3    0    0  0.21855386878E+02 -0.31447659666E+02 -0.98053389002E+02  0.10526671045E+03  0.00000000000E+00 0.  1.
        -11    1    4    4    0    0  0.40211553954E+02 -0.29105572054E+02  0.14973035134E+03  0.15774435492E+03  0.00000000000E+00 0.  1.
         11    1    4    4    0    0 -0.25693529273E+02  0.60086148592E+01  0.74432554954E+01  0.27416472264E+02  0.00000000000E+00 0. -1.
         -3    1    1    2    0  502 -0.17208353208E+02  0.21117078974E+02  0.71465978449E+02  0.76481661333E+02  0.00000000000E+00 0.  1.
<scales pt_clust_5="13000.00000" pt_clust_6="13000.00000" pt_clust_7="13000.00000" pt_clust_8="13000.00000" pt_clust_9="27.24075"></scales>
<clustering>
<clus scale="   27.241">  1  9  2 -1</clus>
<clus scale="   80.129">  5  6 -1 -1</clus>
<clus scale="   80.210">  2  5  1 -1</clus>
<clus scale="   94.004">  7  8 -1 -1</clus>
<clus scale="   27.241">  1  5  2 -1</clus>
</clustering>
</event>
<event>
 9    1  0.9171696E-005  0.1474538E+03  0.7546771E-02  0.1226963E+00
          1   -1    0    0  502    0 -0.00000000000E+00  0.00000000000E+00  0.95215715810E+02  0.95215715810E+02  0.00000000000E+00 0. -1.
         21   -1    0    0  501  502  0.00000000000E+00 -0.00000000000E+00 -0.36161115173E+03  0.36161115173E+03  0.00000000000E+00 0. -1.
         23    2    1    2    0    0  0.21450239587E+01  0.19203351996E+01 -0.47761412727E+02  0.10188769815E+03  0.89953664038E+02 0.  0.
        -24    2    1    2    0    0 -0.28803639536E+01  0.12232849035E+03 -0.73302873207E+02  0.16373390133E+03  0.80392307946E+02 0.  0.
         13    1    4    4    0    0 -0.30384978387E+02  0.96090664364E+02 -0.28003023489E+02  0.10459843218E+03  0.00000000000E+00 0. -1.
        -14    1    4    4    0    0  0.27504614433E+02  0.26237825988E+02 -0.45299849719E+02  0.59135469156E+02  0.00000000000E+00 0.  1.
        -13    1    3    3    0    0  0.34009929359E+02 -0.30420862104E+01 -0.58636817223E+02  0.67854299183E+02  0.00000000000E+00 0. -1.
         13    1    3    3    0    0 -0.31864905400E+02  0.49624214100E+01  0.10875404496E+02  0.34033398969E+02  0.00000000000E+00 0.  1.
          2    1    1    2  501    0  0.73533999488E+00 -0.12424882555E+03 -0.14533114999E+03  0.19120526806E+03  0.00000000000E+00 0. -1.
<scales pt_clust_5="13000.00000" pt_clust_6="13000.00000" pt_clust_7="13000.00000" pt_clust_8="13000.00000" pt_clust_9="123.61112"></scales>
<clustering>
<clus scale="   80.392">  5  6 -1 -1</clus>
<clus scale="   89.954">  7  8 -1 -1</clus>
<clus scale="   90.000">  1  7  2 -1</clus>
<clus scale="  123.611">  2  9  1 -1</clus>
<clus scale="  123.611">  2  5  1 -1</clus>
</clustering>
</event>
<event>
 9    1  0.9171696E-005  0.2880699E+03  0.7546771E-02  0.1091396E+00
         21   -1    0    0  501  502  0.00000000000E+00  0.00000000000E+00  0.11473172195E+03  0.11473172195E+03  0.00000000000E+00 0. -1.
          1   -1    0    0  502    0 -0.00000000000E+00 -0.00000000000E+00 -0.96036553453E+03  0.96036553453E+03  0.00000000000E+00 0. -1.
         23    2    1    2    0    0  0.22388355740E+03  0.17068199291E+03 -0.36378235993E+03  0.46873114544E+03  0.90083801703E+02 0.  0.
        -24    2    1    2    0    0 -0.16161527554E+03 -0.21773093460E+03 -0.33554017167E+03  0.44054110454E+03  0.89235647674E+02 0.  0.
         13    1    4    4    0    0 -0.17194146394E+03 -0.21390056889E+03 -0.32189098049E+03  0.42300251029E+03  0.00000000000E+00 0. -1.
        -14    1    4    4    0    0  0.10326188397E+02 -0.38303657037E+01 -0.13649191184E+02  0.17538594248E+02  0.00000000000E+00 0.  1.
        -11    1    3    3    0    0  0.20023496193E+03  0.13296837704E+03 -0.25122252097E+03  0.34768863127E+03  0.00000000000E+00 0. -1.
         11    1    3    3    0    0  0.23648595477E+02  0.37713615865E+02 -0.11255983896E+03  0.12104251417E+03  0.00000000000E+00 0.  1.
          2    1    1    2  501    0 -0.62268281862E+02  0.47048941687E+02 -0.14631128098E+03  0.16582500651E+03  0.00000000000E+00 0. -1.
<scales pt_clust_5="13000.00000" pt_clust_6="13000.00000" pt_clust_7="13000.00000" pt_clust_8="13000.00000" pt_clust_9="78.04453"></scales>
<clustering>
<clus scale="   78.045">  1  9  2 -1</clus>
<clus scale="   89.236">  5  6 -1 -1</clus>
<clus scale="   90.084">  7  8 -1 -1</clus>
<clus scale="  287.806">  1  5  2 -1</clus>
<clus scale="   78.045">  1  5  2 -1</clus>
</clustering>
</event>
<event>
 9    1  0.9171696E-005  0.1073220E+03  0.7546771E-02  0.1266362E+00
         -2   -1    0    0    0  501 -0.00000000000E+00  0.00000000000E+00  0.11990381101E+04  0.11990381101E+04  0.00000000000E+00 0.  1.
         21   -1    0    0  501  502  0.00000000000E+00 -0.00000000000E+00 -0.25755261429E+02  0.25755261429E+02  0.00000000000E+00 0. -1.
        -24    2    1    2    0    0  0.60164496914E+02  0.20204268997E+02  0.97610437690E+03  0.98176713258E+03  0.84017669831E+02 0.  0.
         23    2    1    2    0    0 -0.57847197093E+02 -0.40889194700E+02  0.19134636469E+03  0.22141028409E+03  0.85970100439E+02 0.  0.
         11    1    3    3    0    0  0.52217227894E+02 -0.85188353792E+01  0.27579732465E+03  0.28082623405E+03  0.00000000000E+00 0. -1.
        -12    1    3    3    0    0  0.79472690201E+01  0.28723104376E+02  0.70030705225E+03  0.70094089853E+03  0.00000000000E+00 0.  1.
        -13    1    4    4    0    0 -0.61490798853E+02 -0.62600065087E+02  0.13605682657E+03  0.16189918638E+03  0.00000000000E+00 0. -1.
         13    1    4    4    0    0  0.36436017604E+01  0.21710870387E+02  0.55289538112E+02  0.59511097716E+02  0.00000000000E+00 0.  1.
         -1    1    1    2    0  502 -0.23172998214E+01  0.20684925703E+02  0.58321070437E+01  0.21615954811E+02  0.00000000000E+00 0.  1.
<scales pt_clust_5="13000.00000" pt_clust_6="13000.00000" pt_clust_7="13000.00000" pt_clust_8="13000.00000" pt_clust_9="20.81432"></scales>
<clustering>
<clus scale="   20.814">  2  9  1 -1</clus>
<clus scale="   84.018">  5  6 -1 -1</clus>
<clus scale="   85.970">  7  8 -1 -1</clus>
<clus scale="  105.764">  1  5  2 -1</clus>
<clus scale="   20.814">  2  5  1 -1</clus>
</clustering>
</event>
<event>
 9    1  0.9171696E-005  0.2345125E+03  0.7546771E-02  0.1124194E+00
          1   -1    0    0  502    0 -0.00000000000E+00  0.00000000000E+00  0.43114253565E+03  0.43114253565E+03  0.00000000000E+00 0. -1.
         21   -1    0    0  501  502  0.00000000000E+00 -0.00000000000E+00 -0.32294295465E+03  0.32294295465E+03  0.00000000000E+00 0. -1.
        -24    2    1    2    0    0  0.22853265004E+03  0.36530033281E+01  0.32556281946E+03  0.40584126335E+03  0.80470274356E+02 0.  0.
         23    2    1    2    0    0 -0.16235895210E+03  0.34755050069E+02 -0.11943472940E+03  0.22396981385E+03  0.91265985425E+02 0.  0.
         13    1    3    3    0    0  0.22809900132E+03  0.76579098469E+00  0.32961683563E+03  0.40084535568E+03  0.00000000000E+00 0. -1.
        -14    1    3    3    0    0  0.43364871769E+00  0.28872123434E+01 -0.40540161702E+01  0.49959076687E+01  0.00000000000E+00 0.  1.
        -13    1    4    4    0    0 -0.48690539485E+02 -0.12764909532E+02 -0.80170527014E+02  0.94662690393E+02  0.00000000000E+00 0.  1.
         13    1    4    4    0    0 -0.11366841262E+03  0.47519959601E+02 -0.39264202387E+02  0.12930712346E+03  0.00000000000E+00 0. -1.
          2    1    1    2  501    0 -0.66173697936E+02 -0.38408053397E+02 -0.97928509067E+02  0.12427441310E+03  0.00000000000E+00 0. -1.
<scales pt_clust_5="13000.00000" pt_clust_6="13000.00000" pt_clust_7="13000.00000" pt_clust_8="13000.00000" pt_clust_9="76.51233"></scales>
<clustering>
<clus scale="   76.512">  2  9  1 -1</clus>
<clus scale="   80.470">  5  6 -1 -1</clus>
<clus scale="   91.266">  7  8 -1 -1</clus>
<clus scale="  230.526">  1  5  2 -1</clus>
<clus scale="   76.512">  2  5  1 -1</clus>
</clustering>
</event>
<event>
 9    1  0.9171696E-005  0.1083526E+03  0.7546771E-02  0.1269065E+00
          1   -1    0    0  502    0 -0.00000000000E+00  0.00000000000E+00  0.15348415751E+03  0.15348415751E+03  0.00000000000E+00 0. -1.
         21   -1    0    0  501  502  0.00000000000E+00 -0.00000000000E+00 -0.12323905333E+03  0.12323905333E+03  0.00000000000E+00 0. -1.
        -24    2    1    2    0    0  0.63501749858E+01 -0.81189544479E+02  0.41037532758E+02  0.12101274044E+03  0.79548333727E+02 0.  0.
         23    2    1    2    0    0  0.32855313191E+01  0.22458207250E+02 -0.13101851912E+02  0.96149155406E+02  0.92508571348E+02 0.  0.
         11    1    3    3    0    0 -0.10307881593E+02 -0.57295777657E+02  0.62060151251E+02  0.85091250629E+02  0.00000000000E+00 0. -1.
        -12    1    3    3    0    0  0.16658056579E+02 -0.23893766823E+02 -0.21022618493E+02  0.35921489811E+02  0.00000000000E+00 0.  1.
        -11    1    4    4    0    0 -0.63193591045E+01  0.41622668653E+02  0.27465234833E+02  0.50266489530E+02  0.00000000000E+00 0.  1.
         11    1    4    4    0    0  0.96048904237E+01 -0.19164461402E+02 -0.40567086745E+02  0.45882665876E+02  0.00000000000E+00 0. -1.
          2    1    1    2  501    0 -0.96357063050E+01  0.58731337229E+02  0.23094233343E+01  0.59561315003E+02  0.00000000000E+00 0. -1.
<scales pt_clust_5="13000.00000" pt_clust_6="13000.00000" pt_clust_7="13000.00000" pt_clust_8="13000.00000" pt_clust_9="59.51653"></scales>
<clustering>
<clus scale="   59.517">  2  9  1 -1</clus>
<clus scale="   79.548">  5  6 -1 -1</clus>
<clus scale="   92.509">  7  8 -1 -1</clus>
<clus scale="   97.521">  1  5  2 -1</clus>
<clus scale="   59.517">  2  5  1 -1</clus>
</clustering>
</event>
<event>
 9    1  0.9171696E-005  0.1769054E+03  0.7546771E-02  0.1199552E+00
          1   -1    0    0  502    0 -0.00000000000E+00  0.00000000000E+00  0.16060808871E+04  0.16060808871E+04  0.00000000000E+00 0. -1.
         21   -1    0    0  501  502  0.00000000000E+00 -0.00000000000E+00 -0.33288114737E+02  0.33288114737E+02  0.00000000000E+00 0.  1.
        -24    2    1    2    0    0  0.43620767826E+02  0.15855279158E+02  0.55679423368E+03  0.56455509793E+03  0.80922671032E+02 0.  0.
         23    2    1    2    0    0 -0.41978211432E+02  0.12470428386E+03  0.32415146981E+03  0.36883086199E+03  0.11682765398E+03 0.  0.
         11    1    3    3    0    0  0.24917440661E+02  0.39488086391E+01  0.40038345423E+02  0.47323789398E+02  0.00000000000E+00 0. -1.
        -12    1    3    3    0    0  0.18703327165E+02  0.11906470519E+02  0.51675588825E+03  0.51723130854E+03  0.00000000000E+00 0.  1.
        -13    1    4    4    0    0 -0.59037849283E+02  0.13920439708E+03  0.29965988390E+03  0.33564769899E+03  0.00000000000E+00 0.  1.
         13    1    4    4    0    0  0.17059637850E+02 -0.14500113223E+02  0.24491585905E+02  0.33183163008E+02  0.00000000000E+00 0. -1.
          2    1    1    2  501    0 -0.16425563933E+01 -0.14055956301E+03  0.69184706892E+03  0.70598304195E+03  0.00000000000E+00 0. -1.
<scales pt_clust_5="13000.00000" pt_clust_6="13000.00000" pt_clust_7="13000.00000" pt_clust_8="13000.00000" pt_clust_9="132.84139"></scales>
<clustering>
<clus scale="   80.923">  5  6 -1 -1</clus>
<clus scale="   93.288">  1  5  2 -1</clus>
<clus scale="  116.828">  7  8 -1 -1</clus>
<clus scale="  132.841">  2  9  1 -1</clus>
<clus scale="  132.841">  2  5  1 -1</clus>
</clustering>
</event>
<event>
 9    1  0.9171696E-005  0.1203089E+03  0.7546771E-02  0.1244722E+00
         -2   -1    0    0    0  501 -0.00000000000E+00  0.00000000000E+00  0.66789026950E+02  0.66789026950E+02  0.00000000000E+00 0.  1.
         21   -1    0    0  501  502  0.00000000000E+00 -0.00000000000E+00 -0.27574611397E+03  0.27574611397E+03  0.00000000000E+00 0.  1.
        -24    2    1    2    0    0  0.70885140359E+02 -0.12746079596E+02 -0.71976417713E+02  0.13008459237E+03  0.80958204011E+02 0.  0.
         23    2    1    2    0    0 -0.97635189788E+02  0.45636243336E+01 -0.12673708257E+03  0.18266046987E+03  0.88028985005E+02 0.  0.
         11    1    3    3    0    0  0.77307668525E+02  0.15352488932E+02 -0.45854478265E+02  0.91185567422E+02  0.00000000000E+00 0. -1.
        -12    1    3    3    0    0 -0.64225281664E+01 -0.28098568529E+02 -0.26121939448E+02  0.38899024948E+02  0.00000000000E+00 0.  1.
        -13    1    4    4    0    0 -0.44218821367E+02 -0.41369812725E+02 -0.66829583306E+02  0.90182918409E+02  0.00000000000E+00 0. -1.
         13    1    4    4    0    0 -0.53416368421E+02  0.45933437058E+02 -0.59907499269E+02  0.92477551459E+02  0.00000000000E+00 0.  1.
         -1    1    1    2    0  502  0.26750049429E+02  0.81824552626E+01 -0.10243586729E+02  0.29790078679E+02  0.00000000000E+00 0.  1.
<scales pt_clust_5="13000.00000" pt_clust_6="13000.00000" pt_clust_7="13000.00000" pt_clust_8="13000.00000" pt_clust_9="27.97353"></scales>
<clustering>
<clus scale="   27.974">  2  9  1 -1</clus>
<clus scale="   80.958">  5  6 -1 -1</clus>
<clus scale="   88.029">  7  8 -1 -1</clus>
<clus scale="  115.236">  1  5  2 -1</clus>
<clus scale="   27.974">  2  5  1 -1</clus>
</clustering>
</event>
<event>
 9    1  0.9171696E-005  0.1659175E+03  0.7546771E-02  0.1204524E+00
         -2   -1    0    0    0  501 -0.00000000000E+00  0.00000000000E+00  0.57630123016E+02  0.57630123016E+02  0.00000000000E+00 0.  1.
         21   -1    0    0  501  502  0.00000000000E+00 -0.00000000000E+00 -0.10193669435E+04  0.10193669435E+04  0.00000000000E+00 0.  1.
         23    2    1    2    0    0  0.41658321134E+02 -0.27980020658E+02 -0.26029483635E+03  0.27939878913E+03  0.88272216808E+02 0.  0.
        -24    2    1    2    0    0  0.10654850762E+03 -0.16223057966E+02 -0.78136222882E+02  0.15539173097E+03  0.80159519967E+02 0.  0.
         11    1    4    4    0    0  0.22234090664E+02  0.21315884589E+02  0.49647403699E+01  0.31198884121E+02  0.00000000000E+00 0. -1.
        -12    1    4    4    0    0  0.84314416960E+02 -0.37538942555E+02 -0.83100963252E+02  0.12419284685E+03  0.00000000000E+00 0.  1.
        -13    1    3    3    0    0  0.19396232709E+02 -0.58009696268E+02 -0.19245884804E+03  0.20194491054E+03  0.00000000000E+00 0.  1.
         13    1    3    3    0    0  0.22262088425E+02  0.30029675610E+02 -0.67835988310E+02  0.77453878587E+02  0.00000000000E+00 0. -1.
         -1    1    1    2    0  502 -0.14820682876E+03  0.44203078624E+02 -0.62330576126E+03  0.64220654643E+03  0.00000000000E+00 0.  1.
<scales pt_clust_5="13000.00000" pt_clust_6="13000.00000" pt_clust_7="13000.00000" pt_clust_8="13000.00000" pt_clust_9="145.26898"></scales>
<clustering>
<clus scale="   80.160">  5  6 -1 -1</clus>
<clus scale="   88.272">  7  8 -1 -1</clus>
<clus scale="  101.540">  1  7  2 -1</clus>
<clus scale="  145.269">  2  9  1 -1</clus>
<clus scale="  145.269">  2  5  1 -1</clus>
</clustering>
</event>
<event>
 9    1  0.9171696E-005  0.1546009E+03  0.7546771E-02  0.1212720E+00
         21   -1    0    0  501  502  0.00000000000E+00  0.00000000000E+00  0.32134231806E+03  0.32134231806E+03  0.00000000000E+00 0. -1.
         -2   -1    0    0    0  501 -0.00000000000E+00 -0.00000000000E+00 -0.19673661538E+03  0.19673661538E+03  0.00000000000E+00 0.  1.
        -24    2    1    2    0    0 -0.65144700212E+02  0.21969184962E+02 -0.33052297701E+02  0.11038129355E+03  0.79781567602E+02 0.  0.
         23    2    1    2    0    0  0.19014835724E+02  0.12087445643E+03  0.20045614607E+03  0.25160807728E+03  0.90287096847E+02 0.  0.
         11    1    3    3    0    0 -0.63572062434E+02 -0.17378826775E+02 -0.22012230300E+02  0.69483588170E+02  0.00000000000E+00 0. -1.
        -12    1    3    3    0    0 -0.15726377786E+01  0.39348011737E+02 -0.11040067401E+02  0.40897705381E+02  0.00000000000E+00 0.  1.
        -13    1    4    4    0    0  0.25995224062E+02 -0.45897606723E+01  0.33710822299E+02  0.42816318351E+02  0.00000000000E+00 0.  1.
         13    1    4    4    0    0 -0.69803883380E+01  0.12546421710E+03  0.16674532377E+03  0.20879175892E+03  0.00000000000E+00 0. -1.
         -1    1    1    2    0  502  0.46129864488E+02 -0.14284364139E+03 -0.42798145683E+02  0.15608956261E+03  0.00000000000E+00 0.  1.
<scales pt_clust_5="13000.00000" pt_clust_6="13000.00000" pt_clust_7="13000.00000" pt_clust_8="13000.00000" pt_clust_9="125.49783"></scales>
<clustering>
<clus scale="   79.782">  5  6 -1 -1</clus>
<clus scale="   90.287">  7  8 -1 -1</clus>
<clus scale="  105.317">  2  5  1 -1</clus>
<clus scale="  125.498">  1  9  2 -1</clus>
<clus scale="  125.498">  1  5  2 -1</clus>
</clustering>
</event>
<event>
 9    1  0.9171696E-005  0.1366269E+03  0.7546771E-02  0.1243246E+00
         21   -1    0    0  501  502  0.00000000000E+00  0.00000000000E+00  0.63579713090E+02  0.63579713090E+02  0.00000000000E+00 0. -1.
          1   -1    0    0  502    0 -0.00000000000E+00 -0.00000000000E+00 -0.63455215435E+03  0.63455215435E+03  0.00000000000E+00 0. -1.
        -24    2    1    2    0    0 -0.22780492909E+01  0.10034721122E+02 -0.21062135561E+03  0.22568142763E+03  0.80404391670E+02 0.  0.
         23    2    1    2    0    0 -0.86206025159E+02 -0.66185843303E+02 -0.33764859785E+03  0.36522272462E+03  0.87000105279E+02 0.  0.
         13    1    3    3    0    0 -0.88789430268E+01  0.40528016438E+02 -0.16683576141E+03  0.17191720982E+03  0.00000000000E+00 0. -1.
        -14    1    3    3    0    0  0.66008937359E+01 -0.30493295316E+02 -0.43785594204E+02  0.53764217813E+02  0.00000000000E+00 0.  1.
        -13    1    4    4    0    0 -0.32686993247E+02  0.16640197229E+02 -0.57277389611E+02  0.68014961972E+02  0.00000000000E+00 0.  1.
         13    1    4    4    0    0 -0.53519031912E+02 -0.82826040531E+02 -0.28037120824E+03  0.29720776264E+03  0.00000000000E+00 0. -1.
          2    1    1    2  501    0  0.88484074450E+02  0.56151122180E+02 -0.22702487794E+02  0.10722771519E+03  0.00000000000E+00 0. -1.
<scales pt_clust_5="13000.00000" pt_clust_6="13000.00000" pt_clust_7="13000.00000" pt_clust_8="13000.00000" pt_clust_9="105.34647"></scales>
<clustering>
<clus scale="   80.404">  5  6 -1 -1</clus>
<clus scale="   81.060">  2  5  1 -1</clus>
<clus scale="   87.000">  7  8 -1 -1</clus>
<clus scale="  105.346">  1  9  2 -1</clus>
<clus scale="  105.346">  1  5  2 -1</clus>
</clustering>
</event>
<event>
 9    1  0.9171696E-005  0.1335984E+03  0.7546771E-02  0.1226524E+00
         21   -1    0    0  501  502  0.00000000000E+00  0.00000000000E+00  0.13046906661E+03  0.13046906661E+03  0.00000000000E+00 0. -1.
         -4   -1    0    0    0  501 -0.00000000000E+00 -0.00000000000E+00 -0.25620191005E+03  0.25620191005E+03  0.00000000000E+00 0.  1.
        -24    2    1    2    0    0  0.69849969755E+02  0.52147533941E+02 -0.14261644514E+03  0.18464329629E+03  0.78455802016E+02 0.  0.
         23    2    1    2    0    0 -0.75538683875E+02 -0.87451320126E+02 -0.19416924337E+02  0.15107233739E+03  0.95352021582E+02 0.  0.
         11    1    3    3    0    0  0.58783998825E+02  0.33743340679E+02 -0.37715809396E+02  0.77567092484E+02  0.00000000000E+00 0. -1.
        -12    1    3    3    0    0  0.11065970930E+02  0.18404193262E+02 -0.10490063574E+03  0.10707620381E+03  0.00000000000E+00 0.  1.
        -13    1    4    4    0    0 -0.40732449934E+02 -0.97452857986E+02 -0.35524663982E+02  0.11143694970E+03  0.00000000000E+00 0. -1.
         13    1    4    4    0    0 -0.34806233941E+02  0.10001537860E+02  0.16107739645E+02  0.39635387688E+02  0.00000000000E+00 0.  1.
         -3    1    1    2    0  502  0.56887141197E+01  0.35303786185E+02  0.36300526034E+02  0.50955342975E+02  0.00000000000E+00 0.  1.
<scales pt_clust_5="13000.00000" pt_clust_6="13000.00000" pt_clust_7="13000.00000" pt_clust_8="13000.00000" pt_clust_9="35.75918"></scales>
<clustering>
<clus scale="   35.759">  1  9  2 -1</clus>
<clus scale="   78.456">  5  6 -1 -1</clus>
<clus scale="   95.352">  7  8 -1 -1</clus>
<clus scale="  122.114">  2  5  1 -1</clus>
<clus scale="   35.759">  1  5  2 -1</clus>
</clustering>
</event>
<event>
 9    1  0.9171696E-005  0.2748176E+03  0.7546771E-02  0.1099179E+00
         21   -1    0    0  501  502  0.00000000000E+00  0.00000000000E+00  0.44954305809E+03  0.44954305809E+03  0.00000000000E+00 0. -1.
          1   -1    0    0  502    0 -0.00000000000E+00 -0.00000000000E+00 -0.38816500682E+03  0.38816500682E+03  0.00000000000E+00 0. -1.
        -24    2    1    2    0    0  0.20674587030E+03 -0.15426009152E+03 -0.31499153893E+02  0.27178117592E+03  0.79578767068E+02 0.  0.
         23    2    1    2    0    0 -0.43536386969E+02  0.31296259324E+03  0.72170979626E+02  0.33733868440E+03  0.93529331927E+02 0.  0.
         11    1    3    3    0    0  0.17853360249E+03 -0.11708110433E+03  0.33634885166E+01  0.21352645097E+03  0.00000000000E+00 0. -1.
        -12    1    3    3    0    0  0.28212267810E+02 -0.37178987194E+02 -0.34862642409E+02  0.58254724954E+02  0.00000000000E+00 0.  1.
        -11    1    4    4    0    0 -0.19375673572E+02  0.17473275918E+03  0.87143802085E+02  0.19621670698E+03  0.00000000000E+00 0. -1.
         11    1    4    4    0    0 -0.24160713397E+02  0.13822983407E+03 -0.14972822459E+02  0.14112197742E+03  0.00000000000E+00 0.  1.
          2    1    1    2  501    0 -0.16320948333E+03 -0.15870250172E+03  0.20706225533E+02  0.22858820459E+03  0.00000000000E+00 0. -1.
<scales pt_clust_5="13000.00000" pt_clust_6="13000.00000" pt_clust_7="13000.00000" pt_clust_8="13000.00000" pt_clust_9="227.64846"></scales>
<clustering>
<clus scale="   79.579">  5  6 -1 -1</clus>
<clus scale="   93.529">  7  8 -1 -1</clus>
<clus scale="  227.648">  1  9  2 -1</clus>
<clus scale="  270.388">  2  5  1 -1</clus>
<clus scale="  227.648">  1  5  2 -1</clus>
</clustering>
</event>
<event>
 9    1  0.9171696E-005  0.9449850E+02  0.7546771E-02  0.1300487E+00
         21   -1    0    0  501  502  0.00000000000E+00  0.00000000000E+00  0.10621335704E+03  0.10621335704E+03  0.00000000000E+00 0. -1.
          3   -1    0    0  502    0 -0.00000000000E+00 -0.00000000000E+00 -0.14254115465E+03  0.14254115465E+03  0.00000000000E+00 0. -1.
        -24    2    1    2    0    0  0.34369519524E+00  0.63592150401E+01 -0.28269651804E+02  0.85941191848E+02  0.80908327759E+02 0.  0.
         23    2    1    2    0    0  0.24260695778E+02  0.20514539597E+02  0.35882905609E+02  0.10573100434E+03  0.94244547164E+02 0.  0.
         13    1    3    3    0    0  0.37435562261E+02 -0.26855468787E+01 -0.29507694894E+02  0.47742408211E+02  0.00000000000E+00 0. -1.
        -14    1    3    3    0    0 -0.37091867066E+02  0.90447619188E+01  0.12380430904E+01  0.38198783636E+02  0.00000000000E+00 0.  1.
        -13    1    4    4    0    0  0.49021796064E+02 -0.71431795581E+01  0.45628597106E+02  0.67350800866E+02  0.00000000000E+00 0. -1.
         13    1    4    4    0    0 -0.24761100286E+02  0.27657719155E+02 -0.97456914966E+01  0.38380203478E+02  0.00000000000E+00 0.  1.
          4    1    1    2  501    0 -0.24604390973E+02 -0.26873754637E+02 -0.43941051419E+02  0.57082315504E+02  0.00000000000E+00 0. -1.
<scales pt_clust_5="13000.00000" pt_clust_6="13000.00000" pt_clust_7="13000.00000" pt_clust_8="13000.00000" pt_clust_9="36.43592"></scales>
<clustering>
<clus scale="   36.436">  1  9  2 -1</clus>
<clus scale="   80.908">  5  6 -1 -1</clus>
<clus scale="   81.204">  2  5  1 -1</clus>
<clus scale="   94.245">  7  8 -1 -1</clus>
<clus scale="   36.436">  1  5  2 -1</clus>
</clustering>
</event>
<event>
 9    1  0.9171696E-005  0.1126477E+03  0.7546771E-02  0.1261878E+00
          1   -1    0    0  502    0 -0.00000000000E+00  0.00000000000E+00  0.24915629241E+03  0.24915629241E+03  0.00000000000E+00 0. -1.
         21   -1    0    0  501  502  0.00000000000E+00 -0.00000000000E+00 -0.17890491121E+03  0.17890491121E+03  0.00000000000E+00 0.  1.
         23    2    1    2    0    0 -0.62267764266E+02 -0.88306848631E+00  0.19323230499E+03  0.22264019135E+03  0.91388603408E+02 0.  0.
        -24    2    1    2    0    0  0.90981116006E+02  0.28408909787E+02 -0.73096424142E+02  0.14161982252E+03  0.75023045017E+02 0.  0.
         13    1    4    4    0    0  0.20650973899E+02  0.17891453735E+02  0.12744630557E+02  0.30149501617E+02  0.00000000000E+00 0. -1.
        -14    1    4    4    0    0  0.70330142107E+02  0.10517456052E+02 -0.85841054699E+02  0.11147032090E+03  0.00000000000E+00 0.  1.
        -13    1    3    3    0    0  0.32629174681E+01 -0.24067224345E+02  0.92924566522E+01  0.26004377875E+02  0.00000000000E+00 0.  1.
         13    1    3    3    0    0 -0.65530681734E+02  0.23184155858E+02  0.18393984834E+03  0.19663581347E+03  0.00000000000E+00 0. -1.
          2    1    1    2  501    0 -0.28713351740E+02 -0.27525841301E+02 -0.49884499653E+02  0.63801189747E+02  0.00000000000E+00 0. -1.
<scales pt_clust_5="13000.00000" pt_clust_6="13000.00000" pt_clust_7="13000.00000" pt_clust_8="13000.00000" pt_clust_9="39.77598"></scales>
<clustering>
<clus scale="   39.776">  2  9  1 -1</clus>
<clus scale="   75.023">  5  6 -1 -1</clus>
<clus scale="   91.389">  7  8 -1 -1</clus>
<clus scale="   99.830">  2  5  1 -1</clus>
<clus scale="   39.776">  2  5  1 -1</clus>
</clustering>
</event>
<event>
 9    1  0.9171696E-005  0.9425878E+02  0.7546771E-02  0.1299090E+00
         21   -1    0    0  501  502  0.00000000000E+00  0.00000000000E+00  0.16584233866E+03  0.16584233866E+03  0.00000000000E+00 0. -1.
          1   -1    0    0  502    0 -0.00000000000E+00 -0.00000000000E+00 -0.14896058006E+03  0.14896058006E+03  0.00000000000E+00 0. -1.
        -24    2    1    2    0    0  0.14862525863E+01  0.22811762604E+01 -0.27672930716E+02  0.87260633493E+02  0.82711633712E+02 0.  0.
         23    2    1    2    0    0  0.65625112855E+02  0.38912044428E+02  0.76403569817E+02  0.14260014026E+03  0.93147688557E+02 0.  0.
         11    1    3    3    0    0 -0.39040912370E+02  0.10998454750E+02 -0.78601483096E+01  0.41315139804E+02  0.00000000000E+00 0. -1.
        -12    1    3    3    0    0  0.40527164956E+02 -0.87172784894E+01 -0.19812782407E+02  0.45945493689E+02  0.00000000000E+00 0.  1.
        -13    1    4    4    0    0  0.85141162481E+02  0.12048675329E+02  0.63847210120E+02  0.10710114082E+03  0.00000000000E+00 0. -1.
         13    1    4    4    0    0 -0.19516049626E+02  0.26863369099E+02  0.12556359698E+02  0.35498999440E+02  0.00000000000E+00 0.  1.
          2    1    1    2  501    0 -0.67111365441E+02 -0.41193220688E+02 -0.31848880507E+02  0.84942144967E+02  0.00000000000E+00 0. -1.
<scales pt_clust_5="13000.00000" pt_clust_6="13000.00000" pt_clust_7="13000.00000" pt_clust_8="13000.00000" pt_clust_9="78.74530"></scales>
<clustering>
<clus scale="   78.745">  1  9  2 -1</clus>
<clus scale="   82.712">  5  6 -1 -1</clus>
<clus scale="   83.961">  2  5  1 -1</clus>
<clus scale="   93.148">  7  8 -1 -1</clus>
<clus scale="   78.745">  1  5  2 -1</clus>
</clustering>
</event>
<event>
 9    1  0.9171696E-005  0.1090055E+03  0.7546771E-02  0.1267482E+00
         21   -1    0    0  501  502  0.00000000000E+00  0.00000000000E+00  0.65987763762E+02  0.65987763762E+02  0.00000000000E+00 0.  1.
          1   -1    0    0  502    0 -0.00000000000E+00 -0.00000000000E+00 -0.24510835622E+03  0.24510835622E+03  0.00000000000E+00 0. -1.
         23    2    1    2    0    0 -0.54400495768E+02 -0.30231372512E+02 -0.14667857398E+03  0.18405013825E+03  0.92122198735E+02 0.  0.
        -24    2    1    2    0    0  0.34587174569E+02  0.41146406791E+02 -0.38561138241E+02  0.10361204700E+03  0.79744563857E+02 0.  0.
         13    1    4    4    0    0  0.40375946973E+02  0.96318635175E+01 -0.53946653525E+02  0.68067843475E+02  0.00000000000E+00 0. -1.
        -14    1    4    4    0    0 -0.57887724042E+01  0.31514543273E+02  0.15385515284E+02  0.35544203525E+02  0.00000000000E+00 0.  1.
        -13    1    3    3    0    0 -0.20292337660E+02  0.30954979999E+02 -0.28678807474E+02  0.46823752013E+02  0.00000000000E+00 0.  1.
         13    1    3    3    0    0 -0.34108158107E+02 -0.61186352510E+02 -0.11799976651E+03  0.13722638623E+03  0.00000000000E+00 0. -1.
          2    1    1    2  501    0  0.19813321199E+02 -0.10915034279E+02  0.61191197682E+01  0.23433934731E+02  0.00000000000E+00 0. -1.
<scales pt_clust_5="13000.00000" pt_clust_6="13000.00000" pt_clust_7="13000.00000" pt_clust_8="13000.00000" pt_clust_9="22.62091"></scales>
<clustering>
<clus scale="   22.621">  1  9  2 -1</clus>
<clus scale="   79.745">  5  6 -1 -1</clus>
<clus scale="   92.122">  7  8 -1 -1</clus>
<clus scale="   98.767">  1  5  2 -1</clus>
<clus scale="   22.621">  1  5  2 -1</clus>
</clustering>
</event>
<event>
 9    1  0.9171696E-005  0.5879635E+03  0.7546771E-02  0.9930697E-01
         21   -1    0    0  501  502  0.00000000000E+00  0.00000000000E+00  0.27013863422E+03  0.27013863422E+03  0.00000000000E+00 0. -1.
          3   -1    0    0  502    0 -0.00000000000E+00 -0.00000000000E+00 -0.19149299521E+04  0.19149299521E+04  0.00000000000E+00 0. -1.
        -24    2    1    2    0    0 -0.26138679718E+03 -0.90262291235E+02 -0.79544856402E+03  0.84582642324E+03  0.78826272794E+02 0.  0.
         23    2    1    2    0    0 -0.28442615588E+03  0.55027661162E+01 -0.70885806298E+03  0.76930189851E+03  0.91744967278E+02 0.  0.
         13    1    3    3    0    0 -0.20110171444E+03 -0.10290442343E+03 -0.63146843656E+03  0.67065908350E+03  0.00000000000E+00 0. -1.
        -14    1    3    3    0    0 -0.60285082736E+02  0.12642132197E+02 -0.16398012746E+03  0.17516733974E+03  0.00000000000E+00 0.  1.
        -13    1    4    4    0    0 -0.24909728935E+03 -0.12272811020E+02 -0.52485004893E+03  0.58109177873E+03  0.00000000000E+00 0. -1.
         13    1    4    4    0    0 -0.35328866537E+02  0.17775577136E+02 -0.18400801405E+03  0.18821011978E+03  0.00000000000E+00 0.  1.
          4    1    1    2  501    0  0.54581295306E+03  0.84759525119E+02 -0.14048469090E+03  0.56994026460E+03  0.00000000000E+00 0. -1.
<scales pt_clust_5="13000.00000" pt_clust_6="13000.00000" pt_clust_7="13000.00000" pt_clust_8="13000.00000" pt_clust_9="552.35492"></scales>
<clustering>
<clus scale="   78.826">  5  6 -1 -1</clus>
<clus scale="   91.745">  7  8 -1 -1</clus>
<clus scale="  138.966">  5  7 -1 -1</clus>
<clus scale="  552.355">  1  9  2 -1</clus>
<clus scale="  552.355">  1  5  2 -1</clus>
</clustering>
</event>
<event>
 9    1  0.9171696E-005  0.3521342E+03  0.7546771E-02  0.1062003E+00
         21   -1    0    0  501  502  0.00000000000E+00  0.00000000000E+00  0.10795748038E+03  0.10795748038E+03  0.00000000000E+00 0. -1.
          1   -1    0    0  502    0 -0.00000000000E+00 -0.00000000000E+00 -0.17612048872E+04  0.17612048872E+04  0.00000000000E+00 0. -1.
        -24    2    1    2    0    0 -0.36514486351E+03  0.13725175835E+03 -0.11246244040E+04  0.11930566906E+04  0.80220947453E+02 0.  0.
         23    2    1    2    0    0  0.24387028358E+03 -0.79157993526E+02 -0.26272979455E+03  0.37814325072E+03  0.90700992113E+02 0.  0.
         13    1    3    3    0    0 -0.15152145826E+03  0.87655026614E+02 -0.58316910339E+03  0.60887466621E+03  0.00000000000E+00 0. -1.
        -14    1    3    3    0    0 -0.21362340524E+03  0.49596731735E+02 -0.54145530060E+03  0.58418202439E+03  0.00000000000E+00 0.  1.
        -13    1    4    4    0    0  0.43174015618E+02  0.27822651817E+01 -0.85919913221E+01  0.44108490555E+02  0.00000000000E+00 0.  1.
         13    1    4    4    0    0  0.20069626796E+03 -0.81940258708E+02 -0.25413780322E+03  0.33403476016E+03  0.00000000000E+00 0. -1.
          2    1    1    2  501    0  0.12127457993E+03 -0.58093764823E+02 -0.26589320828E+03  0.29796242626E+03  0.00000000000E+00 0. -1.
<scales pt_clust_5="13000.00000" pt_clust_6="13000.00000" pt_clust_7="13000.00000" pt_clust_8="13000.00000" pt_clust_9="134.47092"></scales>
<clustering>
<clus scale="   80.221">  5  6 -1 -1</clus>
<clus scale="   90.701">  7  8 -1 -1</clus>
<clus scale="  134.471">  1  9  2 -1</clus>
<clus scale="  349.582">  2  5  1 -1</clus>
<clus scale="  134.471">  1  5  2 -1</clus>
</clustering>
</event>
<event>
 9    1  0.9171696E-005  0.1687284E+03  0.7546771E-02  0.1198823E+00
         -4   -1    0    0    0  501 -0.00000000000E+00  0.00000000000E+00  0.49654751651E+03  0.49654751651E+03  0.00000000000E+00 0.  1.
         21   -1    0    0  501  502  0.00000000000E+00 -0.00000000000E+00 -0.10279667818E+03  0.10279667818E+03  0.00000000000E+00 0.  1.
        -24    2    1    2    0    0 -0.38381058900E+02 -0.62805452652E+02  0.80679834387E+02  0.13580252669E+03  0.80718399470E+02 0.  0.
         23    2    1    2    0    0 -0.11409014127E+03  0.30943998362E+02  0.25879322383E+03  0.29859107975E+03  0.90601373270E+02 0.  0.
         11    1    3    3    0    0 -0.13855648439E+02  0.17300027699E+02  0.31949249775E+02  0.38884759395E+02  0.00000000000E+00 0. -1.
        -12    1    3    3    0    0 -0.24525410461E+02 -0.80105480350E+02  0.48730584612E+02  0.96917767293E+02  0.00000000000E+00 0.  1.
        -13    1    4    4    0    0 -0.96576534337E+02  0.49598868075E+02  0.14048533116E+03  0.17754774842E+03  0.00000000000E+00 0.  1.
         13    1    4    4    0    0 -0.17513606933E+02 -0.18654869713E+02  0.11830789266E+03  0.12104333133E+03  0.00000000000E+00 0. -1.
         -3    1    1    2    0  502  0.15247120017E+03  0.31861454290E+02  0.54277780119E+02  0.16495058825E+03  0.00000000000E+00 0.  1.
<scales pt_clust_5="13000.00000" pt_clust_6="13000.00000" pt_clust_7="13000.00000" pt_clust_8="13000.00000" pt_clust_9="142.33999"></scales>
<clustering>
<clus scale="   80.718">  5  6 -1 -1</clus>
<clus scale="   90.601">  7  8 -1 -1</clus>
<clus scale="  109.239">  1  5  2 -1</clus>
<clus scale="  142.340">  2  9  1 -1</clus>
<clus scale="  142.340">  2  5  1 -1</clus>
</clustering>
</event>
<event>
 9    1  0.9171696E-005  0.2095308E+03  0.7546771E-02  0.1167238E+00
          1   -1    0    0  502    0 -0.00000000000E+00  0.00000000000E+00  0.88454023097E+03  0.88454023097E+03  0.00000000000E+00 0. -1.
         21   -1    0    0  501  502  0.00000000000E+00 -0.00000000000E+00 -0.10730438286E+03  0.10730438286E+03  0.00000000000E+00 0. -1.
         23    2    1    2    0    0  0.17867547870E+02 -0.69780102821E+02  0.93196972922E+02  0.14849446228E+03  0.90423545323E+02 0.  0.
        -24    2    1    2    0    0  0.68517615863E+02 -0.11876999544E+03  0.59781777279E+03  0.61874468732E+03  0.81596097495E+02 0.  0.
         13    1    4    4    0    0  0.59453238152E+02 -0.83195029511E+02  0.54445000577E+03  0.55396923132E+03  0.00000000000E+00 0. -1.
        -14    1    4    4    0    0  0.90643777108E+01 -0.35574965929E+02  0.53367767017E+02  0.64775456004E+02  0.00000000000E+00 0.  1.
        -11    1    3    3    0    0  0.31873709401E+02 -0.87310437944E+02  0.71320711480E+02  0.11715668914E+03  0.00000000000E+00 0. -1.
         11    1    3    3    0    0 -0.14006161531E+02  0.17530335123E+02  0.21876261442E+02  0.31337773134E+02  0.00000000000E+00 0.  1.
          2    1    1    2  501    0 -0.86385163733E+02  0.18855009826E+03  0.86221102399E+02  0.22460546424E+03  0.00000000000E+00 0. -1.
<scales pt_clust_5="13000.00000" pt_clust_6="13000.00000" pt_clust_7="13000.00000" pt_clust_8="13000.00000" pt_clust_9="192.99024"></scales>
<clustering>
<clus scale="   81.596">  5  6 -1 -1</clus>
<clus scale="   90.424">  7  8 -1 -1</clus>
<clus scale="  115.607">  1  7  2 -1</clus>
<clus scale="  192.990">  2  9  1 -1</clus>
<clus scale="  192.990">  2  5  1 -1</clus>
</clustering>
</event>
<event>
 9    1  0.9171696E-005  0.1350857E+03  0.7546771E-02  0.1235211E+00
          1   -1    0    0  502    0 -0.00000000000E+00  0.00000000000E+00  0.50930829956E+03  0.50930829956E+03  0.00000000000E+00 0. -1.
         21   -1    0    0  501  502  0.00000000000E+00 -0.00000000000E+00 -0.21641322113E+03  0.21641322113E+03  0.00000000000E+00 0. -1.
         23    2    1    2    0    0  0.40364106339E+02 -0.89825824353E+01 -0.11067035227E+03  0.14832377778E+03  0.89677579780E+02 0.  0.
        -24    2    1    2    0    0 -0.14451402325E+03 -0.16316575177E+02  0.43535653124E+03  0.46560361675E+03  0.78108162817E+02 0.  0.
         11    1    4    4    0    0 -0.14671545625E+03 -0.24429758091E+02  0.43138507504E+03  0.45630617040E+03  0.00000000000E+00 0. -1.
        -12    1    4    4    0    0  0.22014329993E+01  0.81131829143E+01  0.39714562017E+01  0.92974463491E+01  0.00000000000E+00 0.  1.
        -13    1    3    3    0    0  0.64471332367E+02 -0.25637436994E+02 -0.80323105876E+02  0.10613968254E+03  0.00000000000E+00 0.  1.
         13    1    3    3    0    0 -0.24107226028E+02  0.16654854558E+02 -0.30347246394E+02  0.42184095236E+02  0.00000000000E+00 0. -1.
          2    1    1    2  501    0  0.10414991691E+03  0.25299157612E+02 -0.31791100545E+02  0.11179412616E+03  0.00000000000E+00 0. -1.
<scales pt_clust_5="13000.00000" pt_clust_6="13000.00000" pt_clust_7="13000.00000" pt_clust_8="13000.00000" pt_clust_9="110.21463"></scales>
<clustering>
<clus scale="   78.108">  5  6 -1 -1</clus>
<clus scale="   89.678">  7  8 -1 -1</clus>
<clus scale="   98.752">  1  7  2 -1</clus>
<clus scale="  110.215">  2  9  1 -1</clus>
<clus scale="  110.215">  2  5  1 -1</clus>
</clustering>
</event>
<event>
 9    1  0.9171696E-005  0.3468647E+03  0.7546771E-02  0.1095892E+00
          1   -1    0    0  502    0 -0.00000000000E+00  0.00000000000E+00  0.81900840936E+03  0.81900840936E+03  0.00000000000E+00 0. -1.
         21   -1    0    0  501  502  0.00000000000E+00 -0.00000000000E+00 -0.36115246138E+03  0.36115246138E+03  0.00000000000E+00 0.  1.
        -24    2    1    2    0    0  0.12699501415E+02 -0.12186884809E+03  0.46281732244E+03  0.48545109925E+03  0.80309416294E+02 0.  0.
         23    2    1    2    0    0  0.13952442873E+03 -0.23576222929E+03  0.75922674528E+02  0.29770304385E+03  0.88385263687E+02 0.  0.
         13    1    3    3    0    0  0.46843649958E+02 -0.64076012237E+02  0.24902220514E+03  0.26136587677E+03  0.00000000000E+00 0. -1.
        -14    1    3    3    0    0 -0.34144148543E+02 -0.57792835849E+02  0.21379511730E+03  0.22408522248E+03  0.00000000000E+00 0.  1.
        -11    1    4    4    0    0  0.59145428128E+02 -0.15202300920E+03  0.79733470488E+02  0.18156707662E+03  0.00000000000E+00 0. -1.
         11    1    4    4    0    0  0.80379000606E+02 -0.83739220087E+02 -0.38107959600E+01  0.11613596723E+03  0.00000000000E+00 0.  1.
          2    1    1    2  501    0 -0.15222393015E+03  0.35763107737E+03 -0.80884048987E+02  0.39700672764E+03  0.00000000000E+00 0. -1.
<scales pt_clust_5="13000.00000" pt_clust_6="13000.00000" pt_clust_7="13000.00000" pt_clust_8="13000.00000" pt_clust_9="335.41488"></scales>
<clustering>
<clus scale="   80.309">  5  6 -1 -1</clus>
<clus scale="   88.385">  7  8 -1 -1</clus>
<clus scale="  146.502">  1  5  2 -1</clus>
<clus scale="  335.415">  2  9  1 -1</clus>
<clus scale="  335.415">  2  5  1 -1</clus>
</clustering>
</event>
<event>
 9    1  0.9171696E-005  0.2766152E+03  0.7546771E-02  0.1097552E+00
          1   -1    0    0  502    0 -0.00000000000E+00  0.00000000000E+00  0.48033205244E+03  0.48033205244E+03  0.00000000000E+00 0. -1.
         21   -1    0    0  501  502  0.00000000000E+00 -0.00000000000E+00 -0.14003823811E+03  0.14003823811E+03  0.00000000000E+00 0. -1.
        -24    2    1    2    0    0 -0.11978824286E+02  0.44324271859E+02  0.10948824990E+03  0.14999266401E+03  0.91662364594E+02 0.  0.
         23    2    1    2    0    0 -0.11496811094E+03  0.88834787369E+02  0.22801173832E+03  0.28638125461E+03  0.94422371298E+02 0.  0.
         13    1    3    3    0    0  0.32341457559E+02  0.44027600599E+02  0.79571035460E+02  0.96519164811E+02  0.00000000000E+00 0. -1.
        -14    1    3    3    0    0 -0.44320281844E+02  0.29667125978E+00  0.29917214440E+02  0.53473499198E+02  0.00000000000E+00 0.  1.
        -13    1    4    4    0    0 -0.11074555828E+03  0.68929081200E+02  0.12257336402E+03  0.17899728065E+03  0.00000000000E+00 0. -1.
         13    1    4    4    0    0 -0.42225526624E+01  0.19905706169E+02  0.10543837429E+03  0.10738397396E+03  0.00000000000E+00 0.  1.
          2    1    1    2  501    0  0.12694693522E+03 -0.13315905923E+03  0.27938261142E+01  0.18399637192E+03  0.00000000000E+00 0. -1.
<scales pt_clust_5="13000.00000" pt_clust_6="13000.00000" pt_clust_7="13000.00000" pt_clust_8="13000.00000" pt_clust_9="183.97516"></scales>
<clustering>
<clus scale="   91.662">  5  6 -1 -1</clus>
<clus scale="   94.422">  7  8 -1 -1</clus>
<clus scale="   98.975">  5  7 -1 -1</clus>
<clus scale="  183.975">  2  9  1 -1</clus>
<clus scale="  183.975">  2  5  1 -1</clus>
</clustering>
</event>
<event>
 9    1  0.9171696E-005  0.1155403E+03  0.7546771E-02  0.1253085E+00
         21   -1    0    0  501  502  0.00000000000E+00  0.00000000000E+00  0.10773935774E+03  0.10773935774E+03  0.00000000000E+00 0. -1.
          1   -1    0    0  502    0 -0.00000000000E+00 -0.00000000000E+00 -0.33969471026E+03  0.33969471026E+03  0.00000000000E+00 0. -1.
         23    2    1    2    0    0  0.15210810464E+02  0.74279974345E+02 -0.23163017209E+03  0.25943151466E+03  0.88900454645E+02 0.  0.
        -24    2    1    2    0    0  0.89637205472E+01 -0.71268017260E+02 -0.59539027279E+02  0.12397318903E+03  0.81639311967E+02 0.  0.
         13    1    4    4    0    0  0.37208176261E+02 -0.60869201200E+01 -0.20584643682E+02  0.42956100064E+02  0.00000000000E+00 0. -1.
        -14    1    4    4    0    0 -0.28244455714E+02 -0.65181097140E+02 -0.38954383596E+02  0.81017088964E+02  0.00000000000E+00 0.  1.
        -13    1    3    3    0    0 -0.16150742704E+02  0.44890835631E+02 -0.37727809642E+02  0.60822867689E+02  0.00000000000E+00 0.  1.
         13    1    3    3    0    0  0.31361553168E+02  0.29389138714E+02 -0.19390236245E+03  0.19860864698E+03  0.00000000000E+00 0. -1.
          2    1    1    2  501    0 -0.24174531012E+02 -0.30119570857E+01  0.59213846844E+02  0.64029364304E+02  0.00000000000E+00 0. -1.
<scales pt_clust_5="13000.00000" pt_clust_6="13000.00000" pt_clust_7="13000.00000" pt_clust_8="13000.00000" pt_clust_9="24.36144"></scales>
<clustering>
<clus scale="   24.361">  1  9  2 -1</clus>
<clus scale="   81.639">  5  6 -1 -1</clus>
<clus scale="   88.900">  7  8 -1 -1</clus>
<clus scale="  110.051">  1  5  2 -1</clus>
<clus scale="   24.361">  1  5  2 -1</clus>
</clustering>
</event>
<event>
 9    1  0.9171696E-005  0.9187150E+02  0.7546771E-02  0.1304120E+00
         21   -1    0    0  501  502  0.00000000000E+00  0.00000000000E+00  0.65242420792E+02  0.65242420792E+02  0.00000000000E+00 0. -1.
          1   -1    0    0  502    0 -0.00000000000E+00 -0.00000000000E+00 -0.28016976597E+03  0.28016976597E+03  0.00000000000E+00 0. -1.
         23    2    1    2    0    0 -0.17870273322E+02  0.26832131768E+01 -0.78139344470E+02  0.12091110845E+03  0.90483107218E+02 0.  0.
        -24    2    1    2    0    0  0.96031169081E+00  0.35258846217E+02 -0.75815101933E+01  0.88781279220E+02  0.81120452465E+02 0.  0.
         13    1    4    4    0    0 -0.10142389217E+02  0.45282921870E+02  0.25158502092E+02  0.52785995299E+02  0.00000000000E+00 0. -1.
        -14    1    4    4    0    0  0.11102700907E+02 -0.10024075654E+02 -0.32740012286E+02  0.35995283922E+02  0.00000000000E+00 0.  1.
        -11    1    3    3    0    0  0.30684261103E+01 -0.29069047279E+02  0.48415354467E+01  0.29628790289E+02  0.00000000000E+00 0.  1.
         11    1    3    3    0    0 -0.20938699432E+02  0.31752260455E+02 -0.82980879916E+02  0.91282318165E+02  0.00000000000E+00 0. -1.
          2    1    1    2  501    0  0.16909961631E+02 -0.37942059394E+02 -0.12920649052E+03  0.13571979909E+03  0.00000000000E+00 0. -1.
<scales pt_clust_5="13000.00000" pt_clust_6="13000.00000" pt_clust_7="13000.00000" pt_clust_8="13000.00000" pt_clust_9="41.53972"></scales>
<clustering>
<clus scale="   41.540">  1  9  2 -1</clus>
<clus scale="   81.120">  5  6 -1 -1</clus>
<clus scale="   82.666">  1  5  2 -1</clus>
<clus scale="   90.483">  7  8 -1 -1</clus>
<clus scale="   41.540">  1  5  2 -1</clus>
</clustering>
</event>
<event>
 9    1  0.9171696E-005  0.1226742E+03  0.7546771E-02  0.1283418E+00
          1   -1    0    0  502    0 -0.00000000000E+00  0.00000000000E+00  0.34503864629E+03  0.34503864629E+03  0.00000000000E+00 0. -1.
         21   -1    0    0  501  502  0.00000000000E+00 -0.00000000000E+00 -0.26201026340E+03  0.26201026340E+03  0.00000000000E+00 0. -1.
        -24    2    1    2    0    0  0.45120412737E+01  0.47547540325E+01  0.24690271084E+03  0.25212557059E+03  0.50629917250E+02 0.  0.
         23    2    1    2    0    0  0.28601932308E+02  0.68271219519E+02  0.48011345541E+02  0.12837341813E+03  0.93250282769E+02 0.  0.
         11    1    3    3    0    0  0.15942230767E+01  0.25489425214E+02  0.81635144861E+02  0.85536829620E+02  0.00000000000E+00 0. -1.
        -12    1    3    3    0    0  0.29178181970E+01 -0.20734671181E+02  0.16526756598E+03  0.16658874097E+03  0.00000000000E+00 0.  1.
        -11    1    4    4    0    0  0.12985974114E+02  0.53528873402E+02  0.75520911825E+02  0.93473974636E+02  0.00000000000E+00 0. -1.
         11    1    4    4    0    0  0.15615958194E+02  0.14742346117E+02 -0.27509566284E+02  0.34899443498E+02  0.00000000000E+00 0.  1.
          2    1    1    2  501    0 -0.33113973582E+02 -0.73025973552E+02 -0.21188567349E+03  0.22654992097E+03  0.00000000000E+00 0. -1.
<scales pt_clust_5="13000.00000" pt_clust_6="13000.00000" pt_clust_7="13000.00000" pt_clust_8="13000.00000" pt_clust_9="79.70785"></scales>
<clustering>
<clus scale="   50.630">  5  6 -1 -1</clus>
<clus scale="   51.052">  1  5  2 -1</clus>
<clus scale="   79.708">  2  9  1 -1</clus>
<clus scale="   93.250">  7  8 -1 -1</clus>
<clus scale="   79.708">  2  5  1 -1</clus>
</clustering>
</event>
<event>
 9    1  0.9171696E-005  0.1026750E+03  0.7546771E-02  0.1284421E+00
         21   -1    0    0  501  502  0.00000000000E+00  0.00000000000E+00  0.10911965537E+03  0.10911965537E+03  0.00000000000E+00 0. -1.
          1   -1    0    0  502    0 -0.00000000000E+00 -0.00000000000E+00 -0.15940616429E+03  0.15940616429E+03  0.00000000000E+00 0. -1.
         23    2    1    2    0    0 -0.13591848016E+02  0.12014703375E+00 -0.57708794692E+02  0.11419746830E+03  0.97601250061E+02 0.  0.
        -24    2    1    2    0    0  0.55461634740E+02 -0.16215304556E+02 -0.22201199749E+02  0.10057256999E+03  0.79265500275E+02 0.  0.
         11    1    4    4    0    0  0.52360227296E+02 -0.24756500062E+02 -0.46727343058E+02  0.74417217679E+02  0.00000000000E+00 0. -1.
        -12    1    4    4    0    0  0.31014074435E+01  0.85411955060E+01  0.24526143309E+02  0.26155352309E+02  0.00000000000E+00 0.  1.
        -11    1    3    3    0    0  0.23818892391E+02  0.29899993296E+02 -0.54102635051E+02  0.66245334577E+02  0.00000000000E+00 0.  1.
         11    1    3    3    0    0 -0.37410740407E+02 -0.29779846262E+02 -0.36061596416E+01  0.47952133722E+02  0.00000000000E+00 0. -1.
          2    1    1    2  501    0 -0.41869786724E+02  0.16095157522E+02  0.29623485524E+02  0.53755781369E+02  0.00000000000E+00 0. -1.
<scales pt_clust_5="13000.00000" pt_clust_6="13000.00000" pt_clust_7="13000.00000" pt_clust_8="13000.00000" pt_clust_9="44.85681"></scales>
<clustering>
<clus scale="   44.857">  1  9  2 -1</clus>
<clus scale="   79.266">  5  6 -1 -1</clus>
<clus scale="   85.435">  1  5  2 -1</clus>
<clus scale="   97.601">  7  8 -1 -1</clus>
<clus scale="   44.857">  1  5  2 -1</clus>
</clustering>
</event>
<event>
 9    1  0.9171696E-005  0.1936224E+03  0.7546771E-02  0.1162564E+00
         21   -1    0    0  501  502  0.00000000000E+00  0.00000000000E+00  0.53476145186E+03  0.53476145186E+03  0.00000000000E+00 0. -1.
          1   -1    0    0  502    0 -0.00000000000E+00 -0.00000000000E+00 -0.15772882760E+03  0.15772882760E+03  0.00000000000E+00 0. -1.
        -24    2    1    2    0    0  0.10661583904E+02  0.14140041319E+03  0.20409552945E+03  0.26132023485E+03  0.80780776051E+02 0.  0.
         23    2    1    2    0    0  0.16305077843E+03 -0.36347567417E+02  0.98896147540E+02  0.21508175918E+03  0.92590567180E+02 0.  0.
         13    1    3    3    0    0  0.39628746207E+02  0.12207062496E+03  0.16258923612E+03  0.20713989164E+03  0.00000000000E+00 0. -1.
        -14    1    3    3    0    0 -0.28967162304E+02  0.19329788224E+02  0.41506293326E+02  0.54180343210E+02  0.00000000000E+00 0.  1.
        -11    1    4    4    0    0  0.11921772145E+02 -0.30753995127E+02 -0.23812585269E+01  0.33069733284E+02  0.00000000000E+00 0.  1.
         11    1    4    4    0    0  0.15112900628E+03 -0.55935722901E+01  0.10127740607E+03  0.18201202590E+03  0.00000000000E+00 0. -1.
          2    1    1    2  501    0 -0.17371236233E+03 -0.10505284577E+03  0.74040947270E+02  0.21608828544E+03  0.00000000000E+00 0. -1.
<scales pt_clust_5="13000.00000" pt_clust_6="13000.00000" pt_clust_7="13000.00000" pt_clust_8="13000.00000" pt_clust_9="170.04895"></scales>
<clustering>
<clus scale="   80.781">  5  6 -1 -1</clus>
<clus scale="   92.591">  7  8 -1 -1</clus>
<clus scale="  163.197">  2  5  1 -1</clus>
<clus scale="  170.049">  1  9  2 -1</clus>
<clus scale="  170.049">  1  5  2 -1</clus>
</clustering>
</event>
<event>
 9    1  0.9171696E-005  0.8673548E+02  0.7546771E-02  0.1315256E+00
          1   -1    0    0  502    0 -0.00000000000E+00  0.00000000000E+00  0.86314766577E+03  0.86314766577E+03  0.00000000000E+00 0. -1.
         21   -1    0    0  501  502  0.00000000000E+00 -0.00000000000E+00 -0.84867583141E+02  0.84867583141E+02  0.00000000000E+00 0. -1.
        -24    2    1    2    0    0  0.89503677550E+01  0.31851620242E+01  0.60726934424E+03  0.61251600810E+03  0.79432672077E+02 0.  0.
         23    2    1    2    0    0 -0.15401702726E+02  0.30260754733E+02  0.24074978093E+03  0.25788620630E+03  0.85976233098E+02 0.  0.
         13    1    3    3    0    0 -0.32623286596E+02 -0.96949898236E+01  0.19415094143E+03  0.19711128764E+03  0.00000000000E+00 0. -1.
        -14    1    3    3    0    0  0.41573654351E+02  0.12880151848E+02  0.41311840281E+03  0.41540472047E+03  0.00000000000E+00 0.  1.
        -11    1    4    4    0    0  0.70213384007E+00  0.58678340323E+02  0.17282305641E+03  0.18251424449E+03  0.00000000000E+00 0. -1.
         11    1    4    4    0    0 -0.16103836566E+02 -0.28417585590E+02  0.67926724523E+02  0.75371961811E+02  0.00000000000E+00 0.  1.
          2    1    1    2  501    0  0.64513349714E+01 -0.33445916757E+02 -0.69739042541E+02  0.77613034506E+02  0.00000000000E+00 0. -1.
<scales pt_clust_5="13000.00000" pt_clust_6="13000.00000" pt_clust_7="13000.00000" pt_clust_8="13000.00000" pt_clust_9="34.06243"></scales>
<clustering>
<clus scale="   34.062">  2  9  1 -1</clus>
<clus scale="   79.433">  5  6 -1 -1</clus>
<clus scale="   80.254">  1  5  2 -1</clus>
<clus scale="   85.976">  7  8 -1 -1</clus>
<clus scale="   34.062">  2  5  1 -1</clus>
</clustering>
</event>
<event>
 9    1  0.9171696E-005  0.1200460E+03  0.7546771E-02  0.1248216E+00
          1   -1    0    0  502    0 -0.00000000000E+00  0.00000000000E+00  0.61144348515E+03  0.61144348515E+03  0.00000000000E+00 0. -1.
         21   -1    0    0  501  502  0.00000000000E+00 -0.00000000000E+00 -0.65020834041E+02  0.65020834041E+02  0.00000000000E+00 0. -1.
        -24    2    1    2    0    0 -0.60485848571E+02 -0.38986539531E+02  0.34348740953E+03  0.36010571327E+03  0.80709578627E+02 0.  0.
         23    2    1    2    0    0 -0.56969922977E+02  0.32200184298E+01  0.47736176980E+02  0.11846506900E+03  0.92191590389E+02 0.  0.
         13    1    3    3    0    0 -0.53581096653E+02 -0.63177391574E+02  0.25561056670E+03  0.26869886217E+03  0.00000000000E+00 0. -1.
        -14    1    3    3    0    0 -0.69047519183E+01  0.24190852043E+02  0.87876842825E+02  0.91406851092E+02  0.00000000000E+00 0.  1.
        -13    1    4    4    0    0 -0.31509793127E+02  0.40809817570E+02 -0.13836371658E+01  0.51577347012E+02  0.00000000000E+00 0. -1.
         13    1    4    4    0    0 -0.25460129850E+02 -0.37589799140E+02  0.49119814146E+02  0.66887721991E+02  0.00000000000E+00 0.  1.
          2    1    1    2  501    0  0.11745577155E+03  0.35766521102E+02  0.15519906461E+03  0.19789353692E+03  0.00000000000E+00 0. -1.
<scales pt_clust_5="13000.00000" pt_clust_6="13000.00000" pt_clust_7="13000.00000" pt_clust_8="13000.00000" pt_clust_9="76.88798"></scales>
<clustering>
<clus scale="   80.710">  5  6 -1 -1</clus>
<clus scale="   92.192">  7  8 -1 -1</clus>
<clus scale="  108.132">  1  5  2 -1</clus>
<clus scale="   76.888">  2  9  1 -1</clus>
<clus scale="   76.888">  2  5  1 -1</clus>
</clustering>
</event>
<event>
 9    1  0.9171696E-005  0.1177981E+03  0.7546771E-02  0.1251130E+00
         21   -1    0    0  501  502  0.00000000000E+00  0.00000000000E+00  0.43903589832E+02  0.43903589832E+02  0.00000000000E+00 0.  1.
          1   -1    0    0  502    0 -0.00000000000E+00 -0.00000000000E+00 -0.46549002310E+03  0.46549002310E+03  0.00000000000E+00 0. -1.
         23    2    1    2    0    0 -0.66812151451E+02  0.59824138070E+02 -0.26691355676E+03  0.29621487195E+03  0.91965278796E+02 0.  0.
        -24    2    1    2    0    0  0.41146260881E+02 -0.40714194079E+02 -0.15233782304E+03  0.18109478280E+03  0.78980045865E+02 0.  0.
         11    1    4    4    0    0  0.17234145598E+02 -0.56654526010E+02 -0.13528504717E+03  0.14767801150E+03  0.00000000000E+00 0. -1.
        -12    1    4    4    0    0  0.23912115283E+02  0.15940331932E+02 -0.17052775868E+02  0.33416771302E+02  0.00000000000E+00 0.  1.
        -13    1    3    3    0    0 -0.82287973067E+02  0.37753516802E+02 -0.24589711857E+03  0.26203440893E+03  0.00000000000E+00 0. -1.
         13    1    3    3    0    0  0.15475821616E+02  0.22070621269E+02 -0.21016438185E+02  0.34180463015E+02  0.00000000000E+00 0.  1.
          2    1    1    2  501    0  0.25665890569E+02 -0.19109943992E+02 -0.23350534708E+01  0.32083958185E+02  0.00000000000E+00 0. -1.
<scales pt_clust_5="13000.00000" pt_clust_6="13000.00000" pt_clust_7="13000.00000" pt_clust_8="13000.00000" pt_clust_9="31.99887"></scales>
<clustering>
<clus scale="   31.999">  1  9  2 -1</clus>
<clus scale="   78.980">  5  6 -1 -1</clus>
<clus scale="   91.965">  7  8 -1 -1</clus>
<clus scale="  107.966">  1  5  2 -1</clus>
<clus scale="   31.999">  1  5  2 -1</clus>
</clustering>
</event>
<event>
 9    1  0.9171696E-005  0.1008013E+03  0.7546771E-02  0.1285588E+00
         21   -1    0    0  501  502  0.00000000000E+00  0.00000000000E+00  0.14072618943E+03  0.14072618943E+03  0.00000000000E+00 0. -1.
          1   -1    0    0  502    0 -0.00000000000E+00 -0.00000000000E+00 -0.38433603979E+03  0.38433603979E+03  0.00000000000E+00 0. -1.
         23    2    1    2    0    0 -0.28957218193E+02  0.26698351786E+02 -0.32468991458E+03  0.34039475721E+03  0.94306562010E+02 0.  0.
        -24    2    1    2    0    0  0.20337346024E+02 -0.54826540334E+01 -0.15892596638E+02  0.85027595554E+02  0.80829760851E+02 0.  0.
         11    1    4    4    0    0  0.16923298492E+02  0.14618697577E+02 -0.44555395993E+02  0.49852659535E+02  0.00000000000E+00 0. -1.
        -12    1    4    4    0    0  0.34140475323E+01 -0.20101351610E+02  0.28662799354E+02  0.35174936019E+02  0.00000000000E+00 0.  1.
        -13    1    3    3    0    0 -0.32485760768E+02 -0.23354450630E+02 -0.68425259371E+02  0.79263933392E+02  0.00000000000E+00 0.  1.
         13    1    3    3    0    0  0.35285425752E+01  0.50052802416E+02 -0.25626465521E+03  0.26113082382E+03  0.00000000000E+00 0. -1.
          2    1    1    2  501    0  0.86198721689E+01 -0.21215697753E+02  0.96972660850E+02  0.99639876453E+02  0.00000000000E+00 0. -1.
<scales pt_clust_5="13000.00000" pt_clust_6="13000.00000" pt_clust_7="13000.00000" pt_clust_8="13000.00000" pt_clust_9="22.89996"></scales>
<clustering>
<clus scale="   22.900">  1  9  2 -1</clus>
<clus scale="   80.830">  5  6 -1 -1</clus>
<clus scale="   88.321">  1  5  2 -1</clus>
<clus scale="   94.307">  7  8 -1 -1</clus>
<clus scale="   22.900">  1  5  2 -1</clus>
</clustering>
</event>
<event>
 9    1  0.9171696E-005  0.9135335E+02  0.7546771E-02  0.1306346E+00
         21   -1    0    0  501  502  0.00000000000E+00  0.00000000000E+00  0.83018547000E+02  0.83018547000E+02  0.00000000000E+00 0.  1.
         -2   -1    0    0    0  501 -0.00000000000E+00 -0.00000000000E+00 -0.29846843807E+03  0.29846843807E+03  0.00000000000E+00 0.  1.
        -24    2    1    2    0    0  0.32391914860E+02 -0.19245043809E+02 -0.11492956875E+03  0.14517501007E+03  0.80295516157E+02 0.  0.
         23    2    1    2    0    0  0.29978505670E+02 -0.39862286659E+02 -0.10836956301E+03  0.15002549605E+03  0.90972383603E+02 0.  0.
         11    1    3    3    0    0 -0.24614898450E+02  0.70931252563E+01 -0.28198282480E+02  0.38096571846E+02  0.00000000000E+00 0. -1.
        -12    1    3    3    0    0  0.57006813310E+02 -0.26338169065E+02 -0.86731286270E+02  0.10707843822E+03  0.00000000000E+00 0.  1.
        -13    1    4    4    0    0  0.38516644125E+02  0.18675357170E+02 -0.59476393120E+02  0.73278524676E+02  0.00000000000E+00 0. -1.
         13    1    4    4    0    0 -0.85381384545E+01 -0.58537643829E+02 -0.48893169885E+02  0.76746971372E+02  0.00000000000E+00 0.  1.
         -1    1    1    2    0  502 -0.62370420531E+02  0.59107330468E+02  0.78492406809E+01  0.86286478961E+02  0.00000000000E+00 0.  1.
<scales pt_clust_5="13000.00000" pt_clust_6="13000.00000" pt_clust_7="13000.00000" pt_clust_8="13000.00000" pt_clust_9="85.92873"></scales>
<clustering>
<clus scale="   80.296">  5  6 -1 -1</clus>
<clus scale="   85.929">  1  9  2 -1</clus>
<clus scale="   80.727">  2  5  1 -1</clus>
<clus scale="   90.972">  7  8 -1 -1</clus>
<clus scale="   85.929">  1  5  2 -1</clus>
</clustering>
</event>
<event>
 9    1  0.9171696E-005  0.1043565E+03  0.7546771E-02  0.1276965E+00
         -2   -1    0    0    0  501 -0.00000000000E+00  0.00000000000E+00  0.23924983701E+03  0.23924983701E+03  0.00000000000E+00 0.  1.
         21   -1    0    0  501  502  0.00000000000E+00 -0.00000000000E+00 -0.10728298722E+03  0.10728298722E+03  0.00000000000E+00 0. -1.
         23    2    1    2    0    0 -0.17911555135E+02 -0.30040382219E+01  0.10250310745E+02  0.93972778990E+02  0.91629505443E+02 0.  0.
        -24    2    1    2    0    0  0.20301126150E+02  0.93198958288E+02  0.38755503516E+02  0.12999019956E+03  0.79355411794E+02 0.  0.
         13    1    4    4    0    0  0.39545701695E+02  0.82573640433E+02  0.76131912840E+01  0.91870720572E+02  0.00000000000E+00 0. -1.
        -14    1    4    4    0    0 -0.19244575545E+02  0.10625317855E+02  0.31142312232E+02  0.38119478992E+02  0.00000000000E+00 0.  1.
        -11    1    3    3    0    0  0.19790292375E+02 -0.36199165233E+02  0.14084686258E+02  0.43593733757E+02  0.00000000000E+00 0.  1.
         11    1    3    3    0    0 -0.37701847511E+02  0.33195127011E+02 -0.38343755128E+01  0.50379045233E+02  0.00000000000E+00 0. -1.
         -1    1    1    2    0  502 -0.23895710146E+01 -0.90194920066E+02  0.82961035525E+02  0.12256984568E+03  0.00000000000E+00 0.  1.
<scales pt_clust_5="13000.00000" pt_clust_6="13000.00000" pt_clust_7="13000.00000" pt_clust_8="13000.00000" pt_clust_9="90.22661"></scales>
<clustering>
<clus scale="   79.355">  5  6 -1 -1</clus>
<clus scale="   90.227">  2  9  1 -1</clus>
<clus scale="   91.630">  7  8 -1 -1</clus>
<clus scale="   93.764">  2  5  1 -1</clus>
<clus scale="   90.227">  2  5  1 -1</clus>
</clustering>
</event>
<event>
 9    1  0.9171696E-005  0.2703839E+03  0.7546771E-02  0.1114044E+00
         21   -1    0    0  501  502  0.00000000000E+00  0.00000000000E+00  0.23709526493E+03  0.23709526493E+03  0.00000000000E+00 0. -1.
          1   -1    0    0  502    0 -0.00000000000E+00 -0.00000000000E+00 -0.26437377760E+04  0.26437377760E+04  0.00000000000E+00 0. -1.
        -24    2    1    2    0    0  0.16656081716E+03 -0.58274202039E+02 -0.67688046660E+03  0.70412041222E+03  0.80498449629E+02 0.  0.
         23    2    1    2    0    0  0.22963303502E+03 -0.91426206638E+02  0.11273923109E+03  0.28615960611E+03  0.89928326516E+02 0.  0.
         13    1    3    3    0    0  0.17529441746E+03 -0.58286508349E+02 -0.63425683340E+03  0.66061121740E+03  0.00000000000E+00 0. -1.
        -14    1    3    3    0    0 -0.87336002958E+01  0.12306309727E-01 -0.42623633207E+02  0.43509194814E+02  0.00000000000E+00 0.  1.
        -11    1    4    4    0    0  0.97934697756E+02 -0.84234357651E+02  0.73155529054E+02  0.14845323663E+03  0.00000000000E+00 0. -1.
         11    1    4    4    0    0  0.13169833726E+03 -0.71918489868E+01  0.39583702033E+02  0.13770636948E+03  0.00000000000E+00 0.  1.
          2    1    1    2  501    0 -0.39619385218E+03  0.14970040868E+03 -0.18425012755E+04  0.18905530226E+04  0.00000000000E+00 0. -1.
<scales pt_clust_5="13000.00000" pt_clust_6="13000.00000" pt_clust_7="13000.00000" pt_clust_8="13000.00000" pt_clust_9="254.99103"></scales>
<clustering>
<clus scale="   80.498">  5  6 -1 -1</clus>
<clus scale="   89.928">  7  8 -1 -1</clus>
<clus scale="  193.955">  2  5  1 -1</clus>
<clus scale="  254.991">  1  9  2 -1</clus>
<clus scale="  254.991">  1  5  2 -1</clus>
</clustering>
</event>
<event>
 9    1  0.9171696E-005  0.1275100E+03  0.7546771E-02  0.1232324E+00
         -4   -1    0    0    0  501 -0.00000000000E+00  0.00000000000E+00  0.16693107142E+03  0.16693107142E+03  0.00000000000E+00 0.  1.
         21   -1    0    0  501  502  0.00000000000E+00 -0.00000000000E+00 -0.19570064010E+03  0.19570064010E+03  0.00000000000E+00 0.  1.
        -24    2    1    2    0    0 -0.90799408543E+02 -0.51443818747E+02  0.61033677769E+02  0.14861069083E+03  0.86423541511E+02 0.  0.
         23    2    1    2    0    0  0.67176790871E+02  0.24395315535E+02  0.20451871167E+01  0.11540162940E+03  0.90584218416E+02 0.  0.
         11    1    3    3    0    0 -0.63042807612E+01 -0.38147130272E+02 -0.70315554251E+01  0.39298731221E+02  0.00000000000E+00 0. -1.
        -12    1    3    3    0    0 -0.84495127782E+02 -0.13296688474E+02  0.68065233194E+02  0.10931195961E+03  0.00000000000E+00 0.  1.
        -13    1    4    4    0    0  0.87794816399E+02  0.96098959271E+01  0.98254046713E+01  0.88864044828E+02  0.00000000000E+00 0. -1.
         13    1    4    4    0    0 -0.20618025529E+02  0.14785419608E+02 -0.77802175546E+01  0.26537584571E+02  0.00000000000E+00 0.  1.
         -3    1    1    2    0  502  0.23622617673E+02  0.27048503212E+02 -0.91848433559E+02  0.98619391293E+02  0.00000000000E+00 0.  1.
<scales pt_clust_5="13000.00000" pt_clust_6="13000.00000" pt_clust_7="13000.00000" pt_clust_8="13000.00000" pt_clust_9="35.91169"></scales>
<clustering>
<clus scale="   35.912">  2  9  1 -1</clus>
<clus scale="   86.424">  5  6 -1 -1</clus>
<clus scale="   90.584">  7  8 -1 -1</clus>
<clus scale="  124.589">  1  5  2 -1</clus>
<clus scale="   35.912">  2  5  1 -1</clus>
</clustering>
</event>
<event>
 9    1  0.9171696E-005  0.3387219E+03  0.7546771E-02  0.1067629E+00
         21   -1    0    0  501  502  0.00000000000E+00  0.00000000000E+00  0.33751753981E+03  0.33751753981E+03  0.00000000000E+00 0.  1.
          1   -1    0    0  502    0 -0.00000000000E+00 -0.00000000000E+00 -0.10994321598E+04  0.10994321598E+04  0.00000000000E+00 0. -1.
         23    2    1    2    0    0 -0.32673693312E+03 -0.53827820968E+02 -0.96697354833E+03  0.10260395486E+04  0.89804534597E+02 0.  0.
        -24    2    1    2    0    0  0.28659954065E+03  0.49215979530E+02  0.13541342026E+03  0.33039446213E+03  0.79134043726E+02 0.  0.
         13    1    4    4    0    0  0.53514493333E+02 -0.29198785720E+01  0.58807396294E+02  0.79565297375E+02  0.00000000000E+00 0. -1.
        -14    1    4    4    0    0  0.23308504731E+03  0.52135858102E+02  0.76606023967E+02  0.25082916475E+03  0.00000000000E+00 0.  1.
        -11    1    3    3    0    0 -0.26870235920E+03 -0.34590008384E+02 -0.66742125327E+03  0.72031142976E+03  0.00000000000E+00 0.  1.
         11    1    3    3    0    0 -0.58034573921E+02 -0.19237812584E+02 -0.29955229505E+03  0.30572811888E+03  0.00000000000E+00 0. -1.
          2    1    1    2  501    0  0.40137392473E+02  0.46118414387E+01  0.69645508071E+02  0.80515688847E+02  0.00000000000E+00 0. -1.
<scales pt_clust_5="13000.00000" pt_clust_6="13000.00000" pt_clust_7="13000.00000" pt_clust_8="13000.00000" pt_clust_9="40.40148"></scales>
<clustering>
<clus scale="   40.401">  1  9  2 -1</clus>
<clus scale="   79.134">  5  6 -1 -1</clus>
<clus scale="   89.805">  7  8 -1 -1</clus>
<clus scale="  336.050">  1  5  2 -1</clus>
<clus scale="   40.401">  1  5  2 -1</clus>
</clustering>
</event>
<event>
 9    1  0.9171696E-005  0.9619593E+02  0.7546771E-02  0.1291323E+00
         21   -1    0    0  501  502  0.00000000000E+00  0.00000000000E+00  0.16251242837E+03  0.16251242837E+03  0.00000000000E+00 0. -1.
          1   -1    0    0  502    0 -0.00000000000E+00 -0.00000000000E+00 -0.12623957206E+03  0.12623957206E+03  0.00000000000E+00 0. -1.
         23    2    1    2    0    0 -0.59152529245E+02  0.41058906379E+02 -0.19824365984E+02  0.11650670815E+03  0.89420087504E+02 0.  0.
        -24    2    1    2    0    0 -0.44749246787E+01  0.42130439255E+01  0.22617726870E+02  0.87281305840E+02  0.84075502320E+02 0.  0.
         13    1    4    4    0    0 -0.18475825087E+02  0.37966555781E+02  0.27537351873E+02  0.50409534998E+02  0.00000000000E+00 0. -1.
        -14    1    4    4    0    0  0.14000900409E+02 -0.33753511856E+02 -0.49196250033E+01  0.36871770842E+02  0.00000000000E+00 0.  1.
        -11    1    3    3    0    0 -0.27042026039E+02  0.99441889085E+01  0.35275912735E+02  0.45547207210E+02  0.00000000000E+00 0. -1.
         11    1    3    3    0    0 -0.32110503206E+02  0.31114717470E+02 -0.55100278719E+02  0.70959500945E+02  0.00000000000E+00 0.  1.
          2    1    1    2  501    0  0.63627453924E+02 -0.45271950304E+02  0.33479495424E+02  0.84963986436E+02  0.00000000000E+00 0. -1.
<scales pt_clust_5="13000.00000" pt_clust_6="13000.00000" pt_clust_7="13000.00000" pt_clust_8="13000.00000" pt_clust_9="78.08971"></scales>
<clustering>
<clus scale="   78.090">  1  9  2 -1</clus>
<clus scale="   84.076">  5  6 -1 -1</clus>
<clus scale="   89.420">  7  8 -1 -1</clus>
<clus scale="   91.249">  1  5  2 -1</clus>
<clus scale="   78.090">  1  5  2 -1</clus>
</clustering>
</event>
<event>
 9    1  0.9171696E-005  0.1530005E+03  0.7546771E-02  0.1220873E+00
         21   -1    0    0  501  502  0.00000000000E+00  0.00000000000E+00  0.48420577299E+03  0.48420577299E+03  0.00000000000E+00 0.  1.
          1   -1    0    0  502    0 -0.00000000000E+00 -0.00000000000E+00 -0.10967157574E+03  0.10967157574E+03  0.00000000000E+00 0. -1.
        -24    2    1    2    0    0 -0.34267564007E+02 -0.39039007549E+02 -0.26607178609E+01  0.91515135600E+02  0.75296949281E+02 0.  0.
         23    2    1    2    0    0 -0.11503327725E+03  0.82530340097E+01  0.29531225033E+03  0.32932092279E+03  0.89118895584E+02 0.  0.
         13    1    3    3    0    0 -0.17819130448E+02 -0.57996782271E+02  0.12839179044E+02  0.62016067936E+02  0.00000000000E+00 0. -1.
        -14    1    3    3    0    0 -0.16448433560E+02  0.18957774722E+02 -0.15499896905E+02  0.29499067664E+02  0.00000000000E+00 0.  1.
        -11    1    4    4    0    0 -0.58875629322E+02 -0.18498123962E+02  0.60548168241E+02  0.86455774796E+02  0.00000000000E+00 0. -1.
         11    1    4    4    0    0 -0.56157647929E+02  0.26751157971E+02  0.23476408209E+03  0.24286514800E+03  0.00000000000E+00 0.  1.
          2    1    1    2  501    0  0.14930084126E+03  0.30785973539E+02  0.81882664782E+02  0.17304129033E+03  0.00000000000E+00 0. -1.
<scales pt_clust_5="13000.00000" pt_clust_6="13000.00000" pt_clust_7="13000.00000" pt_clust_8="13000.00000" pt_clust_9="124.36631"></scales>
<clustering>
<clus scale="   75.297">  5  6 -1 -1</clus>
<clus scale="   89.119">  7  8 -1 -1</clus>
<clus scale="   91.476">  2  5  1 -1</clus>
<clus scale="  124.366">  1  9  2 -1</clus>
<clus scale="  124.366">  1  5  2 -1</clus>
</clustering>
</event>
<event>
 9    1  0.9171696E-005  0.1402648E+03  0.7546771E-02  0.1233110E+00
         21   -1    0    0  501  502  0.00000000000E+00  0.00000000000E+00  0.10271520148E+03  0.10271520148E+03  0.00000000000E+00 0. -1.
          1   -1    0    0  502    0 -0.00000000000E+00 -0.00000000000E+00 -0.44523986648E+03  0.44523986648E+03  0.00000000000E+00 0. -1.
         23    2    1    2    0    0  0.14787132348E+01  0.14347288542E+02 -0.26126545024E+03  0.27702262586E+03  0.90960807328E+02 0.  0.
        -24    2    1    2    0    0  0.53751825977E+02 -0.11204516522E+03 -0.48833963620E+02  0.15411341762E+03  0.76959805365E+02 0.  0.
         11    1    4    4    0    0  0.22138146097E+02 -0.85386249842E+02 -0.65146766673E+02  0.10965860834E+03  0.00000000000E+00 0. -1.
        -12    1    4    4    0    0  0.31613679879E+02 -0.26658915380E+02  0.16312803053E+02  0.44454809281E+02  0.00000000000E+00 0.  1.
        -11    1    3    3    0    0  0.87719348771E+01 -0.36503355904E+02 -0.14739102207E+03  0.15209719004E+03  0.00000000000E+00 0. -1.
         11    1    3    3    0    0 -0.72932216424E+01  0.50850644447E+02 -0.11387442817E+03  0.12492543582E+03  0.00000000000E+00 0.  1.
          2    1    1    2  501    0 -0.55230539212E+02  0.97697876680E+02 -0.32425251136E+02  0.11681902448E+03  0.00000000000E+00 0. -1.
<scales pt_clust_5="13000.00000" pt_clust_6="13000.00000" pt_clust_7="13000.00000" pt_clust_8="13000.00000" pt_clust_9="117.26633"></scales>
<clustering>
<clus scale="   76.960">  5  6 -1 -1</clus>
<clus scale="   90.961">  7  8 -1 -1</clus>
<clus scale="   92.097">  2  7  1 -1</clus>
<clus scale="  117.266">  1  9  2 -1</clus>
<clus scale="  117.266">  1  5  2 -1</clus>
</clustering>
</event>
<event>
 9    1  0.9171696E-005  0.1418448E+03  0.7546771E-02  0.1213987E+00
          1   -1    0    0  502    0 -0.00000000000E+00  0.00000000000E+00  0.12596685447E+03  0.12596685447E+03  0.00000000000E+00 0. -1.
         21   -1    0    0  501  502  0.00000000000E+00 -0.00000000000E+00 -0.45765279385E+03  0.45765279385E+03  0.00000000000E+00 0. -1.
        -24    2    1    2    0    0 -0.10220293870E+03 -0.27774215406E+02  0.64961584798E+02  0.14916067130E+03  0.82535147917E+02 0.  0.
         23    2    1    2    0    0  0.84315463060E+02  0.41319489344E+02 -0.23159475715E+03  0.26788811483E+03  0.96496181362E+02 0.  0.
         11    1    3    3    0    0 -0.88963020981E+02 -0.56027124296E+01  0.11615546879E+02  0.89892883022E+02  0.00000000000E+00 0. -1.
        -12    1    3    3    0    0 -0.13239917722E+02 -0.22171502977E+02  0.53346037918E+02  0.59267788276E+02  0.00000000000E+00 0.  1.
        -13    1    4    4    0    0  0.56172553480E+02 -0.25212830587E+02 -0.12147099036E+03  0.13618459564E+03  0.00000000000E+00 0.  1.
         13    1    4    4    0    0  0.28142909580E+02  0.66532319932E+02 -0.11012376679E+03  0.13170351919E+03  0.00000000000E+00 0. -1.
          2    1    1    2  501    0  0.17887475643E+02 -0.13545273938E+02 -0.16505276702E+03  0.16657086219E+03  0.00000000000E+00 0. -1.
<scales pt_clust_5="13000.00000" pt_clust_6="13000.00000" pt_clust_7="13000.00000" pt_clust_8="13000.00000" pt_clust_9="22.43738"></scales>
<clustering>
<clus scale="   22.437">  2  9  1 -1</clus>
<clus scale="   82.535">  5  6 -1 -1</clus>
<clus scale="   96.496">  7  8 -1 -1</clus>
<clus scale="  132.742">  1  5  2 -1</clus>
<clus scale="   22.437">  2  5  1 -1</clus>
</clustering>
</event>
<event>
 9    1  0.9171696E-005  0.1113150E+03  0.7546771E-02  0.1258298E+00
         -4   -1    0    0    0  501 -0.00000000000E+00  0.00000000000E+00  0.10433575414E+03  0.10433575414E+03  0.00000000000E+00 0.  1.
         21   -1    0    0  501  502  0.00000000000E+00 -0.00000000000E+00 -0.37184376671E+03  0.37184376671E+03  0.00000000000E+00 0.  1.
        -24    2    1    2    0    0  0.23871866217E+02  0.49202020271E+02  0.20157021754E+02  0.10845408845E+03  0.91461899060E+02 0.  0.
         23    2    1    2    0    0  0.18999455004E+02 -0.11632098801E+03 -0.18796548451E+03  0.24012094092E+03  0.91844931053E+02 0.  0.
         13    1    3    3    0    0  0.40409691602E+02  0.83850837699E+01  0.42354054878E+02  0.59136441978E+02  0.00000000000E+00 0. -1.
        -14    1    3    3    0    0 -0.16537825385E+02  0.40816936501E+02 -0.22197033124E+02  0.49317646470E+02  0.00000000000E+00 0.  1.
        -11    1    4    4    0    0 -0.12177563925E+01 -0.12662469704E+03 -0.15615303873E+03  0.20104494109E+03  0.00000000000E+00 0.  1.
         11    1    4    4    0    0  0.20217211396E+02  0.10303709036E+02 -0.31812445779E+02  0.39075999833E+02  0.00000000000E+00 0. -1.
         -3    1    1    2    0  502 -0.42871321221E+02  0.67118967738E+02 -0.99699549816E+02  0.12760449148E+03  0.00000000000E+00 0.  1.
<scales pt_clust_5="13000.00000" pt_clust_6="13000.00000" pt_clust_7="13000.00000" pt_clust_8="13000.00000" pt_clust_9="79.64236"></scales>
<clustering>
<clus scale="   79.642">  2  9  1 -1</clus>
<clus scale="   91.462">  5  6 -1 -1</clus>
<clus scale="   91.845">  7  8 -1 -1</clus>
<clus scale="  110.999">  1  5  2 -1</clus>
<clus scale="   79.642">  2  5  1 -1</clus>
</clustering>
</event>
<event>
 9    1  0.9171696E-005  0.1086466E+03  0.7546771E-02  0.1267281E+00
         -4   -1    0    0    0  501 -0.00000000000E+00  0.00000000000E+00  0.80536022916E+02  0.80536022916E+02  0.00000000000E+00 0.  1.
         21   -1    0    0  501  502  0.00000000000E+00 -0.00000000000E+00 -0.29760930649E+03  0.29760930649E+03  0.00000000000E+00 0. -1.
        -24    2    1    2    0    0  0.31077263243E+02  0.32126889732E+02 -0.53062317111E+02  0.10627208461E+03  0.80499771029E+02 0.  0.
         23    2    1    2    0    0 -0.98987008550E+02 -0.20296645666E+02 -0.14835121851E+03  0.20118437801E+03  0.90866320679E+02 0.  0.
         13    1    3    3    0    0  0.46930164825E+02  0.40357693821E+02 -0.60838997986E+02  0.86790365231E+02  0.00000000000E+00 0. -1.
        -14    1    3    3    0    0 -0.15852901582E+02 -0.82308040891E+01  0.77766808748E+01  0.19481719379E+02  0.00000000000E+00 0.  1.
        -13    1    4    4    0    0 -0.33413091405E+02 -0.27594693901E+02 -0.12315762188E+03  0.13055918824E+03  0.00000000000E+00 0.  1.
         13    1    4    4    0    0 -0.65573917144E+02  0.72980482342E+01 -0.25193596633E+02  0.70625189763E+02  0.00000000000E+00 0. -1.
         -3    1    1    2    0  502  0.67909745307E+02 -0.11830244066E+02 -0.15659747958E+02  0.70688866792E+02  0.00000000000E+00 0.  1.
<scales pt_clust_5="13000.00000" pt_clust_6="13000.00000" pt_clust_7="13000.00000" pt_clust_8="13000.00000" pt_clust_9="68.93252"></scales>
<clustering>
<clus scale="   68.933">  2  9  1 -1</clus>
<clus scale="   80.500">  5  6 -1 -1</clus>
<clus scale="   90.866">  7  8 -1 -1</clus>
<clus scale="  100.138">  1  5  2 -1</clus>
<clus scale="   68.933">  2  5  1 -1</clus>
</clustering>
</event>
<event>
 9    1  0.9171696E-005  0.3160194E+03  0.7546771E-02  0.1122561E+00
         21   -1    0    0  501  502  0.00000000000E+00  0.00000000000E+00  0.29104832483E+03  0.29104832483E+03  0.00000000000E+00 0. -1.
          1   -1    0    0  502    0 -0.00000000000E+00 -0.00000000000E+00 -0.17536656369E+04  0.17536656369E+04  0.00000000000E+00 0. -1.
         23    2    1    2    0    0  0.31459419314E+02 -0.12089303053E+02 -0.36686184834E+03  0.37975360072E+03  0.92137588310E+02 0.  0.
        -24    2    1    2    0    0 -0.12479558827E+03  0.30188821571E+03 -0.12702802556E+04  0.13140273856E+04  0.79659329972E+02 0.  0.
         11    1    4    4    0    0 -0.81810343201E+02  0.26786793570E+03 -0.11024132804E+04  0.11374362417E+04  0.00000000000E+00 0. -1.
        -12    1    4    4    0    0 -0.42985245069E+02  0.34020280017E+02 -0.16786697521E+03  0.17659114392E+03  0.00000000000E+00 0.  1.
        -11    1    3    3    0    0  0.58148609818E+02 -0.19165103657E+02 -0.31603664937E+03  0.32191260579E+03  0.00000000000E+00 0.  1.
         11    1    3    3    0    0 -0.26689190504E+02  0.70758006038E+01 -0.50825198970E+02  0.57840994928E+02  0.00000000000E+00 0. -1.
          2    1    1    2  501    0  0.93336168956E+02 -0.28979891266E+03  0.17452479187E+03  0.35093297536E+03  0.00000000000E+00 0. -1.
<scales pt_clust_5="13000.00000" pt_clust_6="13000.00000" pt_clust_7="13000.00000" pt_clust_8="13000.00000" pt_clust_9="305.81479"></scales>
<clustering>
<clus scale="   79.659">  5  6 -1 -1</clus>
<clus scale="   92.138">  7  8 -1 -1</clus>
<clus scale="   98.108">  2  7  1 -1</clus>
<clus scale="  305.815">  1  9  2 -1</clus>
<clus scale="  305.815">  1  5  2 -1</clus>
</clustering>
</event>
<event>
 9    1  0.9171696E-005  0.1330633E+03  0.7546771E-02  0.1229625E+00
         21   -1    0    0  501  502  0.00000000000E+00  0.00000000000E+00  0.14373271422E+03  0.14373271422E+03  0.00000000000E+00 0. -1.
          1   -1    0    0  502    0 -0.00000000000E+00 -0.00000000000E+00 -0.49806373578E+03  0.49806373578E+03  0.00000000000E+00 0. -1.
        -24    2    1    2    0    0 -0.63676056752E+02 -0.26787895963E+02 -0.35390972102E+03  0.37240564451E+03  0.93067942143E+02 0.  0.
         23    2    1    2    0    0 -0.75859178707E+02  0.16193447221E+02  0.35903998937E+02  0.12481607858E+03  0.90956657836E+02 0.  0.
         11    1    3    3    0    0 -0.35553696558E+02 -0.51220572999E+02 -0.30284131984E+03  0.30919326875E+03  0.00000000000E+00 0. -1.
        -12    1    3    3    0    0 -0.28122360195E+02  0.24432677036E+02 -0.51068401186E+02  0.63212375764E+02  0.00000000000E+00 0.  1.
        -11    1    4    4    0    0  0.26456623964E+01 -0.23164134839E+02  0.28303435553E+02  0.36669621439E+02  0.00000000000E+00 0.  1.
         11    1    4    4    0    0 -0.78504841104E+02  0.39357582060E+02  0.76005633833E+01  0.88146457139E+02  0.00000000000E+00 0. -1.
          2    1    1    2  501    0  0.13953523546E+03  0.10594448742E+02 -0.36325299469E+02  0.14457472691E+03  0.00000000000E+00 0. -1.
<scales pt_clust_5="13000.00000" pt_clust_6="13000.00000" pt_clust_7="13000.00000" pt_clust_8="13000.00000" pt_clust_9="97.12234"></scales>
<clustering>
<clus scale="   90.957">  7  8 -1 -1</clus>
<clus scale="   93.068">  5  6 -1 -1</clus>
<clus scale="  115.905">  2  5  1 -1</clus>
<clus scale="   97.122">  1  9  2 -1</clus>
<clus scale="   97.122">  1  5  2 -1</clus>
</clustering>
</event>
<event>
 9    1  0.9171696E-005  0.1879259E+03  0.7546771E-02  0.1179543E+00
          3   -1    0    0  502    0 -0.00000000000E+00  0.00000000000E+00  0.12030849551E+03  0.12030849551E+03  0.00000000000E+00 0. -1.
         21   -1    0    0  501  502  0.00000000000E+00 -0.00000000000E+00 -0.52996121497E+03  0.52996121497E+03  0.00000000000E+00 0. -1.
        -24    2    1    2    0    0  0.86472124711E+02 -0.30734253317E+02 -0.62171943742E+02  0.13615276157E+03  0.79058214089E+02 0.  0.
         23    2    1    2    0    0 -0.21469085308E+03  0.72070214607E+02 -0.21032679813E+03  0.32186732584E+03  0.89860643208E+02 0.  0.
         13    1    3    3    0    0  0.44972575873E+02  0.18935896926E+02 -0.50793875475E+02  0.70435208233E+02  0.00000000000E+00 0. -1.
        -14    1    3    3    0    0  0.41499548838E+02 -0.49670150243E+02 -0.11378068267E+02  0.65717553335E+02  0.00000000000E+00 0.  1.
        -11    1    4    4    0    0 -0.55343532845E+02 -0.12519948424E+02 -0.21412577778E+02  0.60647788281E+02  0.00000000000E+00 0. -1.
         11    1    4    4    0    0 -0.15934732024E+03  0.84590163031E+02 -0.18891422036E+03  0.26121953756E+03  0.00000000000E+00 0.  1.
          4    1    1    2  501    0  0.12821872837E+03 -0.41335961290E+02 -0.13715397759E+03  0.19224962307E+03  0.00000000000E+00 0. -1.
<scales pt_clust_5="13000.00000" pt_clust_6="13000.00000" pt_clust_7="13000.00000" pt_clust_8="13000.00000" pt_clust_9="165.04909"></scales>
<clustering>
<clus scale="   79.058">  5  6 -1 -1</clus>
<clus scale="   89.861">  7  8 -1 -1</clus>
<clus scale="  121.129">  1  5  2 -1</clus>
<clus scale="  165.049">  2  9  1 -1</clus>
<clus scale="  165.049">  2  5  1 -1</clus>
</clustering>
</event>
<event>
 9    1  0.9171696E-005  0.1037368E+03  0.7546771E-02  0.1276692E+00
          3   -1    0    0  502    0 -0.00000000000E+00  0.00000000000E+00  0.22350868071E+03  0.22350868071E+03  0.00000000000E+00 0. -1.
         21   -1    0    0  501  502  0.00000000000E+00 -0.00000000000E+00 -0.69168660103E+02  0.69168660103E+02  0.00000000000E+00 0. -1.
        -24    2    1    2    0    0  0.32873857971E+01  0.56990473458E+02  0.13075358107E+03  0.16351183448E+03  0.79880536316E+02 0.  0.
         23    2    1    2    0    0 -0.15389084355E+02 -0.40266552375E+02  0.15553525067E+01  0.98974291716E+02  0.89080144486E+02 0.  0.
         13    1    3    3    0    0 -0.21293385562E+02  0.31759431465E+02  0.12109199935E+03  0.12698559786E+03  0.00000000000E+00 0. -1.
        -14    1    3    3    0    0  0.24580771359E+02  0.25231041993E+02  0.96615817179E+01  0.36526236625E+02  0.00000000000E+00 0.  1.
        -13    1    4    4    0    0 -0.30325077154E+02  0.20327936500E+02 -0.88048888833E+00  0.36518633154E+02  0.00000000000E+00 0. -1.
         13    1    4    4    0    0  0.14935992799E+02 -0.60594488876E+02  0.24358413950E+01  0.62455658561E+02  0.00000000000E+00 0.  1.
          4    1    1    2  501    0  0.12101698558E+02 -0.16723921082E+02  0.22031087034E+02  0.30191214621E+02  0.00000000000E+00 0. -1.
<scales pt_clust_5="13000.00000" pt_clust_6="13000.00000" pt_clust_7="13000.00000" pt_clust_8="13000.00000" pt_clust_9="20.64318"></scales>
<clustering>
<clus scale="   20.643">  2  9  1 -1</clus>
<clus scale="   79.881">  5  6 -1 -1</clus>
<clus scale="   89.080">  7  8 -1 -1</clus>
<clus scale="   95.953">  1  5  2 -1</clus>
<clus scale="   20.643">  2  5  1 -1</clus>
</clustering>
</event>
<event>
 9    1  0.9171696E-005  0.9878302E+02  0.7546771E-02  0.1288425E+00
          1   -1    0    0  502    0 -0.00000000000E+00  0.00000000000E+00  0.22922483683E+03  0.22922483683E+03  0.00000000000E+00 0. -1.
         21   -1    0    0  501  502  0.00000000000E+00 -0.00000000000E+00 -0.75505608381E+02  0.75505608381E+02  0.00000000000E+00 0. -1.
         23    2    1    2    0    0 -0.15558753336E+02  0.33091072971E+02  0.10966207299E+03  0.14719282717E+03  0.91120053786E+02 0.  0.
        -24    2    1    2    0    0  0.39573145173E+02 -0.20609090161E+02  0.73387313719E+02  0.11762835728E+03  0.80373902510E+02 0.  0.
         13    1    4    4    0    0  0.27668391672E+02 -0.45394393116E+00  0.86485432258E+02  0.90804603163E+02  0.00000000000E+00 0. -1.
        -14    1    4    4    0    0  0.11904753501E+02 -0.20155146230E+02 -0.13098118539E+02  0.26823754113E+02  0.00000000000E+00 0.  1.
        -11    1    3    3    0    0  0.12928525615E+02 -0.18702520884E+02  0.13917584011E+00  0.22736543975E+02  0.00000000000E+00 0.  1.
         11    1    3    3    0    0 -0.28487278951E+02  0.51793593855E+02  0.10952289715E+03  0.12445628320E+03  0.00000000000E+00 0. -1.
          2    1    1    2  501    0 -0.24014391837E+02 -0.12481982810E+02 -0.29330158268E+02  0.39909260757E+02  0.00000000000E+00 0. -1.
<scales pt_clust_5="13000.00000" pt_clust_6="13000.00000" pt_clust_7="13000.00000" pt_clust_8="13000.00000" pt_clust_9="27.06457"></scales>
<clustering>
<clus scale="   27.065">  2  9  1 -1</clus>
<clus scale="   80.374">  5  6 -1 -1</clus>
<clus scale="   88.967">  2  5  1 -1</clus>
<clus scale="   91.120">  7  8 -1 -1</clus>
<clus scale="   27.065">  2  5  1 -1</clus>
</clustering>
</event>
<event>
 9    1  0.9171696E-005  0.1148886E+03  0.7546771E-02  0.1255884E+00
          3   -1    0    0  502    0 -0.00000000000E+00  0.00000000000E+00  0.25558915803E+03  0.25558915803E+03  0.00000000000E+00 0. -1.
         21   -1    0    0  501  502  0.00000000000E+00 -0.00000000000E+00 -0.80696462544E+02  0.80696462544E+02  0.00000000000E+00 0.  1.
         23    2    1    2    0    0  0.52008341278E+02  0.65792281440E+02  0.14093058330E+03  0.18810537385E+03  0.92134198330E+02 0.  0.
        -24    2    1    2    0    0 -0.46882314511E+02 -0.16590387172E+02  0.20888074720E+02  0.97013528972E+02  0.80635728915E+02 0.  0.
         13    1    4    4    0    0 -0.20867933161E+02  0.27956518486E+02  0.28268710790E+02  0.44901643288E+02  0.00000000000E+00 0. -1.
        -14    1    4    4    0    0 -0.26014381350E+02 -0.44546905658E+02 -0.73806360703E+01  0.52111885684E+02  0.00000000000E+00 0.  1.
        -11    1    3    3    0    0  0.23425904035E+02  0.85092428122E+02  0.85893427448E+02  0.12315508590E+03  0.00000000000E+00 0.  1.
         11    1    3    3    0    0  0.28582437244E+02 -0.19300146682E+02  0.55037155851E+02  0.64950287951E+02  0.00000000000E+00 0. -1.
          4    1    1    2  501    0 -0.51260267669E+01 -0.49201894268E+02  0.13074037468E+02  0.51166717754E+02  0.00000000000E+00 0. -1.
<scales pt_clust_5="13000.00000" pt_clust_6="13000.00000" pt_clust_7="13000.00000" pt_clust_8="13000.00000" pt_clust_9="49.46820"></scales>
<clustering>
<clus scale="   49.468">  2  9  1 -1</clus>
<clus scale="   80.636">  5  6 -1 -1</clus>
<clus scale="   92.134">  7  8 -1 -1</clus>
<clus scale="  105.890">  2  5  1 -1</clus>
<clus scale="   49.468">  2  5  1 -1</clus>
</clustering>
</event>
<event>
 9    1  0.9171696E-005  0.1137499E+03  0.7546771E-02  0.1258718E+00
          1   -1    0    0  502    0 -0.00000000000E+00  0.00000000000E+00  0.52639180731E+02  0.52639180731E+02  0.00000000000E+00 0. -1.
         21   -1    0    0  501  502  0.00000000000E+00 -0.00000000000E+00 -0.34080796027E+03  0.34080796027E+03  0.00000000000E+00 0.  1.
        -24    2    1    2    0    0 -0.13945115664E+02 -0.64267245858E+02 -0.80735494903E+02  0.13068321993E+03  0.78962894409E+02 0.  0.
         23    2    1    2    0    0 -0.25610710608E+02  0.70249049735E+02 -0.17355365495E+03  0.21033993155E+03  0.92364377171E+02 0.  0.
         13    1    3    3    0    0 -0.23756234188E+02 -0.48412440280E+02 -0.67065732168E+01  0.54342443458E+02  0.00000000000E+00 0. -1.
        -14    1    3    3    0    0  0.98111185241E+01 -0.15854805577E+02 -0.74028921686E+02  0.76340776473E+02  0.00000000000E+00 0.  1.
        -13    1    4    4    0    0 -0.46679746106E+02  0.78058658344E+02 -0.16015469016E+03  0.18417838532E+03  0.00000000000E+00 0.  1.
         13    1    4    4    0    0  0.21069035497E+02 -0.78096086093E+01 -0.13398964784E+02  0.26161546222E+02  0.00000000000E+00 0. -1.
          2    1    1    2  501    0  0.39555826272E+02 -0.59818038771E+01 -0.33879629688E+02  0.52423989523E+02  0.00000000000E+00 0. -1.
<scales pt_clust_5="13000.00000" pt_clust_6="13000.00000" pt_clust_7="13000.00000" pt_clust_8="13000.00000" pt_clust_9="40.00559"></scales>
<clustering>
<clus scale="   40.006">  2  9  1 -1</clus>
<clus scale="   78.963">  5  6 -1 -1</clus>
<clus scale="   92.364">  7  8 -1 -1</clus>
<clus scale="  103.165">  1  5  2 -1</clus>
<clus scale="   40.006">  2  5  1 -1</clus>
</clustering>
</event>
<event>
 9    1  0.9171696E-005  0.9872525E+02  0.7546771E-02  0.1290978E+00
         21   -1    0    0  501  502  0.00000000000E+00  0.00000000000E+00  0.19414496617E+03  0.19414496617E+03  0.00000000000E+00 0.  1.
         -4   -1    0    0    0  501 -0.00000000000E+00 -0.00000000000E+00 -0.64775860595E+02  0.64775860595E+02  0.00000000000E+00 0.  1.
         23    2    1    2    0    0  0.38296801325E+02  0.75735721688E+01  0.22939887761E+02  0.10466476066E+03  0.94363497636E+02 0.  0.
        -24    2    1    2    0    0 -0.95894993217E+01 -0.14471495003E+02  0.83897903083E+02  0.11711645556E+03  0.79850005369E+02 0.  0.
         13    1    4    4    0    0  0.21599274696E+02 -0.17781797919E+02  0.46268398621E+00  0.27980977129E+02  0.00000000000E+00 0. -1.
        -14    1    4    4    0    0 -0.31188774018E+02  0.33103029160E+01  0.83435219097E+02  0.89135478435E+02  0.00000000000E+00 0.  1.
        -11    1    3    3    0    0  0.10373427729E+02  0.28138760996E+02  0.51595501971E+02  0.59678251456E+02  0.00000000000E+00 0. -1.
         11    1    3    3    0    0  0.27923373596E+02 -0.20565188827E+02 -0.28655614210E+02  0.44986509203E+02  0.00000000000E+00 0.  1.
         -3    1    1    2    0  502 -0.28707302003E+02  0.68979228342E+01  0.22531314734E+02  0.37139610544E+02  0.00000000000E+00 0.  1.
<scales pt_clust_5="13000.00000" pt_clust_6="13000.00000" pt_clust_7="13000.00000" pt_clust_8="13000.00000" pt_clust_9="29.52441"></scales>
<clustering>
<clus scale="   29.524">  1  9  2 -1</clus>
<clus scale="   79.850">  5  6 -1 -1</clus>
<clus scale="   84.960">  1  5  2 -1</clus>
<clus scale="   94.363">  7  8 -1 -1</clus>
<clus scale="   29.524">  1  5  2 -1</clus>
</clustering>
</event>
<event>
 9    1  0.9171696E-005  0.1030294E+03  0.7546771E-02  0.1278283E+00
          1   -1    0    0  502    0 -0.00000000000E+00  0.00000000000E+00  0.59093540697E+03  0.59093540697E+03  0.00000000000E+00 0. -1.
         21   -1    0    0  501  502  0.00000000000E+00 -0.00000000000E+00 -0.25951661454E+02  0.25951661454E+02  0.00000000000E+00 0. -1.
        -24    2    1    2    0    0 -0.36211804756E+02 -0.19308059994E+02  0.33527439830E+03  0.34781711982E+03  0.82968251151E+02 0.  0.
         23    2    1    2    0    0  0.53907025037E+02  0.30055663041E+02  0.14867293471E+03  0.18543065196E+03  0.92041158950E+02 0.  0.
         11    1    3    3    0    0  0.26461333544E+02 -0.13133299175E+02  0.10207253735E+03  0.10626141633E+03  0.00000000000E+00 0. -1.
        -12    1    3    3    0    0 -0.62673138300E+02 -0.61747608183E+01  0.23320186095E+03  0.24155570348E+03  0.00000000000E+00 0.  1.
        -11    1    4    4    0    0  0.23210180539E+02 -0.54350803562E+01  0.13423529408E+03  0.13633549338E+03  0.00000000000E+00 0.  1.
         11    1    4    4    0    0  0.30696844498E+02  0.35490743397E+02  0.14437640638E+02  0.49095158582E+02  0.00000000000E+00 0. -1.
          2    1    1    2  501    0 -0.17695220281E+02 -0.10747603047E+02  0.81036412508E+02  0.83639296650E+02  0.00000000000E+00 0. -1.
<scales pt_clust_5="13000.00000" pt_clust_6="13000.00000" pt_clust_7="13000.00000" pt_clust_8="13000.00000" pt_clust_9="20.70343"></scales>
<clustering>
<clus scale="   20.703">  2  9  1 -1</clus>
<clus scale="   82.968">  5  6 -1 -1</clus>
<clus scale="   92.041">  7  8 -1 -1</clus>
<clus scale="   95.012">  1  5  2 -1</clus>
<clus scale="   20.703">  2  5  1 -1</clus>
</clustering>
</event>
<event>
 9    1  0.1503935E-004  0.1151924E+03  0.7546771E-02  0.1254251E+00
         21   -1    0    0  501  502  0.00000000000E+00  0.00000000000E+00  0.48547060403E+03  0.48547060403E+03  0.00000000000E+00 0.  1.
         -2   -1    0    0    0  501 -0.00000000000E+00 -0.00000000000E+00 -0.18831536732E+03  0.18831536732E+03  0.00000000000E+00 0.  1.
        -24    2    1    2    0    0  0.60319765023E+02  0.43834514659E+02 -0.15744619281E+03  0.19261646496E+03  0.82169703761E+02 0.  0.
         23    2    1    2    0    0 -0.30399473718E+02 -0.56635933359E-01  0.20880147939E+03  0.22971505330E+03  0.90811985489E+02 0.  0.
         13    1    3    3    0    0  0.27307100831E+02 -0.82231946801E+01 -0.60515540325E+01  0.29153387329E+02  0.00000000000E+00 0. -1.
        -14    1    3    3    0    0  0.33012664192E+02  0.52057709339E+02 -0.15139463878E+03  0.16346307763E+03  0.00000000000E+00 0.  1.
        -13    1    4    4    0    0 -0.52438964558E+02 -0.25725295064E+02  0.10037220661E+03  0.11613016692E+03  0.00000000000E+00 0. -1.
         13    1    4    4    0    0  0.22039490840E+02  0.25668659130E+02  0.10842927278E+03  0.11358488638E+03  0.00000000000E+00 0.  1.
         -1    1    1    2    0  502 -0.29920291305E+02 -0.43777878725E+02  0.24579995013E+03  0.25145445309E+03  0.00000000000E+00 0.  1.
<scales pt_clust_5="13000.00000" pt_clust_6="13000.00000" pt_clust_7="13000.00000" pt_clust_8="13000.00000" pt_clust_9="53.02572"></scales>
<clustering>
<clus scale="   53.026">  1  9  2 -1</clus>
<clus scale="   82.170">  5  6 -1 -1</clus>
<clus scale="   90.812">  7  8 -1 -1</clus>
<clus scale="  108.510">  2  5  1 -1</clus>
<clus scale="   53.026">  1  5  2 -1</clus>
</clustering>
</event>
<event>
 9    1  0.9171696E-005  0.1447537E+03  0.7546771E-02  0.1224836E+00
         21   -1    0    0  501  502  0.00000000000E+00  0.00000000000E+00  0.15005263478E+03  0.15005263478E+03  0.00000000000E+00 0. -1.
          1   -1    0    0  502    0 -0.00000000000E+00 -0.00000000000E+00 -0.42247518156E+03  0.42247518156E+03  0.00000000000E+00 0. -1.
         23    2    1    2    0    0  0.57680066938E+01  0.36743520981E+02 -0.24089506678E+03  0.26060947519E+03  0.92214473505E+02 0.  0.
        -24    2    1    2    0    0  0.11568616763E+03 -0.33526798848E+02  0.62460630608E+02  0.15831095624E+03  0.81570171434E+02 0.  0.
         13    1    4    4    0    0  0.12843701756E+03 -0.32777269708E+02  0.54936562231E+02  0.14348673374E+03  0.00000000000E+00 0. -1.
        -14    1    4    4    0    0 -0.12750849929E+02 -0.74952914071E+00  0.75240683763E+01  0.14824222502E+02  0.00000000000E+00 0.  1.
        -11    1    3    3    0    0  0.20782019061E+02 -0.21082621168E+02 -0.14213292929E+03  0.14518312168E+03  0.00000000000E+00 0.  1.
         11    1    3    3    0    0 -0.15014012367E+02  0.57826142148E+02 -0.98762137491E+02  0.11542635351E+03  0.00000000000E+00 0. -1.
          2    1    1    2  501    0 -0.12145417433E+03 -0.32167221324E+01 -0.93988110602E+02  0.15360738490E+03  0.00000000000E+00 0. -1.
<scales pt_clust_5="13000.00000" pt_clust_6="13000.00000" pt_clust_7="13000.00000" pt_clust_8="13000.00000" pt_clust_9="119.58239"></scales>
<clustering>
<clus scale="   81.570">  5  6 -1 -1</clus>
<clus scale="   92.214">  7  8 -1 -1</clus>
<clus scale="   99.433">  2  7  1 -1</clus>
<clus scale="  119.582">  1  9  2 -1</clus>
<clus scale="  119.582">  1  5  2 -1</clus>
</clustering>
</event>
<event>
 9    1  0.9171696E-005  0.1022466E+03  0.7546771E-02  0.1276508E+00
         21   -1    0    0  501  502  0.00000000000E+00  0.00000000000E+00  0.90778040090E+03  0.90778040090E+03  0.00000000000E+00 0. -1.
          1   -1    0    0  502    0 -0.00000000000E+00 -0.00000000000E+00 -0.15850794894E+02  0.15850794894E+02  0.00000000000E+00 0. -1.
         23    2    1    2    0    0 -0.58964350476E+02  0.22712767872E+02  0.25681559505E+03  0.27723026440E+03  0.83124636472E+02 0.  0.
        -24    2    1    2    0    0  0.41091753717E+02 -0.35540910180E+02  0.54295973428E+03  0.55165705740E+03  0.81046575536E+02 0.  0.
         13    1    4    4    0    0  0.64872920405E+02 -0.16332804759E+02  0.38431182959E+03  0.39009080824E+03  0.00000000000E+00 0. -1.
        -14    1    4    4    0    0 -0.23781166688E+02 -0.19208105421E+02  0.15864790470E+03  0.16156624916E+03  0.00000000000E+00 0.  1.
        -13    1    3    3    0    0 -0.99747588171E+01  0.47332705621E+02  0.14159645351E+03  0.14963100107E+03  0.00000000000E+00 0.  1.
         13    1    3    3    0    0 -0.48989591658E+02 -0.24619937749E+02  0.11521914154E+03  0.12759926333E+03  0.00000000000E+00 0. -1.
          2    1    1    2  501    0  0.17872596758E+02  0.12828142308E+02  0.92154276666E+02  0.94743873986E+02  0.00000000000E+00 0. -1.
<scales pt_clust_5="13000.00000" pt_clust_6="13000.00000" pt_clust_7="13000.00000" pt_clust_8="13000.00000" pt_clust_9="21.99979"></scales>
<clustering>
<clus scale="   22.000">  1  9  2 -1</clus>
<clus scale="   81.047">  5  6 -1 -1</clus>
<clus scale="   83.125">  7  8 -1 -1</clus>
<clus scale="  100.564">  1  5  2 -1</clus>
<clus scale="   22.000">  1  5  2 -1</clus>
</clustering>
</event>
<event>
 9    1  0.9171696E-005  0.1041423E+03  0.7546771E-02  0.1278666E+00
          1   -1    0    0  502    0 -0.00000000000E+00  0.00000000000E+00  0.26523651974E+03  0.26523651974E+03  0.00000000000E+00 0. -1.
         21   -1    0    0  501  502  0.00000000000E+00 -0.00000000000E+00 -0.71089114898E+02  0.71089114898E+02  0.00000000000E+00 0.  1.
        -24    2    1    2    0    0 -0.27164830525E+02  0.24297144362E+02  0.73783748063E+02  0.11424375451E+03  0.79242127203E+02 0.  0.
         23    2    1    2    0    0  0.21534072978E+02 -0.67765776542E+02  0.29633190100E+02  0.12131856837E+03  0.93723808638E+02 0.  0.
         11    1    3    3    0    0 -0.27117318520E+02  0.12997101659E+02  0.89766690846E+02  0.94669595968E+02  0.00000000000E+00 0. -1.
        -12    1    3    3    0    0 -0.47512004400E-01  0.11300042703E+02 -0.15982942783E+02  0.19574158538E+02  0.00000000000E+00 0.  1.
        -11    1    4    4    0    0  0.18668846840E+02 -0.90876964424E+02  0.15452814645E+02  0.94052846771E+02  0.00000000000E+00 0.  1.
         11    1    4    4    0    0  0.28652261373E+01  0.23111187881E+02  0.14180375455E+02  0.27265721596E+02  0.00000000000E+00 0. -1.
          2    1    1    2  501    0  0.56307575472E+01  0.43468632180E+02  0.90730466679E+02  0.10076331177E+03  0.00000000000E+00 0. -1.
<scales pt_clust_5="13000.00000" pt_clust_6="13000.00000" pt_clust_7="13000.00000" pt_clust_8="13000.00000" pt_clust_9="43.83183"></scales>
<clustering>
<clus scale="   43.832">  2  9  1 -1</clus>
<clus scale="   79.242">  5  6 -1 -1</clus>
<clus scale="   91.328">  1  5  2 -1</clus>
<clus scale="   93.724">  7  8 -1 -1</clus>
<clus scale="   43.832">  2  5  1 -1</clus>
</clustering>
</event>
<event>
 9    1  0.9171696E-005  0.1073760E+03  0.7546771E-02  0.1268780E+00
          1   -1    0    0  502    0 -0.00000000000E+00  0.00000000000E+00  0.43984943285E+03  0.43984943285E+03  0.00000000000E+00 0. -1.
         21   -1    0    0  501  502  0.00000000000E+00 -0.00000000000E+00 -0.85694466664E+02  0.85694466664E+02  0.00000000000E+00 0. -1.
        -24    2    1    2    0    0  0.10752401562E+02 -0.56831863699E+02  0.36956900765E+03  0.38276842467E+03  0.81147647185E+02 0.  0.
         23    2    1    2    0    0 -0.70662631786E+01  0.79024914917E+02 -0.14248974368E+02  0.12024823533E+03  0.89228558083E+02 0.  0.
         11    1    3    3    0    0 -0.17866053871E+00 -0.64028978610E+02  0.36206313604E+03  0.36768118867E+03  0.00000000000E+00 0. -1.
        -12    1    3    3    0    0  0.10931062100E+02  0.71971149108E+01  0.75058716040E+01  0.15087236003E+02  0.00000000000E+00 0.  1.
        -11    1    4    4    0    0  0.90199183729E+01  0.31042392984E+02 -0.49111133597E+02  0.58795344483E+02  0.00000000000E+00 0.  1.
         11    1    4    4    0    0 -0.16086181552E+02  0.47982521933E+02  0.34862159229E+02  0.61452890852E+02  0.00000000000E+00 0. -1.
          2    1    1    2  501    0 -0.36861383831E+01 -0.22193051218E+02 -0.11650670892E+01  0.22527239508E+02  0.00000000000E+00 0. -1.
<scales pt_clust_5="13000.00000" pt_clust_6="13000.00000" pt_clust_7="13000.00000" pt_clust_8="13000.00000" pt_clust_9="22.49709"></scales>
<clustering>
<clus scale="   22.497">  2  9  1 -1</clus>
<clus scale="   81.148">  5  6 -1 -1</clus>
<clus scale="   89.229">  7  8 -1 -1</clus>
<clus scale="  100.761">  1  5  2 -1</clus>
<clus scale="   22.497">  2  5  1 -1</clus>
</clustering>
</event>
<event>
 9    1  0.9171696E-005  0.9312684E+02  0.7546771E-02  0.1302988E+00
         21   -1    0    0  501  502  0.00000000000E+00  0.00000000000E+00  0.10644872636E+03  0.10644872636E+03  0.00000000000E+00 0.  1.
         -2   -1    0    0    0  501 -0.00000000000E+00 -0.00000000000E+00 -0.18581219404E+03  0.18581219404E+03  0.00000000000E+00 0.  1.
        -24    2    1    2    0    0  0.11709865524E+02  0.86203878378E+01 -0.98627646396E+02  0.12813571134E+03  0.80497924505E+02 0.  0.
         23    2    1    2    0    0  0.22579404098E+01  0.47548661885E+02  0.20774874934E+02  0.10622577942E+03  0.92662544981E+02 0.  0.
         11    1    3    3    0    0 -0.26048255027E+02  0.34403648085E+01 -0.45950899831E+01  0.26673255368E+02  0.00000000000E+00 0. -1.
        -12    1    3    3    0    0  0.37758120551E+02  0.51800230293E+01 -0.94032556413E+02  0.10146245597E+03  0.00000000000E+00 0.  1.
        -11    1    4    4    0    0  0.37950469304E+02 -0.71081705299E+01  0.11532308241E+02  0.40295884926E+02  0.00000000000E+00 0.  1.
         11    1    4    4    0    0 -0.35692528894E+02  0.54656832415E+02  0.92425666936E+01  0.65929894491E+02  0.00000000000E+00 0. -1.
         -1    1    1    2    0  502 -0.13967805934E+02 -0.56169049723E+02 -0.15106962194E+01  0.57899429638E+02  0.00000000000E+00 0.  1.
<scales pt_clust_5="13000.00000" pt_clust_6="13000.00000" pt_clust_7="13000.00000" pt_clust_8="13000.00000" pt_clust_9="57.87972"></scales>
<clustering>
<clus scale="   57.880">  1  9  2 -1</clus>
<clus scale="   80.498">  5  6 -1 -1</clus>
<clus scale="   81.032">  2  5  1 -1</clus>
<clus scale="   92.663">  7  8 -1 -1</clus>
<clus scale="   57.880">  1  5  2 -1</clus>
</clustering>
</event>
<event>
 9    1  0.9171696E-005  0.1191783E+03  0.7546771E-02  0.1247845E+00
         -2   -1    0    0    0  501 -0.00000000000E+00  0.00000000000E+00  0.38591689300E+03  0.38591689300E+03  0.00000000000E+00 0.  1.
         21   -1    0    0  501  502  0.00000000000E+00 -0.00000000000E+00 -0.54558373031E+02  0.54558373031E+02  0.00000000000E+00 0. -1.
         23    2    1    2    0    0 -0.37907035143E+02 -0.62150966944E+02  0.15898614130E+03  0.19485652200E+03  0.85981306313E+02 0.  0.
        -24    2    1    2    0    0  0.57015301080E+02  0.83693152080E+02  0.80646961056E+02  0.14947955429E+03  0.74732299314E+02 0.  0.
         13    1    4    4    0    0  0.40004677479E+02  0.67905207435E+01  0.60994811682E+01  0.41032780343E+02  0.00000000000E+00 0. -1.
        -14    1    4    4    0    0  0.17010623601E+02  0.76902631336E+02  0.74547479888E+02  0.10844677395E+03  0.00000000000E+00 0.  1.
        -13    1    3    3    0    0  0.23617734741E+02 -0.72235533074E+01  0.66494679609E+02  0.70933204728E+02  0.00000000000E+00 0. -1.
         13    1    3    3    0    0 -0.61524769884E+02 -0.54927413636E+02  0.92491461689E+02  0.12392331727E+03  0.00000000000E+00 0.  1.
         -1    1    1    2    0  502 -0.19108265937E+02 -0.21542185136E+02  0.91725417615E+02  0.96139189742E+02  0.00000000000E+00 0.  1.
<scales pt_clust_5="13000.00000" pt_clust_6="13000.00000" pt_clust_7="13000.00000" pt_clust_8="13000.00000" pt_clust_9="28.79570"></scales>
<clustering>
<clus scale="   28.796">  2  9  1 -1</clus>
<clus scale="   74.732">  5  6 -1 -1</clus>
<clus scale="   85.981">  7  8 -1 -1</clus>
<clus scale="  111.336">  2  5  1 -1</clus>
<clus scale="   28.796">  2  5  1 -1</clus>
</clustering>
</event>
<event>
 9    1  0.9171696E-005  0.3294876E+03  0.7546771E-02  0.1071848E+00
          1   -1    0    0  502    0 -0.00000000000E+00  0.00000000000E+00  0.78934608408E+03  0.78934608408E+03  0.00000000000E+00 0. -1.
         21   -1    0    0  501  502  0.00000000000E+00 -0.00000000000E+00 -0.21744615074E+03  0.21744615074E+03  0.00000000000E+00 0.  1.
        -24    2    1    2    0    0 -0.22906403264E+03  0.21163564664E+03  0.48453097039E+03  0.58124372395E+03  0.76249769722E+02 0.  0.
         23    2    1    2    0    0  0.21117589816E+03 -0.25119499843E+03  0.12969079235E+03  0.36491795000E+03  0.93011942301E+02 0.  0.
         13    1    3    3    0    0 -0.15583505047E+03  0.15014301123E+03  0.39425722562E+03  0.44974019915E+03  0.00000000000E+00 0. -1.
        -14    1    3    3    0    0 -0.73228982174E+02  0.61492635410E+02  0.90273744765E+02  0.13150352480E+03  0.00000000000E+00 0.  1.
        -11    1    4    4    0    0  0.14581896737E+03 -0.18471957033E+03  0.46322164384E+02  0.23985460975E+03  0.00000000000E+00 0.  1.
         11    1    4    4    0    0  0.65356930789E+02 -0.66475428098E+02  0.83368627970E+02  0.12506334024E+03  0.00000000000E+00 0. -1.
          2    1    1    2  501    0  0.17888134484E+02  0.39559351789E+02 -0.42321829398E+02  0.60630560882E+02  0.00000000000E+00 0. -1.
<scales pt_clust_5="13000.00000" pt_clust_6="13000.00000" pt_clust_7="13000.00000" pt_clust_8="13000.00000" pt_clust_9="43.41575"></scales>
<clustering>
<clus scale="   43.416">  2  9  1 -1</clus>
<clus scale="   76.250">  5  6 -1 -1</clus>
<clus scale="   93.012">  7  8 -1 -1</clus>
<clus scale="  325.154">  1  5  2 -1</clus>
<clus scale="   43.416">  2  5  1 -1</clus>
</clustering>
</event>
<event>
 9    1  0.9171696E-005  0.9831722E+02  0.7546771E-02  0.1291394E+00
         21   -1    0    0  501  502  0.00000000000E+00  0.00000000000E+00  0.12732518850E+03  0.12732518850E+03  0.00000000000E+00 0. -1.
          1   -1    0    0  502    0 -0.00000000000E+00 -0.00000000000E+00 -0.36035541990E+03  0.36035541990E+03  0.00000000000E+00 0. -1.
         23    2    1    2    0    0 -0.26745831746E+01  0.41613908121E+02 -0.19189143836E+03  0.21682354884E+03  0.91930715597E+02 0.  0.
        -24    2    1    2    0    0  0.18754912174E+02  0.25393091182E+02  0.89727555389E+02  0.12295670091E+03  0.77915083860E+02 0.  0.
         11    1    4    4    0    0  0.13579834861E+02  0.47435879938E+02  0.26952016972E+02  0.56222645252E+02  0.00000000000E+00 0. -1.
        -12    1    4    4    0    0  0.51750773129E+01 -0.22042788756E+02  0.62775538417E+02  0.66734055660E+02  0.00000000000E+00 0.  1.
        -11    1    3    3    0    0 -0.12297829054E+02  0.69422914428E+02 -0.12058400658E+03  0.13968278451E+03  0.00000000000E+00 0.  1.
         11    1    3    3    0    0  0.96232458792E+01 -0.27809006307E+02 -0.71307431786E+02  0.77140764327E+02  0.00000000000E+00 0. -1.
          2    1    1    2  501    0 -0.16080328999E+02 -0.67006999303E+02 -0.13086634842E+03  0.14790035864E+03  0.00000000000E+00 0. -1.
<scales pt_clust_5="13000.00000" pt_clust_6="13000.00000" pt_clust_7="13000.00000" pt_clust_8="13000.00000" pt_clust_9="68.90950"></scales>
<clustering>
<clus scale="   68.910">  1  9  2 -1</clus>
<clus scale="   77.915">  5  6 -1 -1</clus>
<clus scale="   85.357">  1  5  2 -1</clus>
<clus scale="   91.931">  7  8 -1 -1</clus>
<clus scale="   68.910">  1  5  2 -1</clus>
</clustering>
</event>
<event>
 9    1  0.9171696E-005  0.8749314E+02  0.7546771E-02  0.1311212E+00
         -4   -1    0    0    0  501 -0.00000000000E+00  0.00000000000E+00  0.18581705537E+03  0.18581705537E+03  0.00000000000E+00 0.  1.
         21   -1    0    0  501  502  0.00000000000E+00 -0.00000000000E+00 -0.20304235086E+03  0.20304235086E+03  0.00000000000E+00 0. -1.
        -24    2    1    2    0    0 -0.10784647037E+02 -0.30757450330E+01  0.14105545025E+03  0.16437049526E+03  0.83637616225E+02 0.  0.
         23    2    1    2    0    0 -0.31455109843E+02  0.14477138071E+02 -0.15436275756E+03  0.18056238760E+03  0.87039665842E+02 0.  0.
         13    1    3    3    0    0 -0.25974887432E+01  0.30295618560E+02  0.12061647746E+03  0.12439013661E+03  0.00000000000E+00 0. -1.
        -14    1    3    3    0    0 -0.81871582936E+01 -0.33371363593E+02  0.20438972790E+02  0.39980358649E+02  0.00000000000E+00 0.  1.
        -11    1    4    4    0    0  0.29597308352E+02  0.68199533303E+01 -0.35517849572E+02  0.46733607429E+02  0.00000000000E+00 0.  1.
         11    1    4    4    0    0 -0.61052418195E+02  0.76571847409E+01 -0.11884490799E+03  0.13382878017E+03  0.00000000000E+00 0. -1.
         -3    1    1    2    0  502  0.42239756880E+02 -0.11401393038E+02 -0.39179881815E+01  0.43926523376E+02  0.00000000000E+00 0.  1.
<scales pt_clust_5="13000.00000" pt_clust_6="13000.00000" pt_clust_7="13000.00000" pt_clust_8="13000.00000" pt_clust_9="43.75144"></scales>
<clustering>
<clus scale="   43.751">  2  9  1 -1</clus>
<clus scale="   83.638">  5  6 -1 -1</clus>
<clus scale="   84.109">  1  5  2 -1</clus>
<clus scale="   87.040">  7  8 -1 -1</clus>
<clus scale="   43.751">  2  5  1 -1</clus>
</clustering>
</event>
<event>
 9    1  0.9171696E-005  0.3783512E+03  0.7546771E-02  0.1051739E+00
          1   -1    0    0  502    0 -0.00000000000E+00  0.00000000000E+00  0.23708853629E+04  0.23708853629E+04  0.00000000000E+00 0. -1.
         21   -1    0    0  501  502  0.00000000000E+00 -0.00000000000E+00 -0.15031879583E+03  0.15031879583E+03  0.00000000000E+00 0. -1.
         23    2    1    2    0    0  0.32026444278E+03  0.18590226117E+03  0.18991561849E+04  0.19370230636E+04  0.90195178781E+02 0.  0.
        -24    2    1    2    0    0 -0.25099966453E+03 -0.26129310326E+03  0.18840982409E+03  0.41634028655E+03  0.81031197636E+02 0.  0.
         13    1    4    4    0    0 -0.17382947197E+03 -0.22702046712E+03  0.15739126515E+03  0.32638472416E+03  0.00000000000E+00 0. -1.
        -14    1    4    4    0    0 -0.77170192556E+02 -0.34272636131E+02  0.31018558940E+02  0.89955562392E+02  0.00000000000E+00 0.  1.
        -13    1    3    3    0    0  0.48705412181E+02  0.62274272199E+02  0.29835577428E+03  0.30865266919E+03  0.00000000000E+00 0.  1.
         13    1    3    3    0    0  0.27155903060E+03  0.12362798898E+03  0.16008004106E+04  0.16283703944E+04  0.00000000000E+00 0. -1.
          2    1    1    2  501    0 -0.69264778254E+02  0.75390842080E+02  0.13300055816E+03  0.16784080865E+03  0.00000000000E+00 0. -1.
<scales pt_clust_5="13000.00000" pt_clust_6="13000.00000" pt_clust_7="13000.00000" pt_clust_8="13000.00000" pt_clust_9="102.37865"></scales>
<clustering>
<clus scale="   81.031">  5  6 -1 -1</clus>
<clus scale="   90.195">  7  8 -1 -1</clus>
<clus scale="  102.379">  2  9  1 -1</clus>
<clus scale="  376.272">  2  5  1 -1</clus>
<clus scale="  102.379">  2  5  1 -1</clus>
</clustering>
</event>
<event>
 9    1  0.9171696E-005  0.1428462E+03  0.7546771E-02  0.1235330E+00
         21   -1    0    0  501  502  0.00000000000E+00  0.00000000000E+00  0.70721339450E+02  0.70721339450E+02  0.00000000000E+00 0. -1.
          1   -1    0    0  502    0 -0.00000000000E+00 -0.00000000000E+00 -0.42639763982E+03  0.42639763982E+03  0.00000000000E+00 0. -1.
        -24    2    1    2    0    0 -0.57873739835E+01  0.11869052275E+02 -0.15041141483E+03  0.17194442362E+03  0.82261309265E+02 0.  0.
         23    2    1    2    0    0  0.11169039576E+03  0.47825957369E+01 -0.11679605688E+03  0.18618009157E+03  0.92325997766E+02 0.  0.
         13    1    3    3    0    0  0.25634490097E+02  0.13100422603E+02 -0.13283711578E+03  0.13592073971E+03  0.00000000000E+00 0. -1.
        -14    1    3    3    0    0 -0.31421864080E+02 -0.12313703280E+01 -0.17574299055E+02  0.36023683910E+02  0.00000000000E+00 0.  1.
        -11    1    4    4    0    0  0.79598373106E+02 -0.26984508027E+02 -0.11304879430E+03  0.14086906888E+03  0.00000000000E+00 0.  1.
         11    1    4    4    0    0  0.32092022659E+02  0.31767103763E+02 -0.37472625841E+01  0.45311022685E+02  0.00000000000E+00 0. -1.
          2    1    1    2  501    0 -0.10590302178E+03 -0.16651648012E+02 -0.88468828656E+02  0.13899446409E+03  0.00000000000E+00 0. -1.
<scales pt_clust_5="13000.00000" pt_clust_6="13000.00000" pt_clust_7="13000.00000" pt_clust_8="13000.00000" pt_clust_9="108.99971"></scales>
<clustering>
<clus scale="   82.261">  5  6 -1 -1</clus>
<clus scale="   83.314">  2  5  1 -1</clus>
<clus scale="   92.326">  7  8 -1 -1</clus>
<clus scale="  109.000">  1  9  2 -1</clus>
<clus scale="  109.000">  1  5  2 -1</clus>
</clustering>
</event>
<event>
 9    1  0.9171696E-005  0.2779026E+03  0.7546771E-02  0.1127449E+00
          3   -1    0    0  502    0 -0.00000000000E+00  0.00000000000E+00  0.41732135915E+02  0.41732135915E+02  0.00000000000E+00 0. -1.
         21   -1    0    0  501  502  0.00000000000E+00 -0.00000000000E+00 -0.31108882329E+04  0.31108882329E+04  0.00000000000E+00 0. -1.
         23    2    1    2    0    0  0.42655170706E+02  0.80887019759E+02 -0.25895641619E+03  0.28877872343E+03  0.89289148639E+02 0.  0.
        -24    2    1    2    0    0  0.23403905180E+03  0.18398985069E+02 -0.10460359514E+04  0.10753531586E+04  0.84145133646E+02 0.  0.
         13    1    4    4    0    0  0.21725456717E+03 -0.57752639726E+01 -0.86178923386E+03  0.88877082773E+03  0.00000000000E+00 0. -1.
        -14    1    4    4    0    0  0.16784484631E+02  0.24174249042E+02 -0.18424671758E+03  0.18658233083E+03  0.00000000000E+00 0.  1.
        -13    1    3    3    0    0  0.21990129834E+02  0.89840498785E+02 -0.14057590356E+03  0.16827497049E+03  0.00000000000E+00 0.  1.
         13    1    3    3    0    0  0.20665040871E+02 -0.89534790263E+01 -0.11838051264E+03  0.12050375294E+03  0.00000000000E+00 0. -1.
          4    1    1    2  501    0 -0.27669422250E+03 -0.99286004828E+02 -0.17641637294E+04  0.17884884869E+04  0.00000000000E+00 0. -1.
<scales pt_clust_5="13000.00000" pt_clust_6="13000.00000" pt_clust_7="13000.00000" pt_clust_8="13000.00000" pt_clust_9="264.85737"></scales>
<clustering>
<clus scale="   84.145">  5  6 -1 -1</clus>
<clus scale="   89.289">  7  8 -1 -1</clus>
<clus scale="  127.807">  1  7  2 -1</clus>
<clus scale="  264.857">  2  9  1 -1</clus>
<clus scale="  264.857">  2  5  1 -1</clus>
</clustering>
</event>
<event>
 9    1  0.9171696E-005  0.1075239E+03  0.7546771E-02  0.1266637E+00
         21   -1    0    0  501  502  0.00000000000E+00  0.00000000000E+00  0.15341462596E+03  0.15341462596E+03  0.00000000000E+00 0. -1.
         -4   -1    0    0    0  501 -0.00000000000E+00 -0.00000000000E+00 -0.10214805852E+03  0.10214805852E+03  0.00000000000E+00 0.  1.
         23    2    1    2    0    0  0.69944664408E+02  0.25266505077E+02 -0.16471527149E+02  0.11410136664E+03  0.84953859850E+02 0.  0.
        -24    2    1    2    0    0 -0.52108794895E+02 -0.13310706253E+02  0.37537190666E+02  0.10440522570E+03  0.81233669519E+02 0.  0.
         13    1    4    4    0    0 -0.42017775135E+02 -0.24855546211E+01  0.62519733489E+02  0.75368352009E+02  0.00000000000E+00 0. -1.
        -14    1    4    4    0    0 -0.10091019760E+02 -0.10825151632E+02 -0.24982542824E+02  0.29036873688E+02  0.00000000000E+00 0.  1.
        -13    1    3    3    0    0  0.47678738973E+02  0.36245529354E+02 -0.46003946639E+02  0.75520617414E+02  0.00000000000E+00 0.  1.
         13    1    3    3    0    0  0.22265925435E+02 -0.10979024277E+02  0.29532419490E+02  0.38580749221E+02  0.00000000000E+00 0. -1.
         -3    1    1    2    0  502 -0.17835869514E+02 -0.11955798825E+02  0.30200903927E+02  0.37056092142E+02  0.00000000000E+00 0.  1.
<scales pt_clust_5="13000.00000" pt_clust_6="13000.00000" pt_clust_7="13000.00000" pt_clust_8="13000.00000" pt_clust_9="21.47229"></scales>
<clustering>
<clus scale="   21.472">  1  9  2 -1</clus>
<clus scale="   81.234">  5  6 -1 -1</clus>
<clus scale="   84.954">  7  8 -1 -1</clus>
<clus scale="  104.610">  1  5  2 -1</clus>
<clus scale="   21.472">  1  5  2 -1</clus>
</clustering>
</event>
<event>
 9    1  0.9171696E-005  0.1761638E+03  0.7546771E-02  0.1172736E+00
         21   -1    0    0  501  502  0.00000000000E+00  0.00000000000E+00  0.10397076985E+03  0.10397076985E+03  0.00000000000E+00 0.  1.
          1   -1    0    0  502    0 -0.00000000000E+00 -0.00000000000E+00 -0.42996723821E+03  0.42996723821E+03  0.00000000000E+00 0. -1.
         23    2    1    2    0    0 -0.11523744505E+03 -0.93241003506E+02 -0.25426078602E+03  0.30764039178E+03  0.89557299379E+02 0.  0.
        -24    2    1    2    0    0  0.14350452269E+03  0.75350882399E+02 -0.65405752757E+02  0.19225129313E+03  0.80070866773E+02 0.  0.
         11    1    4    4    0    0  0.70108490768E+02  0.62766327825E+02 -0.70545082531E+02  0.11760706210E+03  0.00000000000E+00 0. -1.
        -12    1    4    4    0    0  0.73396031919E+02  0.12584554573E+02  0.51393297738E+01  0.74644231029E+02  0.00000000000E+00 0.  1.
        -13    1    3    3    0    0 -0.25253574421E+02 -0.45877494998E+02 -0.27560487394E+02  0.59178273325E+02  0.00000000000E+00 0.  1.
         13    1    3    3    0    0 -0.89983870630E+02 -0.47363508508E+02 -0.22670029862E+03  0.24846211845E+03  0.00000000000E+00 0. -1.
          2    1    1    2  501    0 -0.28267077636E+02  0.17890121107E+02 -0.63299295878E+01  0.34046323148E+02  0.00000000000E+00 0. -1.
<scales pt_clust_5="13000.00000" pt_clust_6="13000.00000" pt_clust_7="13000.00000" pt_clust_8="13000.00000" pt_clust_9="33.45271"></scales>
<clustering>
<clus scale="   33.453">  1  9  2 -1</clus>
<clus scale="   80.071">  5  6 -1 -1</clus>
<clus scale="   89.557">  7  8 -1 -1</clus>
<clus scale="  171.536">  1  5  2 -1</clus>
<clus scale="   33.453">  1  5  2 -1</clus>
</clustering>
</event>
<event>
 9    1  0.9171696E-005  0.1175162E+03  0.7546771E-02  0.1251127E+00
         21   -1    0    0  501  502  0.00000000000E+00  0.00000000000E+00  0.24189576025E+02  0.24189576025E+02  0.00000000000E+00 0.  1.
          1   -1    0    0  502    0 -0.00000000000E+00 -0.00000000000E+00 -0.79760561895E+03  0.79760561895E+03  0.00000000000E+00 0. -1.
         23    2    1    2    0    0  0.37626376256E+02 -0.73392154390E+02 -0.48373412158E+03  0.49937815519E+03  0.92615813891E+02 0.  0.
        -24    2    1    2    0    0 -0.43275496493E+02  0.44048677606E+02 -0.26396297525E+03  0.28299095226E+03  0.81205739721E+02 0.  0.
         13    1    4    4    0    0  0.15977869837E+01  0.36896988422E+02 -0.39907289731E+02  0.54374005293E+02  0.00000000000E+00 0. -1.
        -14    1    4    4    0    0 -0.44873283476E+02  0.71516891840E+01 -0.22405568552E+03  0.22861694697E+03  0.00000000000E+00 0.  1.
        -13    1    3    3    0    0 -0.22711964175E+02 -0.48654989234E+02 -0.14971198885E+03  0.15904974348E+03  0.00000000000E+00 0.  1.
         13    1    3    3    0    0  0.60338340431E+02 -0.24737165156E+02 -0.33402213273E+03  0.34032841171E+03  0.00000000000E+00 0. -1.
          2    1    1    2  501    0  0.56491202366E+01  0.29343476784E+02 -0.25718946094E+02  0.39426087523E+02  0.00000000000E+00 0. -1.
<scales pt_clust_5="13000.00000" pt_clust_6="13000.00000" pt_clust_7="13000.00000" pt_clust_8="13000.00000" pt_clust_9="29.88231"></scales>
<clustering>
<clus scale="   29.882">  1  9  2 -1</clus>
<clus scale="   81.206">  5  6 -1 -1</clus>
<clus scale="   92.616">  7  8 -1 -1</clus>
<clus scale="  108.751">  1  5  2 -1</clus>
<clus scale="   29.882">  1  5  2 -1</clus>
</clustering>
</event>
<event>
 9    1  0.9171696E-005  0.1377322E+03  0.7546771E-02  0.1230122E+00
          1   -1    0    0  502    0 -0.00000000000E+00  0.00000000000E+00  0.49199042785E+03  0.49199042785E+03  0.00000000000E+00 0. -1.
         21   -1    0    0  501  502  0.00000000000E+00 -0.00000000000E+00 -0.37940558058E+03  0.37940558058E+03  0.00000000000E+00 0. -1.
         23    2    1    2    0    0  0.47881167824E+02 -0.63064104135E+01  0.34352983148E+02  0.10900034598E+03  0.91479893575E+02 0.  0.
        -24    2    1    2    0    0  0.45098205915E+02 -0.10224843960E+03 -0.31525765661E+03  0.34375103710E+03  0.79301916007E+02 0.  0.
         11    1    4    4    0    0 -0.72569949256E+01 -0.48758768856E+02 -0.20249076887E+03  0.20840487757E+03  0.00000000000E+00 0. -1.
        -12    1    4    4    0    0  0.52355200841E+02 -0.53489670744E+02 -0.11276688774E+03  0.13534615954E+03  0.00000000000E+00 0.  1.
        -11    1    3    3    0    0  0.68627215186E+02 -0.19278850247E+02  0.59798045820E+01  0.71534095324E+02  0.00000000000E+00 0. -1.
         11    1    3    3    0    0 -0.20746047362E+02  0.12972439834E+02  0.28373178566E+02  0.37466250657E+02  0.00000000000E+00 0.  1.
          2    1    1    2  501    0 -0.92979373739E+02  0.10855485001E+03  0.39348952073E+03  0.41864462534E+03  0.00000000000E+00 0. -1.
<scales pt_clust_5="13000.00000" pt_clust_6="13000.00000" pt_clust_7="13000.00000" pt_clust_8="13000.00000" pt_clust_9="112.61164"></scales>
<clustering>
<clus scale="   79.302">  5  6 -1 -1</clus>
<clus scale="   91.480">  7  8 -1 -1</clus>
<clus scale="  103.445">  1  7  2 -1</clus>
<clus scale="  112.612">  2  9  1 -1</clus>
<clus scale="  112.612">  2  5  1 -1</clus>
</clustering>
</event>
<event>
 9    1  0.9171696E-005  0.9835818E+02  0.7546771E-02  0.1290484E+00
          3   -1    0    0  502    0 -0.00000000000E+00  0.00000000000E+00  0.10385662533E+03  0.10385662533E+03  0.00000000000E+00 0. -1.
         21   -1    0    0  501  502  0.00000000000E+00 -0.00000000000E+00 -0.31319425272E+03  0.31319425272E+03  0.00000000000E+00 0. -1.
         23    2    1    2    0    0  0.25223383047E+02  0.27726538941E+02  0.64630177749E+02  0.11854949139E+03  0.92043153022E+02 0.  0.
        -24    2    1    2    0    0 -0.23418217601E+02 -0.31227275894E+01 -0.14359129613E+03  0.16581137099E+03  0.79478211366E+02 0.  0.
         13    1    4    4    0    0 -0.37778552509E+02  0.15507155070E+02 -0.32315728628E+02  0.52076839428E+02  0.00000000000E+00 0. -1.
        -14    1    4    4    0    0  0.14360334908E+02 -0.18629882660E+02 -0.11127556750E+03  0.11373453156E+03  0.00000000000E+00 0.  1.
        -13    1    3    3    0    0  0.40165218138E+02 -0.21941066952E+02  0.19316725160E+02  0.49676866226E+02  0.00000000000E+00 0.  1.
         13    1    3    3    0    0 -0.14941835091E+02  0.49667605893E+02  0.45313452589E+02  0.68872625161E+02  0.00000000000E+00 0. -1.
          4    1    1    2  501    0 -0.18051654460E+01 -0.24603811352E+02 -0.13037650901E+03  0.13269001566E+03  0.00000000000E+00 0. -1.
<scales pt_clust_5="13000.00000" pt_clust_6="13000.00000" pt_clust_7="13000.00000" pt_clust_8="13000.00000" pt_clust_9="24.66994"></scales>
<clustering>
<clus scale="   24.670">  2  9  1 -1</clus>
<clus scale="   79.478">  5  6 -1 -1</clus>
<clus scale="   86.713">  2  5  1 -1</clus>
<clus scale="   92.043">  7  8 -1 -1</clus>
<clus scale="   24.670">  2  5  1 -1</clus>
</clustering>
</event>
<event>
 9    1  0.9171696E-005  0.9218435E+02  0.7546771E-02  0.1304234E+00
          1   -1    0    0  502    0 -0.00000000000E+00  0.00000000000E+00  0.40943108960E+03  0.40943108960E+03  0.00000000000E+00 0. -1.
         21   -1    0    0  501  502  0.00000000000E+00 -0.00000000000E+00 -0.42351767195E+02  0.42351767195E+02  0.00000000000E+00 0.  1.
         23    2    1    2    0    0 -0.70300133457E+01 -0.53457212031E+01  0.24038843552E+03  0.25753970099E+03  0.91989672421E+02 0.  0.
        -24    2    1    2    0    0 -0.34798524816E+02 -0.28496840600E+02  0.73242827292E+02  0.11840358389E+03  0.81436414917E+02 0.  0.
         11    1    4    4    0    0 -0.42992072195E+02 -0.28457847485E+02  0.87730982971E+02  0.10175899335E+03  0.00000000000E+00 0. -1.
        -12    1    4    4    0    0  0.81935473794E+01 -0.38993115486E-01 -0.14488155680E+02  0.16644590536E+02  0.00000000000E+00 0.  1.
        -11    1    3    3    0    0 -0.26682199124E+02  0.34277483770E+02  0.78486880800E+02  0.89705496496E+02  0.00000000000E+00 0.  1.
         11    1    3    3    0    0  0.19652185779E+02 -0.39623204973E+02  0.16190155471E+03  0.16783420449E+03  0.00000000000E+00 0. -1.
          2    1    1    2  501    0  0.41828538161E+02  0.33842561803E+02  0.53448059602E+02  0.75839571922E+02  0.00000000000E+00 0. -1.
<scales pt_clust_5="13000.00000" pt_clust_6="13000.00000" pt_clust_7="13000.00000" pt_clust_8="13000.00000" pt_clust_9="53.80470"></scales>
<clustering>
<clus scale="   53.805">  2  9  1 -1</clus>
<clus scale="   81.436">  5  6 -1 -1</clus>
<clus scale="   81.656">  2  5  1 -1</clus>
<clus scale="   91.990">  7  8 -1 -1</clus>
<clus scale="   53.805">  2  5  1 -1</clus>
</clustering>
</event>
<event>
 9    1  0.9171696E-005  0.1017150E+03  0.7546771E-02  0.1280289E+00
         21   -1    0    0  501  502  0.00000000000E+00  0.00000000000E+00  0.13871042265E+03  0.13871042265E+03  0.00000000000E+00 0.  1.
         -2   -1    0    0    0  501 -0.00000000000E+00 -0.00000000000E+00 -0.26170345518E+03  0.26170345518E+03  0.00000000000E+00 0.  1.
         23    2    1    2    0    0 -0.26591487218E+02  0.43548856515E+02 -0.18723779088E+03  0.21272846637E+03  0.87130935806E+02 0.  0.
        -24    2    1    2    0    0  0.60002031226E+01 -0.61626159206E+02 -0.16962492991E+02  0.10198005852E+03  0.79236482958E+02 0.  0.
         13    1    4    4    0    0  0.96827524270E+01 -0.30560535915E+02  0.31079780318E+02  0.44650361640E+02  0.00000000000E+00 0. -1.
        -14    1    4    4    0    0 -0.36825493044E+01 -0.31065623291E+02 -0.48042273309E+02  0.57329696881E+02  0.00000000000E+00 0.  1.
        -11    1    3    3    0    0 -0.48066520536E+02  0.22062573955E+02 -0.52178739646E+02  0.74295144101E+02  0.00000000000E+00 0.  1.
         11    1    3    3    0    0  0.21475033318E+02  0.21486282560E+02 -0.13505905123E+03  0.13843332227E+03  0.00000000000E+00 0. -1.
         -1    1    1    2    0  502  0.20591284096E+02  0.18077302691E+02  0.81207251333E+02  0.85705352939E+02  0.00000000000E+00 0.  1.
<scales pt_clust_5="13000.00000" pt_clust_6="13000.00000" pt_clust_7="13000.00000" pt_clust_8="13000.00000" pt_clust_9="27.40054"></scales>
<clustering>
<clus scale="   27.401">  1  9  2 -1</clus>
<clus scale="   79.236">  5  6 -1 -1</clus>
<clus scale="   87.131">  7  8 -1 -1</clus>
<clus scale="   95.040">  1  5  2 -1</clus>
<clus scale="   27.401">  1  5  2 -1</clus>
</clustering>
</event>
<event>
 9    1  0.9171696E-005  0.9690878E+02  0.7546771E-02  0.1289572E+00
          1   -1    0    0  502    0 -0.00000000000E+00  0.00000000000E+00  0.11396886613E+03  0.11396886613E+03  0.00000000000E+00 0. -1.
         21   -1    0    0  501  502  0.00000000000E+00 -0.00000000000E+00 -0.25845810237E+03  0.25845810237E+03  0.00000000000E+00 0.  1.
         23    2    1    2    0    0 -0.48051676898E+02  0.29016385352E+02  0.50830028646E+02  0.11685040910E+03  0.88991078332E+02 0.  0.
        -24    2    1    2    0    0 -0.20041281905E+02  0.86595210801E+01 -0.94569371706E+02  0.12827115520E+03  0.83865862575E+02 0.  0.
         13    1    4    4    0    0 -0.34439935350E+02  0.45806801067E+01 -0.23252227803E+01  0.34820948266E+02  0.00000000000E+00 0. -1.
        -14    1    4    4    0    0  0.14398653445E+02  0.40788409734E+01 -0.92244148926E+02  0.93450206933E+02  0.00000000000E+00 0.  1.
        -13    1    3    3    0    0  0.43807698979E+01 -0.21996388044E+02 -0.71128497242E+01  0.23529234222E+02  0.00000000000E+00 0.  1.
         13    1    3    3    0    0 -0.52432446795E+02  0.51012773396E+02  0.57942878371E+02  0.93321174877E+02  0.00000000000E+00 0. -1.
          2    1    1    2  501    0  0.68092958802E+02 -0.37675906432E+02 -0.10074989318E+03  0.12730540421E+03  0.00000000000E+00 0. -1.
<scales pt_clust_5="13000.00000" pt_clust_6="13000.00000" pt_clust_7="13000.00000" pt_clust_8="13000.00000" pt_clust_9="77.82111"></scales>
<clustering>
<clus scale="   77.821">  2  9  1 -1</clus>
<clus scale="   83.866">  5  6 -1 -1</clus>
<clus scale="   88.991">  7  8 -1 -1</clus>
<clus scale="   92.225">  2  5  1 -1</clus>
<clus scale="   77.821">  2  5  1 -1</clus>
</clustering>
</event>
<event>
 9    1  0.9171696E-005  0.1515554E+03  0.7546771E-02  0.1219325E+00
          1   -1    0    0  502    0 -0.00000000000E+00  0.00000000000E+00  0.70238029228E+03  0.70238029228E+03  0.00000000000E+00 0. -1.
         21   -1    0    0  501  502  0.00000000000E+00 -0.00000000000E+00 -0.53572635647E+02  0.53572635647E+02  0.00000000000E+00 0. -1.
        -24    2    1    2    0    0  0.27801561132E+02  0.45451499863E+02  0.16531866184E+03  0.19178908151E+03  0.81326663469E+02 0.  0.
         23    2    1    2    0    0  0.60260480641E+02 -0.11630771547E+03  0.18074594712E+03  0.24100927133E+03  0.90871124463E+02 0.  0.
         11    1    3    3    0    0  0.39287046509E+02  0.31528235959E+02  0.16625182249E+03  0.17371577409E+03  0.00000000000E+00 0. -1.
        -12    1    3    3    0    0 -0.11485485377E+02  0.13923263904E+02 -0.93316065255E+00  0.18073307414E+02  0.00000000000E+00 0.  1.
        -11    1    4    4    0    0 -0.21109955396E+02 -0.13496165160E+02  0.49562097522E+02  0.55535377928E+02  0.00000000000E+00 0.  1.
         11    1    4    4    0    0  0.81370436037E+02 -0.10281155031E+03  0.13118384960E+03  0.18547389340E+03  0.00000000000E+00 0. -1.
          2    1    1    2  501    0 -0.88062041773E+02  0.70856215604E+02  0.30274304767E+03  0.32315457509E+03  0.00000000000E+00 0. -1.
<scales pt_clust_5="13000.00000" pt_clust_6="13000.00000" pt_clust_7="13000.00000" pt_clust_8="13000.00000" pt_clust_9="121.29095"></scales>
<clustering>
<clus scale="   81.327">  5  6 -1 -1</clus>
<clus scale="   90.871">  7  8 -1 -1</clus>
<clus scale="   97.225">  1  5  2 -1</clus>
<clus scale="  121.291">  2  9  1 -1</clus>
<clus scale="  121.291">  2  5  1 -1</clus>
</clustering>
</event>
<event>
 9    1  0.9171696E-005  0.1269470E+03  0.7546771E-02  0.1246670E+00
         21   -1    0    0  501  502  0.00000000000E+00  0.00000000000E+00  0.18735320025E+03  0.18735320025E+03  0.00000000000E+00 0.  1.
         -4   -1    0    0    0  501 -0.00000000000E+00 -0.00000000000E+00 -0.15501234700E+03  0.15501234700E+03  0.00000000000E+00 0.  1.
         23    2    1    2    0    0  0.21358754434E+02 -0.21959731731E+02 -0.27627638335E+02  0.98281770572E+02  0.89205346354E+02 0.  0.
        -24    2    1    2    0    0 -0.28535419897E+02 -0.78102173907E+02 -0.14313085611E+02  0.11925732836E+03  0.84280639474E+02 0.  0.
         11    1    4    4    0    0 -0.20614220345E+02  0.10093151601E+02 -0.20111926997E+02  0.30517329457E+02  0.00000000000E+00 0. -1.
        -12    1    4    4    0    0 -0.79211995523E+01 -0.88195325508E+02  0.57988413863E+01  0.88739998903E+02  0.00000000000E+00 0.  1.
        -13    1    3    3    0    0 -0.32609689020E+02 -0.12048867272E+02  0.39256919145E+01  0.34985398062E+02  0.00000000000E+00 0.  1.
         13    1    3    3    0    0  0.53968443454E+02 -0.99108644587E+01 -0.31553330250E+02  0.63296372511E+02  0.00000000000E+00 0. -1.
         -3    1    1    2    0  502  0.71766654632E+01  0.10006190564E+03  0.74281577203E+02  0.12482644831E+03  0.00000000000E+00 0.  1.
<scales pt_clust_5="13000.00000" pt_clust_6="13000.00000" pt_clust_7="13000.00000" pt_clust_8="13000.00000" pt_clust_9="94.93322"></scales>
<clustering>
<clus scale="   84.281">  5  6 -1 -1</clus>
<clus scale="   89.205">  7  8 -1 -1</clus>
<clus scale="   94.319">  2  7  1 -1</clus>
<clus scale="   94.933">  1  9  2 -1</clus>
<clus scale="   94.933">  1  5  2 -1</clus>
</clustering>
</event>
<event>
 9    1  0.9171696E-005  0.1729401E+03  0.7546771E-02  0.1187559E+00
         21   -1    0    0  501  502  0.00000000000E+00  0.00000000000E+00  0.83481784913E+03  0.83481784913E+03  0.00000000000E+00 0.  1.
         -4   -1    0    0    0  501 -0.00000000000E+00 -0.00000000000E+00 -0.13011814734E+03  0.13011814734E+03  0.00000000000E+00 0.  1.
         23    2    1    2    0    0  0.25295782752E+01  0.91144428301E+02  0.52018309992E+03  0.53616684786E+03  0.92578214058E+02 0.  0.
        -24    2    1    2    0    0 -0.14518004141E+03 -0.76118760346E+02  0.21514985174E+03  0.28209494730E+03  0.80104871817E+02 0.  0.
         13    1    4    4    0    0 -0.13929905644E+03 -0.47842918537E+02  0.20290327809E+03  0.25072477388E+03  0.00000000000E+00 0. -1.
        -14    1    4    4    0    0 -0.58809849679E+01 -0.28275841809E+02  0.12246573657E+02  0.31370173423E+02  0.00000000000E+00 0.  1.
        -11    1    3    3    0    0  0.46068110249E+02  0.52525969746E+02  0.23789923374E+03  0.24794615080E+03  0.00000000000E+00 0.  1.
         11    1    3    3    0    0 -0.43538531974E+02  0.38618458554E+02  0.28228386618E+03  0.28822069706E+03  0.00000000000E+00 0. -1.
         -3    1    1    2    0  502  0.14265046314E+03 -0.15025667954E+02 -0.30633249875E+02  0.14667420130E+03  0.00000000000E+00 0.  1.
<scales pt_clust_5="13000.00000" pt_clust_6="13000.00000" pt_clust_7="13000.00000" pt_clust_8="13000.00000" pt_clust_9="153.26940"></scales>
<clustering>
<clus scale="   80.105">  5  6 -1 -1</clus>
<clus scale="   92.578">  7  8 -1 -1</clus>
<clus scale="  129.940">  2  7  1 -1</clus>
<clus scale="  153.269">  1  9  2 -1</clus>
<clus scale="  153.269">  1  5  2 -1</clus>
</clustering>
</event>
<event>
 9    1  0.9171696E-005  0.2595392E+03  0.7546771E-02  0.1108357E+00
         21   -1    0    0  501  502  0.00000000000E+00  0.00000000000E+00  0.10401803783E+04  0.10401803783E+04  0.00000000000E+00 0.  1.
         -4   -1    0    0    0  501 -0.00000000000E+00 -0.00000000000E+00 -0.21147841450E+03  0.21147841450E+03  0.00000000000E+00 0.  1.
        -24    2    1    2    0    0  0.24185494385E+03 -0.15585832317E+02 -0.10680933663E+03  0.27581309576E+03  0.76992839726E+02 0.  0.
         23    2    1    2    0    0 -0.23196433761E+03 -0.43008468892E+01  0.89684591089E+03  0.93125515488E+03  0.95276568012E+02 0.  0.
         11    1    3    3    0    0  0.34468778657E+02  0.25436816048E+02 -0.15973861141E+02  0.45719717328E+02  0.00000000000E+00 0. -1.
        -12    1    3    3    0    0  0.20738616519E+03 -0.41022648365E+02 -0.90835475487E+02  0.23009337843E+03  0.00000000000E+00 0.  1.
        -11    1    4    4    0    0 -0.10127070468E+03 -0.48075896318E+02  0.44119892649E+03  0.45521812373E+03  0.00000000000E+00 0.  1.
         11    1    4    4    0    0 -0.13069363293E+03  0.43775049429E+02  0.45564698439E+03  0.47603703115E+03  0.00000000000E+00 0. -1.
         -3    1    1    2    0  502 -0.98906062326E+01  0.19886679206E+02  0.38665389593E+02  0.44590542203E+02  0.00000000000E+00 0.  1.
<scales pt_clust_5="13000.00000" pt_clust_6="13000.00000" pt_clust_7="13000.00000" pt_clust_8="13000.00000" pt_clust_9="22.21045"></scales>
<clustering>
<clus scale="   22.210">  1  9  2 -1</clus>
<clus scale="   76.993">  5  6 -1 -1</clus>
<clus scale="   95.277">  7  8 -1 -1</clus>
<clus scale="  253.399">  2  5  1 -1</clus>
<clus scale="   22.210">  1  5  2 -1</clus>
</clustering>
</event>
<event>
 9    1  0.9171696E-005  0.1079656E+03  0.7546771E-02  0.1269070E+00
         21   -1    0    0  501  502  0.00000000000E+00  0.00000000000E+00  0.64185806349E+02  0.64185806349E+02  0.00000000000E+00 0.  1.
         -2   -1    0    0    0  501 -0.00000000000E+00 -0.00000000000E+00 -0.34893391926E+03  0.34893391926E+03  0.00000000000E+00 0.  1.
        -24    2    1    2    0    0  0.67855562742E+02  0.40501002000E+02 -0.14102357226E+03  0.18097247704E+03  0.81355276135E+02 0.  0.
         23    2    1    2    0    0 -0.17086313069E+02  0.18354673708E+01 -0.26827975957E+02  0.97853912217E+02  0.92522088214E+02 0.  0.
         13    1    3    3    0    0  0.21672351028E+02  0.58583496945E+02 -0.64554443942E+02  0.89827574531E+02  0.00000000000E+00 0. -1.
        -14    1    3    3    0    0  0.46183211714E+02 -0.18082494945E+02 -0.76469128320E+02  0.91144902510E+02  0.00000000000E+00 0.  1.
        -13    1    4    4    0    0 -0.30371086297E+02 -0.22817722226E+02  0.20271324738E+02  0.43057844083E+02  0.00000000000E+00 0.  1.
         13    1    4    4    0    0  0.13284773227E+02  0.24653189597E+02 -0.47099300695E+02  0.54796068134E+02  0.00000000000E+00 0. -1.
         -1    1    1    2    0  502 -0.50769249673E+02 -0.42336469371E+02 -0.11689656469E+03  0.13429333635E+03  0.00000000000E+00 0.  1.
<scales pt_clust_5="13000.00000" pt_clust_6="13000.00000" pt_clust_7="13000.00000" pt_clust_8="13000.00000" pt_clust_9="66.10520"></scales>
<clustering>
<clus scale="   66.105">  1  9  2 -1</clus>
<clus scale="   81.355">  5  6 -1 -1</clus>
<clus scale="   92.522">  7  8 -1 -1</clus>
<clus scale="   98.564">  2  5  1 -1</clus>
<clus scale="   66.105">  1  5  2 -1</clus>
</clustering>
</event>
<event>
 9    1  0.9171696E-005  0.1965736E+03  0.7546771E-02  0.1153899E+00
          1   -1    0    0  502    0 -0.00000000000E+00  0.00000000000E+00  0.56769122484E+03  0.56769122484E+03  0.00000000000E+00 0. -1.
         21   -1    0    0  501  502  0.00000000000E+00 -0.00000000000E+00 -0.27571231052E+03  0.27571231052E+03  0.00000000000E+00 0. -1.
         23    2    1    2    0    0 -0.10598405906E+03 -0.16637771004E+03  0.45574490766E+03  0.50483911141E+03  0.90801676032E+02 0.  0.
        -24    2    1    2    0    0  0.11497518988E+03  0.37485477946E+02 -0.19881580373E+02  0.14518197329E+03  0.77833622459E+02 0.  0.
         11    1    4    4    0    0  0.98953664079E+02  0.25589409809E+01  0.54845880477E+01  0.99138572309E+02  0.00000000000E+00 0. -1.
        -12    1    4    4    0    0  0.16021525802E+02  0.34926536965E+02 -0.25366168421E+02  0.46043400979E+02  0.00000000000E+00 0.  1.
        -13    1    3    3    0    0 -0.43479240113E+02 -0.12335447934E+03  0.35768925404E+03  0.38085216863E+03  0.00000000000E+00 0.  1.
         13    1    3    3    0    0 -0.62504818946E+02 -0.43023230704E+02  0.98055653625E+02  0.12398694278E+03  0.00000000000E+00 0. -1.
          2    1    1    2  501    0 -0.89911308211E+01  0.12889223210E+03 -0.14388441297E+03  0.19338245066E+03  0.00000000000E+00 0. -1.
<scales pt_clust_5="13000.00000" pt_clust_6="13000.00000" pt_clust_7="13000.00000" pt_clust_8="13000.00000" pt_clust_9="129.20545"></scales>
<clustering>
<clus scale="   77.834">  5  6 -1 -1</clus>
<clus scale="   90.802">  7  8 -1 -1</clus>
<clus scale="  129.205">  2  9  1 -1</clus>
<clus scale="  190.930">  2  5  1 -1</clus>
<clus scale="  129.205">  2  5  1 -1</clus>
</clustering>
</event>
<event>
 9    1  0.9171696E-005  0.9497862E+02  0.7546771E-02  0.1296538E+00
         21   -1    0    0  501  502  0.00000000000E+00  0.00000000000E+00  0.20752789182E+03  0.20752789182E+03  0.00000000000E+00 0.  1.
         -4   -1    0    0    0  501 -0.00000000000E+00 -0.00000000000E+00 -0.17549292557E+03  0.17549292557E+03  0.00000000000E+00 0.  1.
        -24    2    1    2    0    0 -0.29949573121E+02  0.26705599117E+02 -0.11948845555E+03  0.14980321341E+03  0.80952737962E+02 0.  0.
         23    2    1    2    0    0 -0.32858065982E+02  0.16487031604E+02  0.61917342441E+02  0.11557555225E+03  0.90401749277E+02 0.  0.
         13    1    3    3    0    0 -0.26052087164E+02  0.53971878003E+02 -0.97985897673E+02  0.11486039789E+03  0.00000000000E+00 0. -1.
        -14    1    3    3    0    0 -0.38974859574E+01 -0.27266278886E+02 -0.21502557874E+02  0.34942815516E+02  0.00000000000E+00 0.  1.
        -11    1    4    4    0    0 -0.68489050365E+01  0.52168605307E+02  0.41065939903E+02  0.66744904675E+02  0.00000000000E+00 0.  1.
         11    1    4    4    0    0 -0.26009160946E+02 -0.35681573703E+02  0.20851402538E+02  0.48830647578E+02  0.00000000000E+00 0. -1.
         -3    1    1    2    0  502  0.62807639103E+02 -0.43192630721E+02  0.89606079351E+02  0.11764205173E+03  0.00000000000E+00 0.  1.
<scales pt_clust_5="13000.00000" pt_clust_6="13000.00000" pt_clust_7="13000.00000" pt_clust_8="13000.00000" pt_clust_9="76.22600"></scales>
<clustering>
<clus scale="   76.226">  1  9  2 -1</clus>
<clus scale="   80.953">  5  6 -1 -1</clus>
<clus scale="   86.034">  2  5  1 -1</clus>
<clus scale="   90.402">  7  8 -1 -1</clus>
<clus scale="   76.226">  1  5  2 -1</clus>
</clustering>
</event>
<event>
 9    1  0.9171696E-005  0.1094741E+03  0.7546771E-02  0.1265721E+00
          1   -1    0    0  502    0 -0.00000000000E+00  0.00000000000E+00  0.70656506036E+03  0.70656506036E+03  0.00000000000E+00 0. -1.
         21   -1    0    0  501  502  0.00000000000E+00 -0.00000000000E+00 -0.35744356033E+02  0.35744356033E+02  0.00000000000E+00 0.  1.
         23    2    1    2    0    0 -0.50980366959E+02 -0.45265304178E+02  0.28406914479E+03  0.30650744420E+03  0.92755532171E+02 0.  0.
        -24    2    1    2    0    0  0.63694975762E+02 -0.31216549314E+02  0.14080828671E+03  0.17792752864E+03  0.82460347767E+02 0.  0.
         13    1    4    4    0    0  0.35570453257E+02  0.17103744666E+02  0.10334964331E+03  0.11062976091E+03  0.00000000000E+00 0. -1.
        -14    1    4    4    0    0  0.28124522505E+02 -0.48320293980E+02  0.37458643401E+02  0.67297767734E+02  0.00000000000E+00 0.  1.
        -13    1    3    3    0    0 -0.46521356193E+02 -0.71444669737E+02  0.24373605915E+03  0.25821666086E+03  0.00000000000E+00 0.  1.
         13    1    3    3    0    0 -0.44590107659E+01  0.26179365558E+02  0.40333085649E+02  0.48290783344E+02  0.00000000000E+00 0. -1.
          2    1    1    2  501    0 -0.12714608803E+02  0.76481853492E+02  0.24594327282E+03  0.25787444355E+03  0.00000000000E+00 0. -1.
<scales pt_clust_5="13000.00000" pt_clust_6="13000.00000" pt_clust_7="13000.00000" pt_clust_8="13000.00000" pt_clust_9="77.53155"></scales>
<clustering>
<clus scale="   77.532">  2  9  1 -1</clus>
<clus scale="   82.460">  5  6 -1 -1</clus>
<clus scale="   92.756">  7  8 -1 -1</clus>
<clus scale="  100.899">  2  5  1 -1</clus>
<clus scale="   77.532">  2  5  1 -1</clus>
</clustering>
</event>
<event>
 9    1  0.9171696E-005  0.1519574E+03  0.7546771E-02  0.1199322E+00
         21   -1    0    0  501  502  0.00000000000E+00  0.00000000000E+00  0.50047085797E+02  0.50047085797E+02  0.00000000000E+00 0. -1.
          3   -1    0    0  502    0 -0.00000000000E+00 -0.00000000000E+00 -0.91921980032E+03  0.91921980032E+03  0.00000000000E+00 0. -1.
         23    2    1    2    0    0  0.75079255707E+01  0.72751537557E+02 -0.16792433219E+03  0.20306524375E+03  0.87679853531E+02 0.  0.
        -24    2    1    2    0    0  0.30722898729E+02 -0.17335662045E+03 -0.52658656207E+03  0.56104382485E+03  0.80500631588E+02 0.  0.
         11    1    4    4    0    0 -0.24201805551E+02 -0.77812313165E+02 -0.26332580454E+03  0.27564644530E+03  0.00000000000E+00 0. -1.
        -12    1    4    4    0    0  0.54924704280E+02 -0.95544307289E+02 -0.26326075753E+03  0.28539737955E+03  0.00000000000E+00 0.  1.
        -13    1    3    3    0    0 -0.20887906003E+02 -0.38206866262E+01 -0.81240815294E+02  0.83970068078E+02  0.00000000000E+00 0.  1.
         13    1    3    3    0    0  0.28395831573E+02  0.76572224183E+02 -0.86683516895E+02  0.11909517567E+03  0.00000000000E+00 0. -1.
          4    1    1    2  501    0 -0.38230824300E+02  0.10060508290E+03 -0.17466182026E+03  0.20515781752E+03  0.00000000000E+00 0. -1.
<scales pt_clust_5="13000.00000" pt_clust_6="13000.00000" pt_clust_7="13000.00000" pt_clust_8="13000.00000" pt_clust_9="107.62425"></scales>
<clustering>
<clus scale="   80.501">  5  6 -1 -1</clus>
<clus scale="   87.680">  7  8 -1 -1</clus>
<clus scale="  107.624">  1  9  2 -1</clus>
<clus scale="  147.931">  1  5  2 -1</clus>
<clus scale="  107.624">  1  5  2 -1</clus>
</clustering>
</event>
<event>
 9    1  0.9171696E-005  0.2703179E+03  0.7546771E-02  0.1101601E+00
          1   -1    0    0  502    0 -0.00000000000E+00  0.00000000000E+00  0.19471070253E+04  0.19471070253E+04  0.00000000000E+00 0. -1.
         21   -1    0    0  501  502  0.00000000000E+00 -0.00000000000E+00 -0.59014272139E+02  0.59014272139E+02  0.00000000000E+00 0. -1.
        -24    2    1    2    0    0  0.25109779403E+03 -0.87536654199E+02  0.13833343602E+04  0.14109674693E+04  0.80637953276E+02 0.  0.
         23    2    1    2    0    0 -0.21108653664E+03  0.58885620149E+02  0.29007065785E+03  0.37489805385E+03  0.91556114077E+02 0.  0.
         13    1    3    3    0    0  0.24834896620E+03 -0.84894266514E+02  0.13823287641E+04  0.14070241851E+04  0.00000000000E+00 0. -1.
        -14    1    3    3    0    0  0.27488278295E+01 -0.26423876846E+01  0.10055961171E+01  0.39432842482E+01  0.00000000000E+00 0.  1.
        -13    1    4    4    0    0 -0.12957460357E+03  0.48563695884E+02  0.24450506889E+03  0.28094614993E+03  0.00000000000E+00 0.  1.
         13    1    4    4    0    0 -0.81511933067E+02  0.10321924264E+02  0.45565588964E+02  0.93951903922E+02  0.00000000000E+00 0. -1.
          2    1    1    2  501    0 -0.40011257393E+02  0.28651034050E+02  0.21468773513E+03  0.22025577424E+03  0.00000000000E+00 0. -1.
<scales pt_clust_5="13000.00000" pt_clust_6="13000.00000" pt_clust_7="13000.00000" pt_clust_8="13000.00000" pt_clust_9="49.21163"></scales>
<clustering>
<clus scale="   49.212">  2  9  1 -1</clus>
<clus scale="   80.638">  5  6 -1 -1</clus>
<clus scale="   91.556">  7  8 -1 -1</clus>
<clus scale="  266.818">  1  5  2 -1</clus>
<clus scale="   49.212">  2  5  1 -1</clus>
</clustering>
</event>
<event>
 9    1  0.9171696E-005  0.1371023E+03  0.7546771E-02  0.1221846E+00
         21   -1    0    0  501  502  0.00000000000E+00  0.00000000000E+00  0.11474129716E+03  0.11474129716E+03  0.00000000000E+00 0. -1.
          1   -1    0    0  502    0 -0.00000000000E+00 -0.00000000000E+00 -0.48591516431E+03  0.48591516431E+03  0.00000000000E+00 0. -1.
        -24    2    1    2    0    0 -0.54103896586E+02  0.69304497034E+02 -0.10023459046E+03  0.15603097910E+03  0.81045347681E+02 0.  0.
         23    2    1    2    0    0 -0.29923676138E+02 -0.14271846662E+03 -0.29753510411E+02  0.17887970579E+03  0.99240569602E+02 0.  0.
         13    1    3    3    0    0 -0.17279729095E+02  0.74818744165E+02 -0.88102679877E+02  0.11686965268E+03  0.00000000000E+00 0. -1.
        -14    1    3    3    0    0 -0.36824167490E+02 -0.55142471313E+01 -0.12131910578E+02  0.39161326421E+02  0.00000000000E+00 0.  1.
        -13    1    4    4    0    0 -0.57620651039E+02 -0.12826064171E+03 -0.80532763716E+01  0.14083957860E+03  0.00000000000E+00 0. -1.
         13    1    4    4    0    0  0.27696974901E+02 -0.14457824903E+02 -0.21700234039E+02  0.38040127194E+02  0.00000000000E+00 0.  1.
          2    1    1    2  501    0  0.84027572724E+02  0.73413969583E+02 -0.24118576629E+03  0.26574577658E+03  0.00000000000E+00 0. -1.
<scales pt_clust_5="13000.00000" pt_clust_6="13000.00000" pt_clust_7="13000.00000" pt_clust_8="13000.00000" pt_clust_9="111.58072"></scales>
<clustering>
<clus scale="   81.045">  5  6 -1 -1</clus>
<clus scale="   99.241">  7  8 -1 -1</clus>
<clus scale="  111.581">  1  9  2 -1</clus>
<clus scale="  124.566">  2  5  1 -1</clus>
<clus scale="  111.581">  1  5  2 -1</clus>
</clustering>
</event>
<event>
 9    1  0.9171696E-005  0.1245547E+03  0.7546771E-02  0.1246185E+00
         21   -1    0    0  501  502  0.00000000000E+00  0.00000000000E+00  0.47555619397E+02  0.47555619397E+02  0.00000000000E+00 0. -1.
          1   -1    0    0  502    0 -0.00000000000E+00 -0.00000000000E+00 -0.52043792563E+03  0.52043792563E+03  0.00000000000E+00 0. -1.
         23    2    1    2    0    0 -0.72308585462E+02  0.37362873430E+02 -0.32085551922E+03  0.34801901346E+03  0.10744511936E+03 0.  0.
        -24    2    1    2    0    0  0.33359250686E+02  0.78099177355E+01 -0.43774399805E+02  0.96377561225E+02  0.78731199712E+02 0.  0.
         13    1    4    4    0    0 -0.62003733888E+01  0.36466356322E+02 -0.20014043114E+02  0.42057124192E+02  0.00000000000E+00 0. -1.
        -14    1    4    4    0    0  0.39559624075E+02 -0.28656438586E+02 -0.23760356690E+02  0.54320437033E+02  0.00000000000E+00 0.  1.
        -11    1    3    3    0    0 -0.11921027043E+02  0.61753973641E+02 -0.10345381177E+03  0.12107169494E+03  0.00000000000E+00 0. -1.
         11    1    3    3    0    0 -0.60387558419E+02 -0.24391100212E+02 -0.21740170745E+03  0.22694731852E+03  0.00000000000E+00 0.  1.
          2    1    1    2  501    0  0.38949334776E+02 -0.45172791165E+02 -0.10825238721E+03  0.12359697034E+03  0.00000000000E+00 0. -1.
<scales pt_clust_5="13000.00000" pt_clust_6="13000.00000" pt_clust_7="13000.00000" pt_clust_8="13000.00000" pt_clust_9="59.64592"></scales>
<clustering>
<clus scale="   59.646">  1  9  2 -1</clus>
<clus scale="   78.731">  5  6 -1 -1</clus>
<clus scale="  100.837">  1  5  2 -1</clus>
<clus scale="  107.445">  7  8 -1 -1</clus>
<clus scale="   59.646">  1  5  2 -1</clus>
</clustering>
</event>
<event>
 9    1  0.9171696E-005  0.4342982E+03  0.7546771E-02  0.1090760E+00
         21   -1    0    0  501  502  0.00000000000E+00  0.00000000000E+00  0.31980170992E+03  0.31980170992E+03  0.00000000000E+00 0. -1.
          1   -1    0    0  502    0 -0.00000000000E+00 -0.00000000000E+00 -0.82698241826E+03  0.82698241826E+03  0.00000000000E+00 0. -1.
        -24    2    1    2    0    0 -0.26225981029E+02  0.70982242537E+01  0.15932869499E+02  0.86884727968E+02  0.80974766162E+02 0.  0.
         23    2    1    2    0    0  0.36776479954E+03  0.21912583148E+03 -0.64341051395E+02  0.44483979419E+03  0.10235034829E+03 0.  0.
         13    1    3    3    0    0 -0.43430105288E+02 -0.25459255269E+00  0.38172472619E+02  0.57821938125E+02  0.00000000000E+00 0. -1.
        -14    1    3    3    0    0  0.17204124259E+02  0.73528168064E+01 -0.22239603120E+02  0.29062789842E+02  0.00000000000E+00 0.  1.
        -13    1    4    4    0    0  0.23468012621E+03  0.97736603177E+02 -0.73028626315E+02  0.26450025614E+03  0.00000000000E+00 0.  1.
         13    1    4    4    0    0  0.13308467333E+03  0.12138922831E+03  0.86875749204E+01  0.18033953805E+03  0.00000000000E+00 0. -1.
          2    1    1    2  501    0 -0.34153881851E+03 -0.22622405574E+03 -0.45877252645E+03  0.61505960603E+03  0.00000000000E+00 0. -1.
<scales pt_clust_5="13000.00000" pt_clust_6="13000.00000" pt_clust_7="13000.00000" pt_clust_8="13000.00000" pt_clust_9="422.06581"></scales>
<clustering>
<clus scale="   80.975">  5  6 -1 -1</clus>
<clus scale="   85.411">  2  5  1 -1</clus>
<clus scale="  102.350">  7  8 -1 -1</clus>
<clus scale="  422.066">  1  9  2 -1</clus>
<clus scale="  422.066">  1  5  2 -1</clus>
</clustering>
</event>
<event>
 9    1  0.9171696E-005  0.1654510E+03  0.7546771E-02  0.1183776E+00
         21   -1    0    0  501  502  0.00000000000E+00  0.00000000000E+00  0.63361997091E+03  0.63361997091E+03  0.00000000000E+00 0.  1.
          1   -1    0    0  502    0 -0.00000000000E+00 -0.00000000000E+00 -0.21335751982E+03  0.21335751982E+03  0.00000000000E+00 0. -1.
         23    2    1    2    0    0 -0.50903747979E+02  0.13075139390E+03 -0.15756722880E+03  0.22899078781E+03  0.89006914021E+02 0.  0.
        -24    2    1    2    0    0  0.69884937608E+00 -0.13570553021E+03  0.50643059620E+03  0.53056299640E+03  0.81293696323E+02 0.  0.
         13    1    4    4    0    0  0.14633731170E+02 -0.91327442965E+02  0.19671999554E+03  0.21737894234E+03  0.00000000000E+00 0. -1.
        -14    1    4    4    0    0 -0.13934881794E+02 -0.44378087245E+02  0.30971060066E+03  0.31318405406E+03  0.00000000000E+00 0.  1.
        -13    1    3    3    0    0 -0.28600672624E+01  0.92312474545E+02 -0.13476099639E+03  0.16337165939E+03  0.00000000000E+00 0.  1.
         13    1    3    3    0    0 -0.48043680717E+02  0.38438919359E+02 -0.22806232403E+02  0.65619128421E+02  0.00000000000E+00 0. -1.
          2    1    1    2  501    0  0.50204898603E+02  0.49541363055E+01  0.71399083694E+02  0.87423706525E+02  0.00000000000E+00 0. -1.
<scales pt_clust_5="13000.00000" pt_clust_6="13000.00000" pt_clust_7="13000.00000" pt_clust_8="13000.00000" pt_clust_9="50.44874"></scales>
<clustering>
<clus scale="   50.449">  1  9  2 -1</clus>
<clus scale="   81.294">  5  6 -1 -1</clus>
<clus scale="   89.007">  7  8 -1 -1</clus>
<clus scale="  161.433">  1  5  2 -1</clus>
<clus scale="   50.449">  1  5  2 -1</clus>
</clustering>
</event>
<event>
 9    1  0.9171696E-005  0.1045590E+03  0.7546771E-02  0.1275084E+00
          1   -1    0    0  502    0 -0.00000000000E+00  0.00000000000E+00  0.13805626032E+03  0.13805626032E+03  0.00000000000E+00 0. -1.
         21   -1    0    0  501  502  0.00000000000E+00 -0.00000000000E+00 -0.16227203567E+03  0.16227203567E+03  0.00000000000E+00 0. -1.
        -24    2    1    2    0    0 -0.50563319882E+02 -0.71334847221E+02 -0.37825271321E+01  0.11917138993E+03  0.80883885420E+02 0.  0.
         23    2    1    2    0    0  0.13200865477E+02  0.49979780027E+01 -0.44153889257E+02  0.10141230105E+03  0.90197817236E+02 0.  0.
         13    1    3    3    0    0 -0.10687039435E+00 -0.57776361106E+02  0.20831634809E+02  0.61417231562E+02  0.00000000000E+00 0. -1.
        -14    1    3    3    0    0 -0.50456449488E+02 -0.13558486115E+02 -0.24614161941E+02  0.57754158367E+02  0.00000000000E+00 0.  1.
        -11    1    4    4    0    0  0.17952670226E+02 -0.19484765693E+02  0.19598506881E+02  0.32955362755E+02  0.00000000000E+00 0.  1.
         11    1    4    4    0    0 -0.47518047489E+01  0.24482743696E+02 -0.63752396138E+02  0.68456938295E+02  0.00000000000E+00 0. -1.
          2    1    1    2  501    0  0.37362454405E+02  0.66336869218E+02  0.23720641046E+02  0.79744605012E+02  0.00000000000E+00 0. -1.
<scales pt_clust_5="13000.00000" pt_clust_6="13000.00000" pt_clust_7="13000.00000" pt_clust_8="13000.00000" pt_clust_9="76.13501"></scales>
<clustering>
<clus scale="   76.135">  2  9  1 -1</clus>
<clus scale="   80.884">  5  6 -1 -1</clus>
<clus scale="   90.198">  7  8 -1 -1</clus>
<clus scale="   96.639">  1  5  2 -1</clus>
<clus scale="   76.135">  2  5  1 -1</clus>
</clustering>
</event>
<event>
 9    1  0.9171696E-005  0.1172438E+03  0.7546771E-02  0.1253895E+00
         21   -1    0    0  501  502  0.00000000000E+00  0.00000000000E+00  0.61157687161E+02  0.61157687161E+02  0.00000000000E+00 0.  1.
          1   -1    0    0  502    0 -0.00000000000E+00 -0.00000000000E+00 -0.57249097392E+03  0.57249097392E+03  0.00000000000E+00 0. -1.
         23    2    1    2    0    0 -0.51326442544E+02  0.55922058917E+02 -0.32754678415E+03  0.34833787090E+03  0.91053259777E+02 0.  0.
        -24    2    1    2    0    0  0.10008423112E+02 -0.75190237420E+02 -0.98887279126E+01  0.10553627175E+03  0.72707478155E+02 0.  0.
         13    1    4    4    0    0  0.41385275768E+02 -0.49479359640E+02 -0.63058343411E+01  0.64812897077E+02  0.00000000000E+00 0. -1.
        -14    1    4    4    0    0 -0.31376852656E+02 -0.25710877780E+02 -0.35828935715E+01  0.40723374678E+02  0.00000000000E+00 0.  1.
        -11    1    3    3    0    0  0.24065622108E+02 -0.95515853659E+00 -0.69016095598E+02  0.73097797141E+02  0.00000000000E+00 0.  1.
         11    1    3    3    0    0 -0.75392064652E+02  0.56877217453E+02 -0.25853068856E+03  0.27524007376E+03  0.00000000000E+00 0. -1.
          2    1    1    2  501    0  0.41318019432E+02  0.19268178503E+02 -0.17389777469E+03  0.17977451842E+03  0.00000000000E+00 0. -1.
<scales pt_clust_5="13000.00000" pt_clust_6="13000.00000" pt_clust_7="13000.00000" pt_clust_8="13000.00000" pt_clust_9="45.58995"></scales>
<clustering>
<clus scale="   45.590">  1  9  2 -1</clus>
<clus scale="   72.707">  5  6 -1 -1</clus>
<clus scale="   91.053">  7  8 -1 -1</clus>
<clus scale="  103.643">  1  5  2 -1</clus>
<clus scale="   45.590">  1  5  2 -1</clus>
</clustering>
</event>
<event>
 9    1  0.9171696E-005  0.8120377E+02  0.7546771E-02  0.1326295E+00
         21   -1    0    0  501  502  0.00000000000E+00  0.00000000000E+00  0.22395396243E+03  0.22395396243E+03  0.00000000000E+00 0.  1.
         -2   -1    0    0    0  501 -0.00000000000E+00 -0.00000000000E+00 -0.91780274067E+02  0.91780274067E+02  0.00000000000E+00 0.  1.
        -24    2    1    2    0    0  0.14605766407E+02  0.66320823672E+01 -0.51006435067E+02  0.96289582993E+02  0.80079425859E+02 0.  0.
         23    2    1    2    0    0  0.17655729605E+02 -0.23294031334E+02  0.12336377026E+03  0.14947022407E+03  0.79173173403E+02 0.  0.
         11    1    3    3    0    0  0.16819630618E+02 -0.33880795115E+02 -0.11198528819E+02  0.39448894781E+02  0.00000000000E+00 0. -1.
        -12    1    3    3    0    0 -0.22138642111E+01  0.40512877482E+02 -0.39807906248E+02  0.56840688212E+02  0.00000000000E+00 0.  1.
        -11    1    4    4    0    0  0.38601871040E+02 -0.39748226257E+02  0.98596154827E+02  0.11309830982E+03  0.00000000000E+00 0.  1.
         11    1    4    4    0    0 -0.20946141435E+02  0.16454194923E+02  0.24767615432E+02  0.36371914244E+02  0.00000000000E+00 0. -1.
         -1    1    1    2    0  502 -0.32261496012E+02  0.16661948966E+02  0.59816353169E+02  0.69974429435E+02  0.00000000000E+00 0.  1.
<scales pt_clust_5="13000.00000" pt_clust_6="13000.00000" pt_clust_7="13000.00000" pt_clust_8="13000.00000" pt_clust_9="36.31012"></scales>
<clustering>
<clus scale="   36.310">  1  9  2 -1</clus>
<clus scale="   79.173">  7  8 -1 -1</clus>
<clus scale="   80.079">  5  6 -1 -1</clus>
<clus scale="   80.310">  1  7  2 -1</clus>
<clus scale="   36.310">  1  5  2 -1</clus>
</clustering>
</event>
<event>
 9    1  0.9171696E-005  0.9566518E+02  0.7546771E-02  0.1295634E+00
          1   -1    0    0  502    0 -0.00000000000E+00  0.00000000000E+00  0.69560795138E+03  0.69560795138E+03  0.00000000000E+00 0. -1.
         21   -1    0    0  501  502  0.00000000000E+00 -0.00000000000E+00 -0.31269242829E+02  0.31269242829E+02  0.00000000000E+00 0. -1.
         23    2    1    2    0    0  0.36645034909E+02 -0.25149002045E+01  0.21077929796E+03  0.23212903149E+03  0.90037722661E+02 0.  0.
        -24    2    1    2    0    0 -0.83272066949E+01 -0.55167241780E+02  0.11622818817E+03  0.15135118761E+03  0.79280661759E+02 0.  0.
         11    1    4    4    0    0 -0.20701721309E+01 -0.68393698496E+02  0.11821032227E+03  0.13658573826E+03  0.00000000000E+00 0. -1.
        -12    1    4    4    0    0 -0.62570345640E+01  0.13226456717E+02 -0.19821340979E+01  0.14765449346E+02  0.00000000000E+00 0.  1.
        -13    1    3    3    0    0 -0.25103866793E+02  0.13765594349E+02  0.10248089928E+03  0.10640503011E+03  0.00000000000E+00 0.  1.
         13    1    3    3    0    0  0.61748901702E+02 -0.16280494554E+02  0.10829839869E+03  0.12572400138E+03  0.00000000000E+00 0. -1.
          2    1    1    2  501    0 -0.28317828214E+02  0.57682141984E+02  0.33733122242E+03  0.34339697512E+03  0.00000000000E+00 0. -1.
<scales pt_clust_5="13000.00000" pt_clust_6="13000.00000" pt_clust_7="13000.00000" pt_clust_8="13000.00000" pt_clust_9="64.25833"></scales>
<clustering>
<clus scale="   64.258">  2  9  1 -1</clus>
<clus scale="   79.281">  5  6 -1 -1</clus>
<clus scale="   85.618">  2  5  1 -1</clus>
<clus scale="   90.038">  7  8 -1 -1</clus>
<clus scale="   64.258">  2  5  1 -1</clus>
</clustering>
</event>
<event>
 9    1  0.9171696E-005  0.1149595E+03  0.7546771E-02  0.1255386E+00
          3   -1    0    0  502    0 -0.00000000000E+00  0.00000000000E+00  0.31393423967E+03  0.31393423967E+03  0.00000000000E+00 0. -1.
         21   -1    0    0  501  502  0.00000000000E+00 -0.00000000000E+00 -0.12172843923E+03  0.12172843923E+03  0.00000000000E+00 0. -1.
        -24    2    1    2    0    0  0.51274710569E+02 -0.58775384302E+02  0.21908355941E+03  0.24643902913E+03  0.81553340428E+02 0.  0.
         23    2    1    2    0    0  0.12555571131E+01  0.15010680705E+02 -0.62353070144E+02  0.11219588849E+03  0.92049525145E+02 0.  0.
         11    1    3    3    0    0  0.40211252891E+02 -0.29791450525E+02  0.20729628926E+03  0.21325155785E+03  0.00000000000E+00 0. -1.
        -12    1    3    3    0    0  0.11063457678E+02 -0.28983933777E+02  0.11787270147E+02  0.33187471288E+02  0.00000000000E+00 0.  1.
        -13    1    4    4    0    0  0.41420873021E+02  0.27106823230E+02 -0.22647585618E+02  0.54436951804E+02  0.00000000000E+00 0.  1.
         13    1    4    4    0    0 -0.40165315908E+02 -0.12096142525E+02 -0.39705484526E+02  0.57758936689E+02  0.00000000000E+00 0. -1.
          4    1    1    2  501    0 -0.52530267682E+02  0.43764703597E+02  0.35475311178E+02  0.77027761274E+02  0.00000000000E+00 0. -1.
<scales pt_clust_5="13000.00000" pt_clust_6="13000.00000" pt_clust_7="13000.00000" pt_clust_8="13000.00000" pt_clust_9="68.37238"></scales>
<clustering>
<clus scale="   68.372">  2  9  1 -1</clus>
<clus scale="   81.553">  5  6 -1 -1</clus>
<clus scale="   92.050">  7  8 -1 -1</clus>
<clus scale="  106.740">  1  5  2 -1</clus>
<clus scale="   68.372">  2  5  1 -1</clus>
</clustering>
</event>
<event>
 9    1  0.9171696E-005  0.1456367E+03  0.7546771E-02  0.1207757E+00
          1   -1    0    0  502    0 -0.00000000000E+00  0.00000000000E+00  0.10695119052E+04  0.10695119052E+04  0.00000000000E+00 0. -1.
         21   -1    0    0  501  502  0.00000000000E+00 -0.00000000000E+00 -0.54191051775E+02  0.54191051775E+02  0.00000000000E+00 0. -1.
        -24    2    1    2    0    0 -0.11065670323E+03  0.84637392368E+01  0.72392341540E+03  0.73682931625E+03  0.80844227194E+02 0.  0.
         23    2    1    2    0    0  0.12104740796E+03 -0.32367166830E+02  0.31558546935E+03  0.35131521769E+03  0.90155894144E+02 0.  0.
         13    1    3    3    0    0 -0.49715578498E+02 -0.54744731893E+01  0.12474288670E+03  0.13439641508E+03  0.00000000000E+00 0. -1.
        -14    1    3    3    0    0 -0.60941124731E+02  0.13938212426E+02  0.59918052869E+03  0.60243290117E+03  0.00000000000E+00 0.  1.
        -13    1    4    4    0    0  0.42133934308E+02 -0.38534175372E+02  0.56180005158E+02  0.80102085313E+02  0.00000000000E+00 0.  1.
         13    1    4    4    0    0  0.78913473657E+02  0.61670085420E+01  0.25940546419E+03  0.27121313237E+03  0.00000000000E+00 0. -1.
          2    1    1    2  501    0 -0.10390704736E+02  0.23903427593E+02 -0.24188031275E+02  0.35558423089E+02  0.00000000000E+00 0. -1.
<scales pt_clust_5="13000.00000" pt_clust_6="13000.00000" pt_clust_7="13000.00000" pt_clust_8="13000.00000" pt_clust_9="26.06416"></scales>
<clustering>
<clus scale="   26.064">  2  9  1 -1</clus>
<clus scale="   80.844">  5  6 -1 -1</clus>
<clus scale="   90.156">  7  8 -1 -1</clus>
<clus scale="  140.063">  1  5  2 -1</clus>
<clus scale="   26.064">  2  5  1 -1</clus>
</clustering>
</event>
<event>
 9    1  0.9171696E-005  0.1119373E+03  0.7546771E-02  0.1261930E+00
         21   -1    0    0  501  502  0.00000000000E+00  0.00000000000E+00  0.16151287355E+03  0.16151287355E+03  0.00000000000E+00 0. -1.
          1   -1    0    0  502    0 -0.00000000000E+00 -0.00000000000E+00 -0.32119469445E+03  0.32119469445E+03  0.00000000000E+00 0. -1.
        -24    2    1    2    0    0  0.21620510100E+02  0.60052139765E+02 -0.26130830564E+03  0.28056017037E+03  0.79738777597E+02 0.  0.
         23    2    1    2    0    0 -0.68748478677E+02 -0.31094186826E+02  0.67104044330E+02  0.13694458058E+03  0.92507640821E+02 0.  0.
         11    1    3    3    0    0  0.57165337277E+01  0.77760690977E+02 -0.20973995674E+03  0.22376383370E+03  0.00000000000E+00 0. -1.
        -12    1    3    3    0    0  0.15903976372E+02 -0.17708551212E+02 -0.51568348901E+02  0.56796336667E+02  0.00000000000E+00 0.  1.
        -11    1    4    4    0    0  0.42301122421E+01 -0.44509941749E+02  0.31146335210E+02  0.54489659213E+02  0.00000000000E+00 0.  1.
         11    1    4    4    0    0 -0.72978590919E+02  0.13415754923E+02  0.35957709120E+02  0.82454921369E+02  0.00000000000E+00 0. -1.
          2    1    1    2  501    0  0.47127968577E+02 -0.28957952939E+02  0.34522440408E+02  0.65202817058E+02  0.00000000000E+00 0. -1.
<scales pt_clust_5="13000.00000" pt_clust_6="13000.00000" pt_clust_7="13000.00000" pt_clust_8="13000.00000" pt_clust_9="55.31373"></scales>
<clustering>
<clus scale="   55.314">  1  9  2 -1</clus>
<clus scale="   79.739">  5  6 -1 -1</clus>
<clus scale="   92.508">  7  8 -1 -1</clus>
<clus scale="  101.639">  2  5  1 -1</clus>
<clus scale="   55.314">  1  5  2 -1</clus>
</clustering>
</event>
<event>
 9    1  0.9171696E-005  0.2054556E+03  0.7546771E-02  0.1146135E+00
         21   -1    0    0  501  502  0.00000000000E+00  0.00000000000E+00  0.19254353283E+03  0.19254353283E+03  0.00000000000E+00 0. -1.
          1   -1    0    0  502    0 -0.00000000000E+00 -0.00000000000E+00 -0.54689451759E+03  0.54689451759E+03  0.00000000000E+00 0. -1.
         23    2    1    2    0    0 -0.16303118076E+03  0.12693760247E+03 -0.29710087293E+03  0.37339647692E+03  0.91998257934E+02 0.  0.
        -24    2    1    2    0    0  0.17832366447E+03  0.17131318257E+02 -0.91666775906E+02  0.21713146388E+03  0.81550373564E+02 0.  0.
         13    1    4    4    0    0  0.82542011338E+02  0.42654236598E+02 -0.20610279142E+02  0.95170116853E+02  0.00000000000E+00 0. -1.
        -14    1    4    4    0    0  0.95781653131E+02 -0.25522918342E+02 -0.71056496764E+02  0.12196134703E+03  0.00000000000E+00 0.  1.
        -11    1    3    3    0    0 -0.10751623957E+03  0.26969905604E+02 -0.16363528340E+03  0.19764519613E+03  0.00000000000E+00 0.  1.
         11    1    3    3    0    0 -0.55514941184E+02  0.99967696869E+02 -0.13346558953E+03  0.17575128079E+03  0.00000000000E+00 0. -1.
          2    1    1    2  501    0 -0.15292483714E+02 -0.14406892073E+03  0.34416664078E+02  0.14891010961E+03  0.00000000000E+00 0. -1.
<scales pt_clust_5="13000.00000" pt_clust_6="13000.00000" pt_clust_7="13000.00000" pt_clust_8="13000.00000" pt_clust_9="144.87827"></scales>
<clustering>
<clus scale="   81.550">  5  6 -1 -1</clus>
<clus scale="   91.998">  7  8 -1 -1</clus>
<clus scale="  144.878">  1  9  2 -1</clus>
<clus scale="  200.995">  1  5  2 -1</clus>
<clus scale="  144.878">  1  5  2 -1</clus>
</clustering>
</event>
<event>
 9    1  0.9171696E-005  0.1392242E+03  0.7546771E-02  0.1216173E+00
          3   -1    0    0  502    0 -0.00000000000E+00  0.00000000000E+00  0.20788989737E+03  0.20788989737E+03  0.00000000000E+00 0. -1.
         21   -1    0    0  501  502  0.00000000000E+00 -0.00000000000E+00 -0.16929866599E+03  0.16929866599E+03  0.00000000000E+00 0. -1.
         23    2    1    2    0    0 -0.10347443571E+03  0.39917702289E+02  0.10138191045E+03  0.17478167628E+03  0.89274636910E+02 0.  0.
        -24    2    1    2    0    0  0.10591264729E+03  0.11835060086E+02 -0.20198356297E+02  0.13533678012E+03  0.80935239239E+02 0.  0.
         13    1    4    4    0    0  0.11424777791E+03 -0.57047725327E+01 -0.16645177960E+02  0.11559481449E+03  0.00000000000E+00 0. -1.
        -14    1    4    4    0    0 -0.83351306136E+01  0.17539832619E+02 -0.35531783369E+01  0.19741965630E+02  0.00000000000E+00 0.  1.
        -13    1    3    3    0    0 -0.45045572077E+02 -0.74248858084E+01 -0.34304831436E+01  0.45782100297E+02  0.00000000000E+00 0.  1.
         13    1    3    3    0    0 -0.58428863634E+02  0.47342588098E+02  0.10481239359E+03  0.12899957598E+03  0.00000000000E+00 0. -1.
          4    1    1    2  501    0 -0.24382115836E+01 -0.51752762375E+02 -0.42592322775E+02  0.67070106967E+02  0.00000000000E+00 0. -1.
<scales pt_clust_5="13000.00000" pt_clust_6="13000.00000" pt_clust_7="13000.00000" pt_clust_8="13000.00000" pt_clust_9="51.81017"></scales>
<clustering>
<clus scale="   51.810">  2  9  1 -1</clus>
<clus scale="   80.935">  5  6 -1 -1</clus>
<clus scale="   89.275">  7  8 -1 -1</clus>
<clus scale="  134.030">  2  5  1 -1</clus>
<clus scale="   51.810">  2  5  1 -1</clus>
</clustering>
</event>
<event>
 9    1  0.9171696E-005  0.1359365E+03  0.7546771E-02  0.1221715E+00
          3   -1    0    0  502    0 -0.00000000000E+00  0.00000000000E+00  0.39285165563E+03  0.39285165563E+03  0.00000000000E+00 0. -1.
         21   -1    0    0  501  502  0.00000000000E+00 -0.00000000000E+00 -0.10285782637E+03  0.10285782637E+03  0.00000000000E+00 0.  1.
        -24    2    1    2    0    0  0.34483780014E+02 -0.95417277320E+02  0.31361772854E+03  0.33962168424E+03  0.81812107038E+02 0.  0.
         23    2    1    2    0    0 -0.89122967861E+01  0.84588036772E+02 -0.17315811674E+02  0.12761034747E+03  0.93541426377E+02 0.  0.
         11    1    3    3    0    0 -0.11405169969E+01 -0.80531956476E+02  0.13776421236E+03  0.15957968229E+03  0.00000000000E+00 0. -1.
        -12    1    3    3    0    0  0.35624297011E+02 -0.14885320845E+02  0.17585351618E+03  0.18004200195E+03  0.00000000000E+00 0.  1.
        -13    1    4    4    0    0 -0.44130107800E+02  0.71984638914E+02 -0.27575437564E+02  0.88823754766E+02  0.00000000000E+00 0.  1.
         13    1    4    4    0    0  0.35217811014E+02  0.12603397858E+02  0.10259625889E+02  0.38786592704E+02  0.00000000000E+00 0. -1.
          4    1    1    2  501    0 -0.25571483228E+02  0.10829240548E+02 -0.63080876100E+01  0.28477450283E+02  0.00000000000E+00 0. -1.
<scales pt_clust_5="13000.00000" pt_clust_6="13000.00000" pt_clust_7="13000.00000" pt_clust_8="13000.00000" pt_clust_9="27.77001"></scales>
<clustering>
<clus scale="   27.770">  2  9  1 -1</clus>
<clus scale="   81.812">  5  6 -1 -1</clus>
<clus scale="   93.541">  7  8 -1 -1</clus>
<clus scale="  128.148">  1  5  2 -1</clus>
<clus scale="   27.770">  2  5  1 -1</clus>
</clustering>
</event>
<event>
 9    1  0.9171696E-005  0.1162078E+03  0.7546771E-02  0.1268845E+00
          3   -1    0    0  502    0 -0.00000000000E+00  0.00000000000E+00  0.72542173583E+03  0.72542173583E+03  0.00000000000E+00 0. -1.
         21   -1    0    0  501  502  0.00000000000E+00 -0.00000000000E+00 -0.41727154977E+02  0.41727154977E+02  0.00000000000E+00 0. -1.
        -24    2    1    2    0    0 -0.80688601924E+00  0.10082145546E+02  0.44665896515E+03  0.45365955326E+03  0.78742989491E+02 0.  0.
         23    2    1    2    0    0  0.64173335191E+02  0.45609409745E+02  0.97375271370E+02  0.15032724639E+03  0.83173928157E+02 0.  0.
         11    1    3    3    0    0  0.15028581855E+02 -0.25015988284E+02  0.83260248998E+02  0.88226566326E+02  0.00000000000E+00 0. -1.
        -12    1    3    3    0    0 -0.15835467874E+02  0.35098133829E+02  0.36339871615E+03  0.36543298694E+03  0.00000000000E+00 0.  1.
        -13    1    4    4    0    0 -0.18868019711E+01  0.46491994606E+02  0.26982192569E+02  0.53787584998E+02  0.00000000000E+00 0. -1.
         13    1    4    4    0    0  0.66060137162E+02 -0.88258486129E+00  0.70393078801E+02  0.96539661389E+02  0.00000000000E+00 0.  1.
          4    1    1    2  501    0 -0.63366449172E+02 -0.55691555290E+02  0.13966034433E+03  0.16316209116E+03  0.00000000000E+00 0. -1.
<scales pt_clust_5="13000.00000" pt_clust_6="13000.00000" pt_clust_7="13000.00000" pt_clust_8="13000.00000" pt_clust_9="81.15637"></scales>
<clustering>
<clus scale="   78.743">  5  6 -1 -1</clus>
<clus scale="   79.390">  1  5  2 -1</clus>
<clus scale="   81.156">  2  9  1 -1</clus>
<clus scale="   83.174">  7  8 -1 -1</clus>
<clus scale="   81.156">  2  5  1 -1</clus>
</clustering>
</event>
<event>
 9    1  0.9171696E-005  0.1800112E+03  0.7546771E-02  0.1172135E+00
         21   -1    0    0  501  502  0.00000000000E+00  0.00000000000E+00  0.74966167221E+02  0.74966167221E+02  0.00000000000E+00 0. -1.
          1   -1    0    0  502    0 -0.00000000000E+00 -0.00000000000E+00 -0.70387793386E+03  0.70387793386E+03  0.00000000000E+00 0. -1.
         23    2    1    2    0    0 -0.77862322450E+02 -0.10590626867E+03 -0.39623500498E+03  0.43192250488E+03  0.11079797856E+03 0.  0.
        -24    2    1    2    0    0  0.61014512540E+02  0.15090412748E+03 -0.23720383974E+03  0.29866032360E+03  0.80234038136E+02 0.  0.
         13    1    4    4    0    0  0.93036999647E+01  0.47372392949E+02 -0.13810786584E+03  0.14630271718E+03  0.00000000000E+00 0. -1.
        -14    1    4    4    0    0  0.51710812575E+02  0.10353173453E+03 -0.99095973903E+02  0.15235760643E+03  0.00000000000E+00 0.  1.
        -11    1    3    3    0    0 -0.35987006906E+02  0.12467293209E+02 -0.15911728004E+03  0.16361175653E+03  0.00000000000E+00 0.  1.
         11    1    3    3    0    0 -0.41875315543E+02 -0.11837356188E+03 -0.23711772494E+03  0.26831074835E+03  0.00000000000E+00 0. -1.
          2    1    1    2  501    0  0.16847809910E+02 -0.44997858812E+02  0.45270780841E+01  0.48261272595E+02  0.00000000000E+00 0. -1.
<scales pt_clust_5="13000.00000" pt_clust_6="13000.00000" pt_clust_7="13000.00000" pt_clust_8="13000.00000" pt_clust_9="48.04848"></scales>
<clustering>
<clus scale="   48.048">  1  9  2 -1</clus>
<clus scale="   80.234">  5  6 -1 -1</clus>
<clus scale="  110.798">  7  8 -1 -1</clus>
<clus scale="  162.989">  1  5  2 -1</clus>
<clus scale="   48.048">  1  5  2 -1</clus>
</clustering>
</event>
<event>
 9    1  0.9171696E-005  0.1361196E+03  0.7546771E-02  0.1221076E+00
          3   -1    0    0  502    0 -0.00000000000E+00  0.00000000000E+00  0.88356371405E+03  0.88356371405E+03  0.00000000000E+00 0. -1.
         21   -1    0    0  501  502  0.00000000000E+00 -0.00000000000E+00 -0.49912437579E+02  0.49912437579E+02  0.00000000000E+00 0. -1.
        -24    2    1    2    0    0  0.64642541823E+02  0.85096427599E+02  0.55774164947E+03  0.57339832360E+03  0.79308446899E+02 0.  0.
         23    2    1    2    0    0  0.16283371095E+02 -0.11245295822E+03  0.18970753596E+03  0.23871809975E+03  0.89925335480E+02 0.  0.
         13    1    3    3    0    0  0.54679279485E+02  0.90532267386E+02  0.54893978941E+03  0.55903560481E+03  0.00000000000E+00 0. -1.
        -14    1    3    3    0    0  0.99632623374E+01 -0.54358397867E+01  0.88018600566E+01  0.14362718790E+02  0.00000000000E+00 0.  1.
        -13    1    4    4    0    0  0.32454893526E+02 -0.16877716313E+02  0.16281826815E+02  0.40040920396E+02  0.00000000000E+00 0.  1.
         13    1    4    4    0    0 -0.16171522432E+02 -0.95575241904E+02  0.17342570914E+03  0.19867717935E+03  0.00000000000E+00 0. -1.
          4    1    1    2  501    0 -0.80925912918E+02  0.27356530618E+02  0.86202091049E+02  0.12135972829E+03  0.00000000000E+00 0. -1.
<scales pt_clust_5="13000.00000" pt_clust_6="13000.00000" pt_clust_7="13000.00000" pt_clust_8="13000.00000" pt_clust_9="85.42472"></scales>
<clustering>
<clus scale="   79.308">  5  6 -1 -1</clus>
<clus scale="   85.425">  2  9  1 -1</clus>
<clus scale="   89.925">  7  8 -1 -1</clus>
<clus scale="  129.351">  1  5  2 -1</clus>
<clus scale="   85.425">  2  5  1 -1</clus>
</clustering>
</event>
<event>
 9    1  0.9171696E-005  0.2751429E+03  0.7546771E-02  0.1142014E+00
         21   -1    0    0  501  502  0.00000000000E+00  0.00000000000E+00  0.11823503654E+03  0.11823503654E+03  0.00000000000E+00 0. -1.
          1   -1    0    0  502    0 -0.00000000000E+00 -0.00000000000E+00 -0.91178101317E+03  0.91178101317E+03  0.00000000000E+00 0. -1.
        -24    2    1    2    0    0 -0.21990602768E+02 -0.48658122075E+02 -0.19883335770E+03  0.21924103808E+03  0.75370612249E+02 0.  0.
         23    2    1    2    0    0  0.15264423238E+03 -0.20146521685E+03 -0.23508713487E+03  0.35365080051E+03  0.76905347297E+02 0.  0.
         13    1    3    3    0    0 -0.12232445201E+02 -0.66486498169E+02 -0.17670737326E+03  0.18919720642E+03  0.00000000000E+00 0. -1.
        -14    1    3    3    0    0 -0.97581575672E+01  0.17828376094E+02 -0.22125984446E+02  0.30043831663E+02  0.00000000000E+00 0.  1.
        -13    1    4    4    0    0  0.14925717671E+03 -0.14665765961E+03 -0.18373756603E+03  0.27847022658E+03  0.00000000000E+00 0. -1.
         13    1    4    4    0    0  0.33870556688E+01 -0.54807557234E+02 -0.51349568840E+02  0.75180573928E+02  0.00000000000E+00 0.  1.
          2    1    1    2  501    0 -0.13065362961E+03  0.25012333892E+03 -0.35962548406E+03  0.45712421112E+03  0.00000000000E+00 0. -1.
<scales pt_clust_5="13000.00000" pt_clust_6="13000.00000" pt_clust_7="13000.00000" pt_clust_8="13000.00000" pt_clust_9="264.17659"></scales>
<clustering>
<clus scale="   75.371">  5  6 -1 -1</clus>
<clus scale="   76.905">  7  8 -1 -1</clus>
<clus scale="   92.368">  2  5  1 -1</clus>
<clus scale="  264.177">  1  9  2 -1</clus>
<clus scale="  264.177">  1  5  2 -1</clus>
</clustering>
</event>
<event>
 9    1  0.9171696E-005  0.1100114E+03  0.7546771E-02  0.1266346E+00
         21   -1    0    0  501  502  0.00000000000E+00  0.00000000000E+00  0.19436115572E+03  0.19436115572E+03  0.00000000000E+00 0. -1.
         -4   -1    0    0    0  501 -0.00000000000E+00 -0.00000000000E+00 -0.26346567916E+03  0.26346567916E+03  0.00000000000E+00 0.  1.
        -24    2    1    2    0    0 -0.17133901533E+02 -0.61130560041E+02 -0.18095973226E+03  0.20666702732E+03  0.77034534649E+02 0.  0.
         23    2    1    2    0    0 -0.66034103171E+01  0.55597069810E+02 -0.26586221080E+02  0.11058915271E+03  0.91588723907E+02 0.  0.
         13    1    3    3    0    0 -0.38162904107E+02 -0.67746023805E+02 -0.14282051626E+03  0.16261497734E+03  0.00000000000E+00 0. -1.
        -14    1    3    3    0    0  0.21029002574E+02  0.66154637639E+01 -0.38139216003E+02  0.44052049980E+02  0.00000000000E+00 0.  1.
        -11    1    4    4    0    0 -0.45701027928E+02  0.47454935874E+02 -0.74439769442E+01  0.66302094124E+02  0.00000000000E+00 0. -1.
         11    1    4    4    0    0  0.39097617611E+02  0.81421339365E+01 -0.19142244136E+02  0.44287058589E+02  0.00000000000E+00 0.  1.
         -3    1    1    2    0  502  0.23737311850E+02  0.55334902308E+01  0.13844142991E+03  0.14057065484E+03  0.00000000000E+00 0.  1.
<scales pt_clust_5="13000.00000" pt_clust_6="13000.00000" pt_clust_7="13000.00000" pt_clust_8="13000.00000" pt_clust_9="24.37375"></scales>
<clustering>
<clus scale="   24.374">  1  9  2 -1</clus>
<clus scale="   77.035">  5  6 -1 -1</clus>
<clus scale="   91.589">  7  8 -1 -1</clus>
<clus scale="   98.226">  2  5  1 -1</clus>
<clus scale="   24.374">  1  5  2 -1</clus>
</clustering>
</event>
<event>
 9    1  0.9171696E-005  0.1323470E+03  0.7546771E-02  0.1225210E+00
          1   -1    0    0  502    0 -0.00000000000E+00  0.00000000000E+00  0.58041742891E+03  0.58041742891E+03  0.00000000000E+00 0. -1.
         21   -1    0    0  501  502  0.00000000000E+00 -0.00000000000E+00 -0.87934285220E+02  0.87934285220E+02  0.00000000000E+00 0.  1.
        -24    2    1    2    0    0  0.95090643575E+01  0.10212052415E+03  0.29197375415E+03  0.32170498145E+03  0.87899932976E+02 0.  0.
         23    2    1    2    0    0  0.63912649072E+02 -0.61068161762E+02 -0.12672928397E+01  0.12803778041E+03  0.92617061545E+02 0.  0.
         11    1    3    3    0    0 -0.64993829049E+01  0.11299468321E+03  0.26782839688E+03  0.29076122607E+03  0.00000000000E+00 0. -1.
        -12    1    3    3    0    0  0.16008447262E+02 -0.10874159059E+02  0.24145357276E+02  0.30943755379E+02  0.00000000000E+00 0.  1.
        -11    1    4    4    0    0  0.44983882942E+02 -0.84817604445E+02 -0.97591725238E+01  0.96502938798E+02  0.00000000000E+00 0.  1.
         11    1    4    4    0    0  0.18928766130E+02  0.23749442684E+02  0.84918796840E+01  0.31534841613E+02  0.00000000000E+00 0. -1.
          2    1    1    2  501    0 -0.73421713429E+02 -0.41052362391E+02  0.20177668238E+03  0.21860895227E+03  0.00000000000E+00 0. -1.
<scales pt_clust_5="13000.00000" pt_clust_6="13000.00000" pt_clust_7="13000.00000" pt_clust_8="13000.00000" pt_clust_9="84.11927"></scales>
<clustering>
<clus scale="   84.119">  2  9  1 -1</clus>
<clus scale="   87.900">  5  6 -1 -1</clus>
<clus scale="   92.617">  7  8 -1 -1</clus>
<clus scale="  129.090">  1  5  2 -1</clus>
<clus scale="   84.119">  2  5  1 -1</clus>
</clustering>
</event>
<event>
 9    1  0.9171696E-005  0.1088597E+03  0.7546771E-02  0.1266420E+00
          1   -1    0    0  502    0 -0.00000000000E+00  0.00000000000E+00  0.49405098900E+03  0.49405098900E+03  0.00000000000E+00 0. -1.
         21   -1    0    0  501  502  0.00000000000E+00 -0.00000000000E+00 -0.59119627787E+02  0.59119627787E+02  0.00000000000E+00 0. -1.
        -24    2    1    2    0    0 -0.36111091387E+02 -0.64785678951E+02  0.26997330239E+03  0.29164970625E+03  0.81687037137E+02 0.  0.
         23    2    1    2    0    0 -0.97147325052E+01  0.11724979683E+02  0.11683181415E+02  0.92972306307E+02  0.90969785291E+02 0.  0.
         11    1    3    3    0    0 -0.55897601066E+02 -0.30329235147E+02  0.21225281575E+03  0.22157540952E+03  0.00000000000E+00 0. -1.
        -12    1    3    3    0    0  0.19786509679E+02 -0.34456443804E+02  0.57720486636E+02  0.70074296731E+02  0.00000000000E+00 0.  1.
        -11    1    4    4    0    0  0.16234506875E+02  0.25890693378E+02 -0.29367938980E+02  0.42383523414E+02  0.00000000000E+00 0. -1.
         11    1    4    4    0    0 -0.25949239380E+02 -0.14165713695E+02  0.41051120395E+02  0.50588782893E+02  0.00000000000E+00 0.  1.
          2    1    1    2  501    0  0.45825823892E+02  0.53060699268E+02  0.15327487741E+03  0.16854860423E+03  0.00000000000E+00 0. -1.
<scales pt_clust_5="13000.00000" pt_clust_6="13000.00000" pt_clust_7="13000.00000" pt_clust_8="13000.00000" pt_clust_9="70.11026"></scales>
<clustering>
<clus scale="   70.110">  2  9  1 -1</clus>
<clus scale="   81.687">  5  6 -1 -1</clus>
<clus scale="   90.970">  7  8 -1 -1</clus>
<clus scale="  101.231">  1  5  2 -1</clus>
<clus scale="   70.110">  2  5  1 -1</clus>
</clustering>
</event>
<event>
 9    1  0.9171696E-005  0.2617799E+03  0.7546771E-02  0.1116069E+00
          3   -1    0    0  502    0 -0.00000000000E+00  0.00000000000E+00  0.19201476944E+03  0.19201476944E+03  0.00000000000E+00 0. -1.
         21   -1    0    0  501  502  0.00000000000E+00 -0.00000000000E+00 -0.83173642798E+03  0.83173642798E+03  0.00000000000E+00 0. -1.
        -24    2    1    2    0    0  0.29239474418E+02  0.18342663981E+03 -0.19418628649E+03  0.28096941930E+03  0.82068396260E+02 0.  0.
         23    2    1    2    0    0  0.19746390193E+03  0.65725076697E+02 -0.28449993944E+03  0.36941411851E+03  0.11052057341E+03 0.  0.
         11    1    3    3    0    0 -0.20105242698E+02  0.12491265737E+03 -0.12162598059E+03  0.17550006242E+03  0.00000000000E+00 0. -1.
        -12    1    3    3    0    0  0.49344717117E+02  0.58513982442E+02 -0.72560305895E+02  0.10546935688E+03  0.00000000000E+00 0.  1.
        -13    1    4    4    0    0  0.29158429935E+02 -0.28143864847E+02 -0.71403593212E+02  0.82102157635E+02  0.00000000000E+00 0.  1.
         13    1    4    4    0    0  0.16830547199E+03  0.93868941544E+02 -0.21309634623E+03  0.28731196088E+03  0.00000000000E+00 0. -1.
          4    1    1    2  501    0 -0.22670337634E+03 -0.24915171651E+03 -0.16103543261E+03  0.37336765960E+03  0.00000000000E+00 0. -1.
<scales pt_clust_5="13000.00000" pt_clust_6="13000.00000" pt_clust_7="13000.00000" pt_clust_8="13000.00000" pt_clust_9="237.30563"></scales>
<clustering>
<clus scale="   82.068">  5  6 -1 -1</clus>
<clus scale="  110.521">  7  8 -1 -1</clus>
<clus scale="  203.065">  1  5  2 -1</clus>
<clus scale="  237.306">  2  9  1 -1</clus>
<clus scale="  237.306">  2  5  1 -1</clus>
</clustering>
</event>
<event>
 9    1  0.9171696E-005  0.2642063E+03  0.7546771E-02  0.1143246E+00
         21   -1    0    0  501  502  0.00000000000E+00  0.00000000000E+00  0.22363367641E+03  0.22363367641E+03  0.00000000000E+00 0. -1.
          1   -1    0    0  502    0 -0.00000000000E+00 -0.00000000000E+00 -0.45104646490E+03  0.45104646490E+03  0.00000000000E+00 0. -1.
         23    2    1    2    0    0 -0.17040587889E+02  0.34524173969E+02  0.15780302189E+02  0.10250257591E+03  0.93677424742E+02 0.  0.
        -24    2    1    2    0    0  0.24336926146E+03  0.72066986696E+02 -0.10615150635E+03  0.28692900739E+03  0.81473093639E+02 0.  0.
         11    1    4    4    0    0  0.17527362694E+03  0.79385300829E+02 -0.10328353870E+03  0.21838122551E+03  0.00000000000E+00 0. -1.
        -12    1    4    4    0    0  0.68095634523E+02 -0.73183141330E+01 -0.28679676488E+01  0.68547781884E+02  0.00000000000E+00 0.  1.
        -11    1    3    3    0    0  0.35579200994E+02 -0.39959590597E+01  0.20568493989E+01  0.35861927746E+02  0.00000000000E+00 0. -1.
         11    1    3    3    0    0 -0.52619788883E+02  0.38520133028E+02  0.13723452791E+02  0.66640648160E+02  0.00000000000E+00 0.  1.
          2    1    1    2  501    0 -0.22632867357E+03 -0.10659116066E+03 -0.13704158433E+03  0.28524855801E+03  0.00000000000E+00 0. -1.
<scales pt_clust_5="13000.00000" pt_clust_6="13000.00000" pt_clust_7="13000.00000" pt_clust_8="13000.00000" pt_clust_9="251.33075"></scales>
<clustering>
<clus scale="   81.473">  5  6 -1 -1</clus>
<clus scale="   93.677">  7  8 -1 -1</clus>
<clus scale="  101.281">  2  7  1 -1</clus>
<clus scale="  251.331">  1  9  2 -1</clus>
<clus scale="  251.331">  1  5  2 -1</clus>
</clustering>
</event>
<event>
 9    1  0.9171696E-005  0.2647845E+03  0.7546771E-02  0.1147991E+00
          1   -1    0    0  502    0 -0.00000000000E+00  0.00000000000E+00  0.32842915647E+03  0.32842915647E+03  0.00000000000E+00 0. -1.
         21   -1    0    0  501  502  0.00000000000E+00 -0.00000000000E+00 -0.14293571818E+04  0.14293571818E+04  0.00000000000E+00 0.  1.
         23    2    1    2    0    0  0.89131249529E+00 -0.21775195138E+01  0.27215095491E+03  0.28659565064E+03  0.89807509017E+02 0.  0.
        -24    2    1    2    0    0  0.19158529399E+03  0.16445751697E+03 -0.85559802120E+03  0.89571819951E+03  0.80696463995E+02 0.  0.
         13    1    4    4    0    0  0.48972655938E+02  0.76800565815E+02 -0.21267314077E+03  0.23135797532E+03  0.00000000000E+00 0. -1.
        -14    1    4    4    0    0  0.14261263805E+03  0.87656951159E+02 -0.64292488043E+03  0.66436022419E+03  0.00000000000E+00 0.  1.
        -13    1    3    3    0    0  0.31090590485E+02  0.22817439902E+02  0.63494904934E+02  0.74289052578E+02  0.00000000000E+00 0.  1.
         13    1    3    3    0    0 -0.30199277990E+02 -0.24994959416E+02  0.20865604998E+03  0.21230659806E+03  0.00000000000E+00 0. -1.
          2    1    1    2  501    0 -0.19247660648E+03 -0.16227999746E+03 -0.51748095909E+03  0.57547248816E+03  0.00000000000E+00 0. -1.
<scales pt_clust_5="13000.00000" pt_clust_6="13000.00000" pt_clust_7="13000.00000" pt_clust_8="13000.00000" pt_clust_9="252.18836"></scales>
<clustering>
<clus scale="   80.696">  5  6 -1 -1</clus>
<clus scale="   89.808">  7  8 -1 -1</clus>
<clus scale="   89.838">  1  7  2 -1</clus>
<clus scale="  252.188">  2  9  1 -1</clus>
<clus scale="  252.188">  2  5  1 -1</clus>
</clustering>
</event>
<event>
 9    1  0.9171696E-005  0.1201709E+03  0.7546771E-02  0.1253482E+00
          1   -1    0    0  502    0 -0.00000000000E+00  0.00000000000E+00  0.10398684609E+03  0.10398684609E+03  0.00000000000E+00 0. -1.
         21   -1    0    0  501  502  0.00000000000E+00 -0.00000000000E+00 -0.30699624998E+03  0.30699624998E+03  0.00000000000E+00 0. -1.
         23    2    1    2    0    0 -0.24071641697E+02  0.68693524385E+01 -0.51509139618E+01  0.97181222596E+02  0.93760472341E+02 0.  0.
        -24    2    1    2    0    0 -0.80651933139E+02  0.12260762282E+02 -0.16772178433E+03  0.20316187420E+03  0.80554885499E+02 0.  0.
         13    1    4    4    0    0 -0.65521652150E+02  0.25861641692E+01 -0.45942562579E+02  0.80065561897E+02  0.00000000000E+00 0. -1.
        -14    1    4    4    0    0 -0.15130280989E+02  0.96745981123E+01 -0.12177922175E+03  0.12309631230E+03  0.00000000000E+00 0.  1.
        -13    1    3    3    0    0 -0.44170564667E+02 -0.63473052482E+01  0.30587678039E+02  0.54101137833E+02  0.00000000000E+00 0.  1.
         13    1    3    3    0    0  0.20098922970E+02  0.13216657687E+02 -0.35738592001E+02  0.43080084763E+02  0.00000000000E+00 0. -1.
          2    1    1    2  501    0  0.10472357484E+03 -0.19130114720E+02 -0.30136705588E+02  0.11063999927E+03  0.00000000000E+00 0. -1.
<scales pt_clust_5="13000.00000" pt_clust_6="13000.00000" pt_clust_7="13000.00000" pt_clust_8="13000.00000" pt_clust_9="89.17379"></scales>
<clustering>
<clus scale="   80.555">  5  6 -1 -1</clus>
<clus scale="   93.760">  7  8 -1 -1</clus>
<clus scale="   97.045">  1  7  2 -1</clus>
<clus scale="   89.174">  2  9  1 -1</clus>
<clus scale="   89.174">  2  5  1 -1</clus>
</clustering>
</event>
<event>
 9    1  0.9171696E-005  0.9268610E+02  0.7546771E-02  0.1302668E+00
          3   -1    0    0  502    0 -0.00000000000E+00  0.00000000000E+00  0.41805143960E+03  0.41805143960E+03  0.00000000000E+00 0. -1.
         21   -1    0    0  501  502  0.00000000000E+00 -0.00000000000E+00 -0.43802496215E+02  0.43802496215E+02  0.00000000000E+00 0.  1.
        -24    2    1    2    0    0  0.12852966239E+02  0.25787267781E+01  0.29103502838E+03  0.30232241964E+03  0.80781242260E+02 0.  0.
         23    2    1    2    0    0 -0.43982859657E+02  0.66135538814E+01  0.49510094815E+02  0.11273925417E+03  0.90998125825E+02 0.  0.
         11    1    3    3    0    0 -0.67485583096E+01  0.35969586631E+02  0.82932182738E+02  0.90648227425E+02  0.00000000000E+00 0. -1.
        -12    1    3    3    0    0  0.19601524549E+02 -0.33390859853E+02  0.20810284564E+03  0.21167419222E+03  0.00000000000E+00 0.  1.
        -11    1    4    4    0    0 -0.33420412615E+02 -0.40611041082E+02  0.21445597752E+02  0.56798717416E+02  0.00000000000E+00 0.  1.
         11    1    4    4    0    0 -0.10562447042E+02  0.47224594963E+02  0.28064497063E+02  0.55940536754E+02  0.00000000000E+00 0. -1.
          4    1    1    2  501    0  0.31129893418E+02 -0.91922806595E+01  0.33703820189E+02  0.46792262002E+02  0.00000000000E+00 0. -1.
<scales pt_clust_5="13000.00000" pt_clust_6="13000.00000" pt_clust_7="13000.00000" pt_clust_8="13000.00000" pt_clust_9="32.45872"></scales>
<clustering>
<clus scale="   32.459">  2  9  1 -1</clus>
<clus scale="   80.781">  5  6 -1 -1</clus>
<clus scale="   82.678">  1  5  2 -1</clus>
<clus scale="   90.998">  7  8 -1 -1</clus>
<clus scale="   32.459">  2  5  1 -1</clus>
</clustering>
</event>
<event>
 9    1  0.9171696E-005  0.1640133E+03  0.7546771E-02  0.1185905E+00
         21   -1    0    0  501  502  0.00000000000E+00  0.00000000000E+00  0.12667397293E+03  0.12667397293E+03  0.00000000000E+00 0. -1.
          1   -1    0    0  502    0 -0.00000000000E+00 -0.00000000000E+00 -0.67800219687E+03  0.67800219687E+03  0.00000000000E+00 0. -1.
        -24    2    1    2    0    0  0.14676752222E+03 -0.37664844906E+02 -0.49083221971E+03  0.51995628925E+03  0.80491792760E+02 0.  0.
         23    2    1    2    0    0 -0.92765311166E+02  0.52242382650E+02 -0.13278750155E+03  0.19331526365E+03  0.91671157368E+02 0.  0.
         13    1    3    3    0    0  0.11964175768E+03 -0.37166435656E+02 -0.46805690626E+03  0.48453355056E+03  0.00000000000E+00 0. -1.
        -14    1    3    3    0    0  0.27125764538E+02 -0.49840924950E+00 -0.22775313459E+02  0.35422738696E+02  0.00000000000E+00 0.  1.
        -11    1    4    4    0    0 -0.92183680560E+02  0.11889004604E+02 -0.11827742953E+03  0.15042848709E+03  0.00000000000E+00 0.  1.
         11    1    4    4    0    0 -0.58163060642E+00  0.40353378046E+02 -0.14510072015E+02  0.42886776561E+02  0.00000000000E+00 0. -1.
          2    1    1    2  501    0 -0.54002211055E+02 -0.14577537744E+02  0.72291497320E+02  0.91404616898E+02  0.00000000000E+00 0. -1.
<scales pt_clust_5="13000.00000" pt_clust_6="13000.00000" pt_clust_7="13000.00000" pt_clust_8="13000.00000" pt_clust_9="55.93517"></scales>
<clustering>
<clus scale="   55.935">  1  9  2 -1</clus>
<clus scale="   80.492">  5  6 -1 -1</clus>
<clus scale="   91.671">  7  8 -1 -1</clus>
<clus scale="  158.037">  2  5  1 -1</clus>
<clus scale="   55.935">  1  5  2 -1</clus>
</clustering>
</event>
<event>
 9    1  0.9171696E-005  0.2519678E+03  0.7546771E-02  0.1112399E+00
         21   -1    0    0  501  502  0.00000000000E+00  0.00000000000E+00  0.71542449076E+02  0.71542449076E+02  0.00000000000E+00 0. -1.
          1   -1    0    0  502    0 -0.00000000000E+00 -0.00000000000E+00 -0.14627769049E+04  0.14627769049E+04  0.00000000000E+00 0. -1.
         23    2    1    2    0    0 -0.24267189075E+03  0.78641319737E+02 -0.10719730327E+04  0.11056273402E+04  0.90617486564E+02 0.  0.
        -24    2    1    2    0    0  0.18082459404E+03 -0.71509858439E+02 -0.29165103443E+03  0.36058709899E+03  0.84566757145E+02 0.  0.
         11    1    4    4    0    0  0.81009509715E+02  0.38840221958E+01 -0.15756158632E+03  0.17720970565E+03  0.00000000000E+00 0. -1.
        -12    1    4    4    0    0  0.99815084327E+02 -0.75393880635E+02 -0.13408944811E+03  0.18337739335E+03  0.00000000000E+00 0.  1.
        -13    1    3    3    0    0 -0.20481528903E+03  0.31022596876E+02 -0.88863413016E+03  0.91245949029E+03  0.00000000000E+00 0. -1.
         13    1    3    3    0    0 -0.37856601725E+02  0.47618722860E+02 -0.18333890252E+03  0.19316784991E+03  0.00000000000E+00 0.  1.
          2    1    1    2  501    0  0.61847296712E+02 -0.71314612975E+01 -0.27610388697E+02  0.68104914762E+02  0.00000000000E+00 0. -1.
<scales pt_clust_5="13000.00000" pt_clust_6="13000.00000" pt_clust_7="13000.00000" pt_clust_8="13000.00000" pt_clust_9="62.25709"></scales>
<clustering>
<clus scale="   62.257">  1  9  2 -1</clus>
<clus scale="   84.567">  5  6 -1 -1</clus>
<clus scale="   90.617">  7  8 -1 -1</clus>
<clus scale="  249.856">  1  5  2 -1</clus>
<clus scale="   62.257">  1  5  2 -1</clus>
</clustering>
</event>
<event>
 9    1  0.9171696E-005  0.2628926E+03  0.7546771E-02  0.1105938E+00
         21   -1    0    0  501  502  0.00000000000E+00  0.00000000000E+00  0.29436221822E+03  0.29436221822E+03  0.00000000000E+00 0.  1.
          1   -1    0    0  502    0 -0.00000000000E+00 -0.00000000000E+00 -0.44480917868E+03  0.44480917868E+03  0.00000000000E+00 0. -1.
        -24    2    1    2    0    0  0.24765229627E+03  0.39298617703E+02 -0.30600608598E+03  0.40398796249E+03  0.81795525438E+02 0.  0.
         23    2    1    2    0    0 -0.22221975296E+03 -0.61010778807E+02  0.94581257072E+02  0.26563825026E+03  0.92272054699E+02 0.  0.
         13    1    3    3    0    0  0.12120152626E+03  0.59465075118E+02 -0.17175550435E+03  0.21846248740E+03  0.00000000000E+00 0. -1.
        -14    1    3    3    0    0  0.12645077001E+03 -0.20166457415E+02 -0.13425058163E+03  0.18552547509E+03  0.00000000000E+00 0.  1.
        -11    1    4    4    0    0 -0.46316203990E+02 -0.17213450202E+02  0.65498673704E+02  0.82046144802E+02  0.00000000000E+00 0.  1.
         11    1    4    4    0    0 -0.17590354897E+03 -0.43797328605E+02  0.29082583367E+02  0.18359210546E+03  0.00000000000E+00 0. -1.
          2    1    1    2  501    0 -0.25432543313E+02  0.21712161105E+02  0.60977868436E+02  0.69545184148E+02  0.00000000000E+00 0. -1.
<scales pt_clust_5="13000.00000" pt_clust_6="13000.00000" pt_clust_7="13000.00000" pt_clust_8="13000.00000" pt_clust_9="33.43998"></scales>
<clustering>
<clus scale="   33.440">  1  9  2 -1</clus>
<clus scale="   81.796">  5  6 -1 -1</clus>
<clus scale="   92.272">  7  8 -1 -1</clus>
<clus scale="  259.401">  2  5  1 -1</clus>
<clus scale="   33.440">  1  5  2 -1</clus>
</clustering>
</event>
<event>
 9    1  0.9171696E-005  0.1775710E+03  0.7546771E-02  0.1197519E+00
         21   -1    0    0  501  502  0.00000000000E+00  0.00000000000E+00  0.12613962868E+04  0.12613962868E+04  0.00000000000E+00 0. -1.
          3   -1    0    0  502    0 -0.00000000000E+00 -0.00000000000E+00 -0.51501172198E+02  0.51501172198E+02  0.00000000000E+00 0. -1.
         23    2    1    2    0    0  0.24872845347E+02 -0.20986704818E+02  0.91573723421E+02  0.13297497165E+03  0.90760652540E+02 0.  0.
        -24    2    1    2    0    0  0.13114050443E+03  0.67597317064E+02  0.28461480437E+03  0.33046419680E+03  0.80210780607E+02 0.  0.
         13    1    4    4    0    0  0.11518872503E+03  0.50948281974E+02  0.15946176192E+03  0.20320488017E+03  0.00000000000E+00 0. -1.
        -14    1    4    4    0    0  0.15951779399E+02  0.16649035091E+02  0.12515304245E+03  0.12725931663E+03  0.00000000000E+00 0.  1.
        -13    1    3    3    0    0 -0.49812483692E+00 -0.26947311396E+02  0.10155249727E+03  0.10506814656E+03  0.00000000000E+00 0. -1.
         13    1    3    3    0    0  0.25370970184E+02  0.59606065774E+01 -0.99787738528E+01  0.27906825087E+02  0.00000000000E+00 0.  1.
          4    1    1    2  501    0 -0.15601334978E+03 -0.46610612246E+02  0.83370658681E+03  0.84945829054E+03  0.00000000000E+00 0. -1.
<scales pt_clust_5="13000.00000" pt_clust_6="13000.00000" pt_clust_7="13000.00000" pt_clust_8="13000.00000" pt_clust_9="158.42254"></scales>
<clustering>
<clus scale="   80.211">  5  6 -1 -1</clus>
<clus scale="   90.761">  7  8 -1 -1</clus>
<clus scale="   96.419">  2  7  1 -1</clus>
<clus scale="  158.423">  1  9  2 -1</clus>
<clus scale="  158.423">  1  5  2 -1</clus>
</clustering>
</event>
<event>
 9    1  0.9171696E-005  0.1053169E+03  0.7546771E-02  0.1274460E+00
         -2   -1    0    0    0  501 -0.00000000000E+00  0.00000000000E+00  0.22769320182E+03  0.22769320182E+03  0.00000000000E+00 0.  1.
         21   -1    0    0  501  502  0.00000000000E+00 -0.00000000000E+00 -0.12338337072E+03  0.12338337072E+03  0.00000000000E+00 0.  1.
         23    2    1    2    0    0 -0.20621027297E+01  0.52566801268E+02  0.16722162783E+03  0.19791209557E+03  0.91861874014E+02 0.  0.
        -24    2    1    2    0    0  0.40626045714E+02 -0.42029224335E+02 -0.42996094797E+02  0.10850069511E+03  0.80664771642E+02 0.  0.
         11    1    4    4    0    0 -0.21863611116E+02  0.29928192618E+01 -0.14369890237E+02  0.26333784452E+02  0.00000000000E+00 0. -1.
        -12    1    4    4    0    0  0.62489656829E+02 -0.45022043597E+02 -0.28626204559E+02  0.82166910662E+02  0.00000000000E+00 0.  1.
        -11    1    3    3    0    0  0.41705000248E+02  0.44334358640E+02  0.10552986628E+03  0.12182526453E+03  0.00000000000E+00 0.  1.
         11    1    3    3    0    0 -0.43767102978E+02  0.82324426282E+01  0.61691761552E+02  0.76086831043E+02  0.00000000000E+00 0. -1.
         -1    1    1    2    0  502 -0.38563942984E+02 -0.10537576933E+02 -0.19915701933E+02  0.44663781855E+02  0.00000000000E+00 0.  1.
<scales pt_clust_5="13000.00000" pt_clust_6="13000.00000" pt_clust_7="13000.00000" pt_clust_8="13000.00000" pt_clust_9="39.97772"></scales>
<clustering>
<clus scale="   39.978">  2  9  1 -1</clus>
<clus scale="   80.665">  5  6 -1 -1</clus>
<clus scale="   91.862">  7  8 -1 -1</clus>
<clus scale="   95.707">  2  5  1 -1</clus>
<clus scale="   39.978">  2  5  1 -1</clus>
</clustering>
</event>
<event>
 9    1  0.9171696E-005  0.1294873E+03  0.7546771E-02  0.1230414E+00
          1   -1    0    0  502    0 -0.00000000000E+00  0.00000000000E+00  0.86804540767E+03  0.86804540767E+03  0.00000000000E+00 0. -1.
         21   -1    0    0  501  502  0.00000000000E+00 -0.00000000000E+00 -0.78579997428E+02  0.78579997428E+02  0.00000000000E+00 0. -1.
        -24    2    1    2    0    0  0.90254640219E+02  0.15167620368E+02  0.74937097357E+03  0.75980668974E+03  0.85868463035E+02 0.  0.
         23    2    1    2    0    0 -0.75662583492E+02  0.27435359031E+02  0.60098654188E+02  0.13754285219E+03  0.93960962566E+02 0.  0.
         11    1    3    3    0    0  0.10019965394E+03  0.32623043752E+02  0.63536387342E+03  0.64404307719E+03  0.00000000000E+00 0. -1.
        -12    1    3    3    0    0 -0.99450137222E+01 -0.17455423384E+02  0.11400710015E+03  0.11576361254E+03  0.00000000000E+00 0.  1.
        -11    1    4    4    0    0 -0.72257225452E+02  0.58106470850E+02  0.42265969562E+02  0.10190132859E+03  0.00000000000E+00 0. -1.
         11    1    4    4    0    0 -0.34053580402E+01 -0.30671111818E+02  0.17832684626E+02  0.35641523600E+02  0.00000000000E+00 0.  1.
          2    1    1    2  501    0 -0.14592056727E+02 -0.42602979400E+02 -0.20004217519E+02  0.49275863177E+02  0.00000000000E+00 0. -1.
<scales pt_clust_5="13000.00000" pt_clust_6="13000.00000" pt_clust_7="13000.00000" pt_clust_8="13000.00000" pt_clust_9="45.03268"></scales>
<clustering>
<clus scale="   45.033">  2  9  1 -1</clus>
<clus scale="   85.868">  5  6 -1 -1</clus>
<clus scale="   93.961">  7  8 -1 -1</clus>
<clus scale="  123.740">  1  5  2 -1</clus>
<clus scale="   45.033">  2  5  1 -1</clus>
</clustering>
</event>
<event>
 9    1  0.9171696E-005  0.1036993E+03  0.7546771E-02  0.1274935E+00
         21   -1    0    0  501  502  0.00000000000E+00  0.00000000000E+00  0.24986666501E+02  0.24986666501E+02  0.00000000000E+00 0.  1.
          1   -1    0    0  502    0 -0.00000000000E+00 -0.00000000000E+00 -0.67383169988E+03  0.67383169988E+03  0.00000000000E+00 0. -1.
         23    2    1    2    0    0  0.46826954508E+02 -0.19986185962E+02 -0.46752827830E+03  0.47869504214E+03  0.89297486337E+02 0.  0.
        -24    2    1    2    0    0 -0.44362295465E+02  0.41014313169E+02 -0.15133363046E+03  0.18341849568E+03  0.84203858005E+02 0.  0.
         13    1    4    4    0    0 -0.47399741127E+02  0.32690876298E+02 -0.16059261408E+03  0.17060309654E+03  0.00000000000E+00 0. -1.
        -14    1    4    4    0    0  0.30374456623E+01  0.83234368704E+01  0.92589836139E+01  0.12815399137E+02  0.00000000000E+00 0.  1.
        -11    1    3    3    0    0  0.62427045100E+02  0.13457833752E+02 -0.33950980750E+03  0.34546368642E+03  0.00000000000E+00 0.  1.
         11    1    3    3    0    0 -0.15600090593E+02 -0.33444019714E+02 -0.12801847080E+03  0.13323135572E+03  0.00000000000E+00 0. -1.
          2    1    1    2  501    0 -0.24646590431E+01 -0.21028127207E+02 -0.29983124620E+02  0.36704828566E+02  0.00000000000E+00 0. -1.
<scales pt_clust_5="13000.00000" pt_clust_6="13000.00000" pt_clust_7="13000.00000" pt_clust_8="13000.00000" pt_clust_9="21.17207"></scales>
<clustering>
<clus scale="   21.172">  1  9  2 -1</clus>
<clus scale="   84.204">  5  6 -1 -1</clus>
<clus scale="   89.297">  7  8 -1 -1</clus>
<clus scale="   99.347">  1  5  2 -1</clus>
<clus scale="   21.172">  1  5  2 -1</clus>
</clustering>
</event>
<event>
 9    1  0.9171696E-005  0.9247365E+02  0.7546771E-02  0.1304087E+00
         21   -1    0    0  501  502  0.00000000000E+00  0.00000000000E+00  0.62583361843E+02  0.62583361843E+02  0.00000000000E+00 0.  1.
          1   -1    0    0  502    0 -0.00000000000E+00 -0.00000000000E+00 -0.50116482489E+03  0.50116482489E+03  0.00000000000E+00 0. -1.
         23    2    1    2    0    0  0.66666262471E+01 -0.21938557213E+02 -0.44609953711E+03  0.45571171326E+03  0.90236491504E+02 0.  0.
        -24    2    1    2    0    0  0.50981341394E+01  0.20002471847E+01 -0.94873951378E+01  0.79311366403E+02  0.78551194858E+02 0.  0.
         11    1    4    4    0    0  0.54814103548E+00 -0.38235904317E+02 -0.52218271056E+01  0.38594718756E+02  0.00000000000E+00 0. -1.
        -12    1    4    4    0    0  0.45499931040E+01  0.40236151502E+02 -0.42655680322E+01  0.40716647647E+02  0.00000000000E+00 0.  1.
        -11    1    3    3    0    0 -0.12555170159E+02  0.32391500856E+02 -0.19632770316E+03  0.19937755303E+03  0.00000000000E+00 0.  1.
         11    1    3    3    0    0  0.19221796407E+02 -0.54330058069E+02 -0.24977183395E+03  0.25633416023E+03  0.00000000000E+00 0. -1.
          2    1    1    2  501    0 -0.11764760387E+02  0.19938310029E+02  0.17005469195E+02  0.28725107072E+02  0.00000000000E+00 0. -1.
<scales pt_clust_5="13000.00000" pt_clust_6="13000.00000" pt_clust_7="13000.00000" pt_clust_8="13000.00000" pt_clust_9="23.15050"></scales>
<clustering>
<clus scale="   23.151">  1  9  2 -1</clus>
<clus scale="   78.551">  5  6 -1 -1</clus>
<clus scale="   81.111">  1  5  2 -1</clus>
<clus scale="   90.236">  7  8 -1 -1</clus>
<clus scale="   23.151">  1  5  2 -1</clus>
</clustering>
</event>
<event>
 9    1  0.9171696E-005  0.1161220E+03  0.7546771E-02  0.1254479E+00
          1   -1    0    0  502    0 -0.00000000000E+00  0.00000000000E+00  0.29325336466E+03  0.29325336466E+03  0.00000000000E+00 0. -1.
         21   -1    0    0  501  502  0.00000000000E+00 -0.00000000000E+00 -0.27428906081E+03  0.27428906081E+03  0.00000000000E+00 0.  1.
         23    2    1    2    0    0  0.53097002574E+02  0.67162934746E+01  0.17725522640E+03  0.20792817310E+03  0.94606075925E+02 0.  0.
        -24    2    1    2    0    0 -0.12311596592E+03 -0.68191752210E+02  0.14704545113E+02  0.16312171031E+03  0.81146858187E+02 0.  0.
         13    1    4    4    0    0 -0.36921933300E+02 -0.17076639046E+02  0.42798990931E+02  0.59047391005E+02  0.00000000000E+00 0. -1.
        -14    1    4    4    0    0 -0.86194032618E+02 -0.51115113164E+02 -0.28094445819E+02  0.10407431930E+03  0.00000000000E+00 0.  1.
        -13    1    3    3    0    0  0.37016723186E+02  0.28145134182E+02  0.17496519431E+03  0.18103923772E+03  0.00000000000E+00 0. -1.
         13    1    3    3    0    0  0.16080279389E+02 -0.21428840707E+02  0.22900320967E+01  0.26888935388E+02  0.00000000000E+00 0.  1.
          2    1    1    2  501    0  0.70018963344E+02  0.61475458735E+02 -0.17299546766E+03  0.19649254206E+03  0.00000000000E+00 0. -1.
<scales pt_clust_5="13000.00000" pt_clust_6="13000.00000" pt_clust_7="13000.00000" pt_clust_8="13000.00000" pt_clust_9="93.17665"></scales>
<clustering>
<clus scale="   81.147">  5  6 -1 -1</clus>
<clus scale="   93.177">  2  9  1 -1</clus>
<clus scale="   94.606">  7  8 -1 -1</clus>
<clus scale="  105.446">  2  5  1 -1</clus>
<clus scale="   93.177">  2  5  1 -1</clus>
</clustering>
</event>
<event>
 9    1  0.9171696E-005  0.2642115E+03  0.7546771E-02  0.1104639E+00
          1   -1    0    0  502    0 -0.00000000000E+00  0.00000000000E+00  0.20078800870E+03  0.20078800870E+03  0.00000000000E+00 0. -1.
         21   -1    0    0  501  502  0.00000000000E+00 -0.00000000000E+00 -0.74605504821E+03  0.74605504821E+03  0.00000000000E+00 0. -1.
        -24    2    1    2    0    0  0.13580553590E+02 -0.99118101856E+02  0.13126305966E+03  0.18401927665E+03  0.81389641827E+02 0.  0.
         23    2    1    2    0    0 -0.15185016159E+02 -0.23763163407E+02 -0.25705288046E+02  0.10049809419E+03  0.92972213331E+02 0.  0.
         13    1    3    3    0    0 -0.44988605252E+01 -0.77917232260E+02  0.13496986589E+03  0.15591087046E+03  0.00000000000E+00 0. -1.
        -14    1    3    3    0    0  0.18079414115E+02 -0.21200869596E+02 -0.37068062270E+01  0.28108406194E+02  0.00000000000E+00 0.  1.
        -13    1    4    4    0    0  0.88876653815E+01  0.31746382737E+02 -0.22490898920E+02  0.39908193984E+02  0.00000000000E+00 0.  1.
         13    1    4    4    0    0 -0.24072681540E+02 -0.55509546144E+02 -0.32143891260E+01  0.60589900207E+02  0.00000000000E+00 0. -1.
          2    1    1    2  501    0  0.16044625687E+01  0.12288126526E+03 -0.65082481112E+03  0.66232568607E+03  0.00000000000E+00 0. -1.
<scales pt_clust_5="13000.00000" pt_clust_6="13000.00000" pt_clust_7="13000.00000" pt_clust_8="13000.00000" pt_clust_9="122.89174"></scales>
<clustering>
<clus scale="   81.390">  5  6 -1 -1</clus>
<clus scale="   92.972">  7  8 -1 -1</clus>
<clus scale="   96.810">  5  7 -1 -1</clus>
<clus scale="  122.892">  2  9  1 -1</clus>
<clus scale="  122.892">  2  5  1 -1</clus>
</clustering>
</event>
<event>
 9    1  0.9171696E-005  0.1568724E+03  0.7546771E-02  0.1208773E+00
         21   -1    0    0  501  502  0.00000000000E+00  0.00000000000E+00  0.48549069794E+03  0.48549069794E+03  0.00000000000E+00 0.  1.
         -2   -1    0    0    0  501 -0.00000000000E+00 -0.00000000000E+00 -0.11856863272E+03  0.11856863272E+03  0.00000000000E+00 0.  1.
         23    2    1    2    0    0 -0.61301347887E+00 -0.42580262725E+02  0.10079124973E+03  0.14894298502E+03  0.10105286837E+03 0.  0.
        -24    2    1    2    0    0 -0.10326389975E+03 -0.51685608648E+02 -0.14996647067E+02  0.14093627337E+03  0.79393315809E+02 0.  0.
         11    1    4    4    0    0 -0.38800340005E+02 -0.63356319407E+02 -0.31334731454E+01  0.74359318496E+02  0.00000000000E+00 0. -1.
        -12    1    4    4    0    0 -0.64463559745E+02  0.11670710759E+02 -0.11863173921E+02  0.66576954873E+02  0.00000000000E+00 0.  1.
        -11    1    3    3    0    0 -0.12585935472E+02  0.31434114910E+02  0.40081635047E+02  0.52469484654E+02  0.00000000000E+00 0. -1.
         11    1    3    3    0    0  0.11972921993E+02 -0.74014377635E+02  0.60709614679E+02  0.96473500363E+02  0.00000000000E+00 0.  1.
         -1    1    1    2    0  502  0.10387691323E+03  0.94265871373E+02  0.28112746256E+03  0.31418007227E+03  0.00000000000E+00 0.  1.
<scales pt_clust_5="13000.00000" pt_clust_6="13000.00000" pt_clust_7="13000.00000" pt_clust_8="13000.00000" pt_clust_9="135.29839"></scales>
<clustering>
<clus scale="   79.393">  5  6 -1 -1</clus>
<clus scale="  101.053">  7  8 -1 -1</clus>
<clus scale="  109.659">  2  7  1 -1</clus>
<clus scale="  135.298">  1  9  2 -1</clus>
<clus scale="  135.298">  1  5  2 -1</clus>
</clustering>
</event>
<event>
 9    1  0.1358660E-004  0.1047571E+03  0.7546771E-02  0.1276062E+00
         -2   -1    0    0    0  501 -0.00000000000E+00  0.00000000000E+00  0.82137197028E+03  0.82137197028E+03  0.00000000000E+00 0.  1.
         21   -1    0    0  501  502  0.00000000000E+00 -0.00000000000E+00 -0.50225213333E+02  0.50225213333E+02  0.00000000000E+00 0. -1.
        -24    2    1    2    0    0 -0.38729498511E+02  0.39109254418E+02  0.67590909204E+03  0.68259700803E+03  0.77820735236E+02 0.  0.
         23    2    1    2    0    0  0.45198354207E+01 -0.52639782860E+02  0.10776573841E+03  0.15013722569E+03  0.90201754478E+02 0.  0.
         11    1    3    3    0    0 -0.22942199382E+02 -0.25038841395E+01  0.49575187006E+02  0.54683755495E+02  0.00000000000E+00 0. -1.
        -12    1    3    3    0    0 -0.15787299129E+02  0.41613138558E+02  0.62633390503E+03  0.62791325254E+03  0.00000000000E+00 0.  1.
        -11    1    4    4    0    0 -0.36546391260E+02 -0.28684739186E+02  0.20541555738E+02  0.50797721292E+02  0.00000000000E+00 0. -1.
         11    1    4    4    0    0  0.41066226681E+02 -0.23955043674E+02  0.87224182673E+02  0.99339504399E+02  0.00000000000E+00 0.  1.
         -1    1    1    2    0  502  0.34209663090E+02  0.13530528442E+02 -0.12528073505E+02  0.38862949893E+02  0.00000000000E+00 0.  1.
<scales pt_clust_5="13000.00000" pt_clust_6="13000.00000" pt_clust_7="13000.00000" pt_clust_8="13000.00000" pt_clust_9="36.78826"></scales>
<clustering>
<clus scale="   36.788">  2  9  1 -1</clus>
<clus scale="   77.821">  5  6 -1 -1</clus>
<clus scale="   90.202">  7  8 -1 -1</clus>
<clus scale="   94.307">  1  5  2 -1</clus>
<clus scale="   36.788">  2  5  1 -1</clus>
</clustering>
</event>
<event>
 9    1  0.9171696E-005  0.1220169E+03  0.7546771E-02  0.1242340E+00
         21   -1    0    0  501  502  0.00000000000E+00  0.00000000000E+00  0.12901944732E+03  0.12901944732E+03  0.00000000000E+00 0. -1.
         -2   -1    0    0    0  501 -0.00000000000E+00 -0.00000000000E+00 -0.24177344312E+03  0.24177344312E+03  0.00000000000E+00 0.  1.
         23    2    1    2    0    0  0.69216651809E+02  0.64987662488E+02 -0.17156848376E+03  0.21558830448E+03  0.89600397557E+02 0.  0.
        -24    2    1    2    0    0 -0.34641346566E+02 -0.27140158664E+02  0.40710711623E+02  0.10083886151E+03  0.81083308051E+02 0.  0.
         13    1    4    4    0    0 -0.47171350015E+02 -0.11897742213E+02  0.57224461376E+02  0.75108797832E+02  0.00000000000E+00 0. -1.
        -14    1    4    4    0    0  0.12530003449E+02 -0.15242416451E+02 -0.16513749753E+02  0.25730063673E+02  0.00000000000E+00 0.  1.
        -13    1    3    3    0    0 -0.18168908899E+02  0.88350428091E+01 -0.77997520040E+01  0.21656485480E+02  0.00000000000E+00 0. -1.
         13    1    3    3    0    0  0.87385560707E+02  0.56152619679E+02 -0.16376873176E+03  0.19393181900E+03  0.00000000000E+00 0.  1.
         -1    1    1    2    0  502 -0.34575305243E+02 -0.37847503824E+02  0.18103776339E+02  0.54365724460E+02  0.00000000000E+00 0.  1.
<scales pt_clust_5="13000.00000" pt_clust_6="13000.00000" pt_clust_7="13000.00000" pt_clust_8="13000.00000" pt_clust_9="51.26290"></scales>
<clustering>
<clus scale="   51.263">  1  9  2 -1</clus>
<clus scale="   81.083">  5  6 -1 -1</clus>
<clus scale="   89.600">  7  8 -1 -1</clus>
<clus scale="  115.907">  1  5  2 -1</clus>
<clus scale="   51.263">  1  5  2 -1</clus>
</clustering>
</event>
<event>
 9    1  0.9171696E-005  0.9600950E+02  0.7546771E-02  0.1293966E+00
         -2   -1    0    0    0  501 -0.00000000000E+00  0.00000000000E+00  0.70148490784E+02  0.70148490784E+02  0.00000000000E+00 0.  1.
         21   -1    0    0  501  502  0.00000000000E+00 -0.00000000000E+00 -0.20295234412E+03  0.20295234412E+03  0.00000000000E+00 0. -1.
        -24    2    1    2    0    0 -0.64931984112E+01 -0.19384843707E+02 -0.87815933573E+01  0.87453334129E+02  0.84575619875E+02 0.  0.
         23    2    1    2    0    0 -0.23328034451E+02  0.28808944836E+02 -0.11568477637E+03  0.15328033771E+03  0.93475889679E+02 0.  0.
         11    1    3    3    0    0 -0.24669197783E+02 -0.44480646928E+02 -0.19777922539E+02  0.54573468741E+02  0.00000000000E+00 0. -1.
        -12    1    3    3    0    0  0.18175999372E+02  0.25095803221E+02  0.10996329182E+02  0.32879865388E+02  0.00000000000E+00 0.  1.
        -13    1    4    4    0    0 -0.45896993908E+02  0.33970737054E+02 -0.11689599455E+03  0.13009695834E+03  0.00000000000E+00 0. -1.
         13    1    4    4    0    0  0.22568959457E+02 -0.51617922178E+01  0.12112181803E+01  0.23183379377E+02  0.00000000000E+00 0.  1.
         -1    1    1    2    0  502  0.29821232862E+02 -0.94241011288E+01 -0.83374836003E+01  0.32367163056E+02  0.00000000000E+00 0.  1.
<scales pt_clust_5="13000.00000" pt_clust_6="13000.00000" pt_clust_7="13000.00000" pt_clust_8="13000.00000" pt_clust_9="31.27492"></scales>
<clustering>
<clus scale="   31.275">  2  9  1 -1</clus>
<clus scale="   84.576">  5  6 -1 -1</clus>
<clus scale="   87.368">  1  5  2 -1</clus>
<clus scale="   93.476">  7  8 -1 -1</clus>
<clus scale="   31.275">  2  5  1 -1</clus>
</clustering>
</event>
<event>
 9    1  0.9171696E-005  0.1037395E+03  0.7546771E-02  0.1282296E+00
         21   -1    0    0  501  502  0.00000000000E+00  0.00000000000E+00  0.32835931302E+03  0.32835931302E+03  0.00000000000E+00 0.  1.
          1   -1    0    0  502    0 -0.00000000000E+00 -0.00000000000E+00 -0.36999540464E+03  0.36999540464E+03  0.00000000000E+00 0. -1.
        -24    2    1    2    0    0 -0.11995267007E+02  0.42322504650E+02 -0.34440680434E+03  0.35501455938E+03  0.74055449952E+02 0.  0.
         23    2    1    2    0    0 -0.28555687137E+02 -0.61318745601E+02  0.19666951802E+03  0.22817635943E+03  0.93862323936E+02 0.  0.
         13    1    3    3    0    0 -0.38018086659E+02  0.12336914380E+02 -0.24015608230E+03  0.24345947966E+03  0.00000000000E+00 0. -1.
        -14    1    3    3    0    0  0.26022819652E+02  0.29985590270E+02 -0.10425072203E+03  0.11155507972E+03  0.00000000000E+00 0.  1.
        -13    1    4    4    0    0  0.27891729850E+02 -0.47176231953E+02  0.12001236708E+03  0.13193374742E+03  0.00000000000E+00 0.  1.
         13    1    4    4    0    0 -0.56447416988E+02 -0.14142513648E+02  0.76657150938E+02  0.96242612012E+02  0.00000000000E+00 0. -1.
          2    1    1    2  501    0  0.40550954144E+02  0.18996240951E+02  0.10610119469E+03  0.11516379886E+03  0.00000000000E+00 0. -1.
<scales pt_clust_5="13000.00000" pt_clust_6="13000.00000" pt_clust_7="13000.00000" pt_clust_8="13000.00000" pt_clust_9="44.77987"></scales>
<clustering>
<clus scale="   44.780">  1  9  2 -1</clus>
<clus scale="   74.055">  5  6 -1 -1</clus>
<clus scale="   86.232">  2  5  1 -1</clus>
<clus scale="   93.862">  7  8 -1 -1</clus>
<clus scale="   44.780">  1  5  2 -1</clus>
</clustering>
</event>
<event>
 9    1  0.9171696E-005  0.1039926E+03  0.7546771E-02  0.1277325E+00
         21   -1    0    0  501  502  0.00000000000E+00  0.00000000000E+00  0.24714048423E+02  0.24714048423E+02  0.00000000000E+00 0. -1.
          1   -1    0    0  502    0 -0.00000000000E+00 -0.00000000000E+00 -0.77930780911E+03  0.77930780911E+03  0.00000000000E+00 0. -1.
         23    2    1    2    0    0  0.39113889721E+02 -0.37429701352E+02 -0.44757622687E+03  0.46057237418E+03  0.94188927619E+02 0.  0.
        -24    2    1    2    0    0  0.10754850066E+02  0.36057793693E+02 -0.12530549893E+03  0.15501371987E+03  0.83138162107E+02 0.  0.
         11    1    4    4    0    0 -0.17734281840E+02  0.32441120644E+02 -0.13151614051E+02  0.39241508803E+02  0.00000000000E+00 0. -1.
        -12    1    4    4    0    0  0.28489131906E+02  0.36166730494E+01 -0.11215388488E+03  0.11577221106E+03  0.00000000000E+00 0.  1.
        -13    1    3    3    0    0  0.69994523201E+02 -0.18976824854E+02 -0.31012391226E+03  0.31849049297E+03  0.00000000000E+00 0. -1.
         13    1    3    3    0    0 -0.30880633480E+02 -0.18452876498E+02 -0.13745231462E+03  0.14208188121E+03  0.00000000000E+00 0.  1.
          2    1    1    2  501    0 -0.49868739787E+02  0.13719076586E+01 -0.18171203488E+03  0.18843576348E+03  0.00000000000E+00 0. -1.
<scales pt_clust_5="13000.00000" pt_clust_6="13000.00000" pt_clust_7="13000.00000" pt_clust_8="13000.00000" pt_clust_9="49.88763"></scales>
<clustering>
<clus scale="   49.888">  1  9  2 -1</clus>
<clus scale="   83.138">  5  6 -1 -1</clus>
<clus scale="   94.100">  1  5  2 -1</clus>
<clus scale="   94.189">  7  8 -1 -1</clus>
<clus scale="   49.888">  1  5  2 -1</clus>
</clustering>
</event>
<event>
 9    1  0.9171696E-005  0.1568494E+03  0.7546771E-02  0.1214999E+00
          1   -1    0    0  502    0 -0.00000000000E+00  0.00000000000E+00  0.40717145104E+03  0.40717145104E+03  0.00000000000E+00 0. -1.
         21   -1    0    0  501  502  0.00000000000E+00 -0.00000000000E+00 -0.63919057499E+03  0.63919057499E+03  0.00000000000E+00 0. -1.
        -24    2    1    2    0    0 -0.36826231528E+02 -0.37529442670E+02 -0.15758075274E+03  0.18456740903E+03  0.80428878197E+02 0.  0.
         23    2    1    2    0    0  0.34940710324E+02  0.16357018717E+03  0.36103847728E+03  0.40844055002E+03  0.92189161244E+02 0.  0.
         13    1    3    3    0    0 -0.62124883460E+02 -0.23200507893E+02 -0.98851219061E+02  0.11903498738E+03  0.00000000000E+00 0. -1.
        -14    1    3    3    0    0  0.25298651932E+02 -0.14328934776E+02 -0.58729533676E+02  0.65532421649E+02  0.00000000000E+00 0.  1.
        -11    1    4    4    0    0  0.21195556199E+02  0.82797726139E+02  0.85159238701E+02  0.12065160999E+03  0.00000000000E+00 0.  1.
         11    1    4    4    0    0  0.13745154125E+02  0.80772461029E+02  0.27587923858E+03  0.28778894003E+03  0.00000000000E+00 0. -1.
          2    1    1    2  501    0  0.18855212043E+01 -0.12604074450E+03 -0.43547684850E+03  0.45335406698E+03  0.00000000000E+00 0. -1.
<scales pt_clust_5="13000.00000" pt_clust_6="13000.00000" pt_clust_7="13000.00000" pt_clust_8="13000.00000" pt_clust_9="126.89720"></scales>
<clustering>
<clus scale="   80.429">  5  6 -1 -1</clus>
<clus scale="   92.189">  7  8 -1 -1</clus>
<clus scale="   96.091">  1  5  2 -1</clus>
<clus scale="  126.897">  2  9  1 -1</clus>
<clus scale="  126.897">  2  5  1 -1</clus>
</clustering>
</event>
<event>
 9    1  0.9171696E-005  0.9567164E+02  0.7546771E-02  0.1293444E+00
          1   -1    0    0  502    0 -0.00000000000E+00  0.00000000000E+00  0.44135079335E+03  0.44135079335E+03  0.00000000000E+00 0. -1.
         21   -1    0    0  501  502  0.00000000000E+00 -0.00000000000E+00 -0.39252368142E+02  0.39252368142E+02  0.00000000000E+00 0. -1.
         23    2    1    2    0    0  0.15977625886E+02 -0.12883479299E+02  0.20346105310E+03  0.22306637857E+03  0.89111955160E+02 0.  0.
        -24    2    1    2    0    0 -0.63578969964E+02  0.28863728156E+02  0.10075545977E+03  0.14752712391E+03  0.82080383724E+02 0.  0.
         13    1    4    4    0    0 -0.42209614396E+02  0.55268658065E+02  0.85713576896E+02  0.11037705095E+03  0.00000000000E+00 0. -1.
        -14    1    4    4    0    0 -0.21369355567E+02 -0.26404929909E+02  0.15041882869E+02  0.37150072962E+02  0.00000000000E+00 0.  1.
        -11    1    3    3    0    0 -0.19175249857E+02 -0.27930959057E+02  0.29408478767E+02  0.44862983676E+02  0.00000000000E+00 0. -1.
         11    1    3    3    0    0  0.35152875742E+02  0.15047479759E+02  0.17405257434E+03  0.17820339490E+03  0.00000000000E+00 0.  1.
          2    1    1    2  501    0  0.47601344078E+02 -0.15980248858E+02  0.97881912334E+02  0.11000965900E+03  0.00000000000E+00 0. -1.
<scales pt_clust_5="13000.00000" pt_clust_6="13000.00000" pt_clust_7="13000.00000" pt_clust_8="13000.00000" pt_clust_9="50.21214"></scales>
<clustering>
<clus scale="   50.212">  2  9  1 -1</clus>
<clus scale="   82.080">  5  6 -1 -1</clus>
<clus scale="   89.112">  7  8 -1 -1</clus>
<clus scale="   89.159">  2  5  1 -1</clus>
<clus scale="   50.212">  2  5  1 -1</clus>
</clustering>
</event>
<event>
 9    1  0.9171696E-005  0.3057936E+03  0.7546771E-02  0.1082745E+00
         -4   -1    0    0    0  501 -0.00000000000E+00  0.00000000000E+00  0.36156470461E+03  0.36156470461E+03  0.00000000000E+00 0.  1.
         21   -1    0    0  501  502  0.00000000000E+00 -0.00000000000E+00 -0.39537436194E+03  0.39537436194E+03  0.00000000000E+00 0.  1.
        -24    2    1    2    0    0 -0.58116300251E+02  0.31230648800E+03  0.68263889106E+02  0.33470268592E+03  0.80331081199E+02 0.  0.
         23    2    1    2    0    0  0.14727536659E+03 -0.22713585671E+03 -0.58739853036E+02  0.29154137487E+03  0.90913540897E+02 0.  0.
         11    1    3    3    0    0 -0.22550352786E+01  0.11036896714E+03 -0.10445030588E+02  0.11088504298E+03  0.00000000000E+00 0. -1.
        -12    1    3    3    0    0 -0.55861264973E+02  0.20193752086E+03  0.78708919694E+02  0.22381764295E+03  0.00000000000E+00 0.  1.
        -13    1    4    4    0    0  0.23100617390E+02 -0.10191966630E+03  0.34158909403E+01  0.10456062937E+03  0.00000000000E+00 0. -1.
         13    1    4    4    0    0  0.12417474920E+03 -0.12521619041E+03 -0.62155743977E+02  0.18698074550E+03  0.00000000000E+00 0.  1.
         -3    1    1    2    0  502 -0.89159066334E+02 -0.85170631291E+02 -0.43333693400E+02  0.13069500575E+03  0.00000000000E+00 0.  1.
<scales pt_clust_5="13000.00000" pt_clust_6="13000.00000" pt_clust_7="13000.00000" pt_clust_8="13000.00000" pt_clust_9="123.30197"></scales>
<clustering>
<clus scale="   80.331">  5  6 -1 -1</clus>
<clus scale="   90.914">  7  8 -1 -1</clus>
<clus scale="  123.302">  2  9  1 -1</clus>
<clus scale="  302.816">  1  5  2 -1</clus>
<clus scale="  123.302">  2  5  1 -1</clus>
</clustering>
</event>
<event>
 9    1  0.9171696E-005  0.1295370E+03  0.7546771E-02  0.1231020E+00
         21   -1    0    0  501  502  0.00000000000E+00  0.00000000000E+00  0.45843487650E+03  0.45843487650E+03  0.00000000000E+00 0.  1.
          3   -1    0    0  502    0 -0.00000000000E+00 -0.00000000000E+00 -0.79324742238E+02  0.79324742238E+02  0.00000000000E+00 0. -1.
        -24    2    1    2    0    0 -0.66966081107E+02 -0.59586177384E+02  0.19883961520E+02  0.12203171854E+03  0.80382833060E+02 0.  0.
         23    2    1    2    0    0  0.97676482582E+02  0.44381396576E+02  0.35406926228E+03  0.38107378293E+03  0.91333356073E+02 0.  0.
         13    1    3    3    0    0  0.13272564061E+02 -0.18737569979E+02  0.22234563660E+02  0.31962999024E+02  0.00000000000E+00 0. -1.
        -14    1    3    3    0    0 -0.80238645168E+02 -0.40848607405E+02 -0.23506021399E+01  0.90068719519E+02  0.00000000000E+00 0.  1.
        -13    1    4    4    0    0  0.46414513574E+02  0.18306669978E+02  0.29287692286E+03  0.29709650482E+03  0.00000000000E+00 0.  1.
         13    1    4    4    0    0  0.51261969008E+02  0.26074726597E+02  0.61192339422E+02  0.83977278103E+02  0.00000000000E+00 0. -1.
          4    1    1    2  501    0 -0.30710401475E+02  0.15204780808E+02  0.51569104626E+01  0.34654117269E+02  0.00000000000E+00 0. -1.
<scales pt_clust_5="13000.00000" pt_clust_6="13000.00000" pt_clust_7="13000.00000" pt_clust_8="13000.00000" pt_clust_9="34.26828"></scales>
<clustering>
<clus scale="   34.268">  1  9  2 -1</clus>
<clus scale="   80.383">  5  6 -1 -1</clus>
<clus scale="   91.333">  7  8 -1 -1</clus>
<clus scale="  122.063">  2  5  1 -1</clus>
<clus scale="   34.268">  1  5  2 -1</clus>
</clustering>
</event>
<event>
 9    1  0.9171696E-005  0.1531284E+03  0.7546771E-02  0.1205787E+00
          1   -1    0    0  502    0 -0.00000000000E+00  0.00000000000E+00  0.35435978028E+03  0.35435978028E+03  0.00000000000E+00 0. -1.
         21   -1    0    0  501  502  0.00000000000E+00 -0.00000000000E+00 -0.16222733112E+03  0.16222733112E+03  0.00000000000E+00 0. -1.
         23    2    1    2    0    0  0.70200507584E+02  0.49343170486E+02 -0.31812382245E+02  0.12966328882E+03  0.91856850936E+02 0.  0.
        -24    2    1    2    0    0 -0.96531305741E+02  0.83879376834E+02  0.19541320655E+03  0.24815923177E+03  0.83920439560E+02 0.  0.
         13    1    4    4    0    0 -0.10061331298E+03  0.44853583503E+02  0.16554213158E+03  0.19884436132E+03  0.00000000000E+00 0. -1.
        -14    1    4    4    0    0  0.40820072368E+01  0.39025793331E+02  0.29871074971E+02  0.49314870456E+02  0.00000000000E+00 0.  1.
        -13    1    3    3    0    0  0.51295351553E+01 -0.20023280007E+02 -0.27570883425E+02  0.34458634418E+02  0.00000000000E+00 0.  1.
         13    1    3    3    0    0  0.65070972429E+02  0.69366450493E+02 -0.42414988199E+01  0.95204654398E+02  0.00000000000E+00 0. -1.
          2    1    1    2  501    0  0.26330798157E+02 -0.13322254732E+03  0.28531624861E+02  0.13876459081E+03  0.00000000000E+00 0. -1.
<scales pt_clust_5="13000.00000" pt_clust_6="13000.00000" pt_clust_7="13000.00000" pt_clust_8="13000.00000" pt_clust_9="128.08456"></scales>
<clustering>
<clus scale="   83.920">  5  6 -1 -1</clus>
<clus scale="   91.857">  7  8 -1 -1</clus>
<clus scale="  125.700">  1  7  2 -1</clus>
<clus scale="  128.085">  2  9  1 -1</clus>
<clus scale="  128.085">  2  5  1 -1</clus>
</clustering>
</event>
<event>
 9    1  0.9171696E-005  0.1664910E+03  0.7546771E-02  0.1183256E+00
          3   -1    0    0  502    0 -0.00000000000E+00  0.00000000000E+00  0.88234479475E+03  0.88234479475E+03  0.00000000000E+00 0. -1.
         21   -1    0    0  501  502  0.00000000000E+00 -0.00000000000E+00 -0.65345846318E+02  0.65345846318E+02  0.00000000000E+00 0.  1.
        -24    2    1    2    0    0 -0.83793746990E+02  0.82744438367E+02  0.31174733121E+03  0.34254554414E+03  0.79265485425E+02 0.  0.
         23    2    1    2    0    0  0.19210080986E+03 -0.61046597323E+02  0.31053416289E+03  0.38127883508E+03  0.91173875438E+02 0.  0.
         13    1    3    3    0    0 -0.42392071508E+02  0.62791435616E+02  0.27009773288E+03  0.28052208010E+03  0.00000000000E+00 0. -1.
        -14    1    3    3    0    0 -0.41401675482E+02  0.19953002752E+02  0.41649598332E+02  0.62023464050E+02  0.00000000000E+00 0.  1.
        -11    1    4    4    0    0  0.85107267219E+02  0.33661157880E+00  0.67105307015E+02  0.10838119057E+03  0.00000000000E+00 0.  1.
         11    1    4    4    0    0  0.10699354264E+03 -0.61383208902E+02  0.24342885588E+03  0.27289764451E+03  0.00000000000E+00 0. -1.
          4    1    1    2  501    0 -0.10830706287E+03 -0.21697841044E+02  0.19471745432E+03  0.22386626184E+03  0.00000000000E+00 0. -1.
<scales pt_clust_5="13000.00000" pt_clust_6="13000.00000" pt_clust_7="13000.00000" pt_clust_8="13000.00000" pt_clust_9="110.45917"></scales>
<clustering>
<clus scale="   79.265">  5  6 -1 -1</clus>
<clus scale="   91.174">  7  8 -1 -1</clus>
<clus scale="  110.459">  2  9  1 -1</clus>
<clus scale="  160.280">  1  5  2 -1</clus>
<clus scale="  110.459">  2  5  1 -1</clus>
</clustering>
</event>
<event>
 9    1  0.9171696E-005  0.1066760E+03  0.7546771E-02  0.1271103E+00
          1   -1    0    0  502    0 -0.00000000000E+00  0.00000000000E+00  0.70699361644E+03  0.70699361644E+03  0.00000000000E+00 0. -1.
         21   -1    0    0  501  502  0.00000000000E+00 -0.00000000000E+00 -0.37403728196E+02  0.37403728196E+02  0.00000000000E+00 0. -1.
        -24    2    1    2    0    0  0.43488163360E+02  0.21082232027E+02  0.38134997361E+03  0.39274456227E+03  0.80528305331E+02 0.  0.
         23    2    1    2    0    0 -0.98078317822E+02  0.16881041867E+02  0.18305731463E+03  0.22721535041E+03  0.90622894575E+02 0.  0.
         13    1    3    3    0    0  0.10185962828E+02  0.49209810814E+02  0.21192414776E+03  0.21780083500E+03  0.00000000000E+00 0. -1.
        -14    1    3    3    0    0  0.33302200532E+02 -0.28127578787E+02  0.16942582584E+03  0.17494372727E+03  0.00000000000E+00 0.  1.
        -13    1    4    4    0    0 -0.12809851410E+02 -0.31799712646E+02  0.31044727346E+02  0.46250287712E+02  0.00000000000E+00 0.  1.
         13    1    4    4    0    0 -0.85268466412E+02  0.48680754513E+02  0.15201258729E+03  0.18096506270E+03  0.00000000000E+00 0. -1.
          2    1    1    2  501    0  0.54590154462E+02 -0.37963273894E+02  0.10518260000E+03  0.12443743196E+03  0.00000000000E+00 0. -1.
<scales pt_clust_5="13000.00000" pt_clust_6="13000.00000" pt_clust_7="13000.00000" pt_clust_8="13000.00000" pt_clust_9="66.49282"></scales>
<clustering>
<clus scale="   66.493">  2  9  1 -1</clus>
<clus scale="   80.528">  5  6 -1 -1</clus>
<clus scale="   90.623">  7  8 -1 -1</clus>
<clus scale="   98.245">  1  5  2 -1</clus>
<clus scale="   66.493">  2  5  1 -1</clus>
</clustering>
</event>
<event>
 9    1  0.9171696E-005  0.2472183E+03  0.7546771E-02  0.1158395E+00
         -2   -1    0    0    0  501 -0.00000000000E+00  0.00000000000E+00  0.64082063796E+02  0.64082063796E+02  0.00000000000E+00 0.  1.
         21   -1    0    0  501  502  0.00000000000E+00 -0.00000000000E+00 -0.12883002422E+04  0.12883002422E+04  0.00000000000E+00 0. -1.
        -24    2    1    2    0    0  0.21014811490E+02  0.44029790487E+02 -0.23764336796E+03  0.25285777684E+03  0.71291235210E+02 0.  0.
         23    2    1    2    0    0  0.17981241613E+03  0.11082510031E+03 -0.51185757619E+03  0.56131633055E+03  0.91995308486E+02 0.  0.
         11    1    3    3    0    0 -0.14654580353E+02  0.45628174126E+02 -0.10371924271E+03  0.11425571455E+03  0.00000000000E+00 0. -1.
        -12    1    3    3    0    0  0.35669391844E+02 -0.15983836392E+01 -0.13392412526E+03  0.13860206229E+03  0.00000000000E+00 0.  1.
        -13    1    4    4    0    0  0.54336783454E+01  0.41090543638E+02 -0.72677970393E+02  0.83666271682E+02  0.00000000000E+00 0.  1.
         13    1    4    4    0    0  0.17437873779E+03  0.69734556668E+02 -0.43917960580E+03  0.47765005887E+03  0.00000000000E+00 0. -1.
         -1    1    1    2    0  502 -0.20082722762E+03 -0.15485489079E+03 -0.47471723425E+03  0.53820819861E+03  0.00000000000E+00 0.  1.
<scales pt_clust_5="13000.00000" pt_clust_6="13000.00000" pt_clust_7="13000.00000" pt_clust_8="13000.00000" pt_clust_9="229.46421"></scales>
<clustering>
<clus scale="   71.291">  5  6 -1 -1</clus>
<clus scale="   86.387">  1  5  2 -1</clus>
<clus scale="   91.995">  7  8 -1 -1</clus>
<clus scale="  229.464">  2  9  1 -1</clus>
<clus scale="  229.464">  2  5  1 -1</clus>
</clustering>
</event>
<event>
 9    1  0.9171696E-005  0.1358826E+03  0.7546771E-02  0.1244189E+00
         21   -1    0    0  501  502  0.00000000000E+00  0.00000000000E+00  0.16666661851E+03  0.16666661851E+03  0.00000000000E+00 0.  1.
         -2   -1    0    0    0  501 -0.00000000000E+00 -0.00000000000E+00 -0.51318337029E+03  0.51318337029E+03  0.00000000000E+00 0.  1.
        -24    2    1    2    0    0 -0.12912607447E+02  0.68519515222E+01 -0.37473791839E+02  0.89108805611E+02  0.79513580550E+02 0.  0.
         23    2    1    2    0    0 -0.44029625517E+02 -0.84557994171E+02 -0.42150013275E+03  0.44266261393E+03  0.95912280564E+02 0.  0.
         11    1    3    3    0    0 -0.24394364803E+02  0.20800765150E+02 -0.55177138136E+02  0.63814367018E+02  0.00000000000E+00 0. -1.
        -12    1    3    3    0    0  0.11481757356E+02 -0.13948813628E+02  0.17703346297E+02  0.25294438593E+02  0.00000000000E+00 0.  1.
        -11    1    4    4    0    0 -0.67856933144E+02 -0.39110234371E+02 -0.18935097761E+03  0.20490965455E+03  0.00000000000E+00 0. -1.
         11    1    4    4    0    0  0.23827307628E+02 -0.45447759800E+02 -0.23214915514E+03  0.23775295938E+03  0.00000000000E+00 0.  1.
         -1    1    1    2    0  502  0.56942232964E+02  0.77706042648E+02  0.11245717281E+03  0.14807856926E+03  0.00000000000E+00 0.  1.
<scales pt_clust_5="13000.00000" pt_clust_6="13000.00000" pt_clust_7="13000.00000" pt_clust_8="13000.00000" pt_clust_9="96.25446"></scales>
<clustering>
<clus scale="   79.514">  5  6 -1 -1</clus>
<clus scale="   80.846">  2  5  1 -1</clus>
<clus scale="   95.912">  7  8 -1 -1</clus>
<clus scale="   96.254">  1  9  2 -1</clus>
<clus scale="   96.254">  1  5  2 -1</clus>
</clustering>
</event>
<event>
 9    1  0.9171696E-005  0.2560870E+03  0.7546771E-02  0.1146072E+00
         -4   -1    0    0    0  501 -0.00000000000E+00  0.00000000000E+00  0.78758073366E+03  0.78758073366E+03  0.00000000000E+00 0.  1.
         21   -1    0    0  501  502  0.00000000000E+00 -0.00000000000E+00 -0.20190035811E+03  0.20190035811E+03  0.00000000000E+00 0.  1.
        -24    2    1    2    0    0 -0.47601073440E+02 -0.47801666247E+02  0.21871652364E+03  0.24216322237E+03  0.79090119906E+02 0.  0.
         23    2    1    2    0    0  0.27813193848E+03  0.20356389026E+02  0.41696307121E+03  0.50983598607E+03  0.91119548727E+02 0.  0.
         11    1    3    3    0    0 -0.30289515855E+02  0.15793167262E+02  0.45984637009E+02  0.57284079322E+02  0.00000000000E+00 0. -1.
        -12    1    3    3    0    0 -0.17311557585E+02 -0.63594833509E+02  0.17273188663E+03  0.18487914305E+03  0.00000000000E+00 0.  1.
        -13    1    4    4    0    0  0.20781131204E+03  0.18058035447E+01  0.23406961041E+03  0.31301339405E+03  0.00000000000E+00 0.  1.
         13    1    4    4    0    0  0.70320626439E+02  0.18550585481E+02  0.18289346080E+03  0.19682259202E+03  0.00000000000E+00 0. -1.
         -3    1    1    2    0  502 -0.23053086504E+03  0.27445277221E+02 -0.49999219298E+02  0.23748188332E+03  0.00000000000E+00 0.  1.
<scales pt_clust_5="13000.00000" pt_clust_6="13000.00000" pt_clust_7="13000.00000" pt_clust_8="13000.00000" pt_clust_9="239.32773"></scales>
<clustering>
<clus scale="   79.090">  5  6 -1 -1</clus>
<clus scale="   91.120">  7  8 -1 -1</clus>
<clus scale="  103.952">  1  5  2 -1</clus>
<clus scale="  239.328">  2  9  1 -1</clus>
<clus scale="  239.328">  2  5  1 -1</clus>
</clustering>
</event>
<event>
 9    1  0.9171696E-005  0.9661621E+02  0.7546771E-02  0.1293620E+00
          3   -1    0    0  502    0 -0.00000000000E+00  0.00000000000E+00  0.27224267231E+03  0.27224267231E+03  0.00000000000E+00 0. -1.
         21   -1    0    0  501  502  0.00000000000E+00 -0.00000000000E+00 -0.54163994026E+02  0.54163994026E+02  0.00000000000E+00 0.  1.
         23    2    1    2    0    0 -0.40797093766E+02  0.33448416664E+02  0.96269002062E+02  0.14300809083E+03  0.91653662496E+02 0.  0.
        -24    2    1    2    0    0  0.25352873500E+01 -0.79597159861E+01  0.42136054375E+02  0.91412023710E+02  0.80690310695E+02 0.  0.
         11    1    4    4    0    0  0.21543438046E+02 -0.32127749280E+02  0.46357060869E+02  0.60376229504E+02  0.00000000000E+00 0. -1.
        -12    1    4    4    0    0 -0.19008150696E+02  0.24168033294E+02 -0.42210064944E+01  0.31035794206E+02  0.00000000000E+00 0.  1.
        -13    1    3    3    0    0 -0.23063537350E+02 -0.23613353539E+02  0.42361458294E+01  0.33278553934E+02  0.00000000000E+00 0.  1.
         13    1    3    3    0    0 -0.17733556416E+02  0.57061770203E+02  0.92032856232E+02  0.10972953690E+03  0.00000000000E+00 0. -1.
          4    1    1    2  501    0  0.38261806416E+02 -0.25488700678E+02  0.79673621847E+02  0.91986551792E+02  0.00000000000E+00 0. -1.
<scales pt_clust_5="13000.00000" pt_clust_6="13000.00000" pt_clust_7="13000.00000" pt_clust_8="13000.00000" pt_clust_9="45.97436"></scales>
<clustering>
<clus scale="   45.974">  2  9  1 -1</clus>
<clus scale="   80.690">  5  6 -1 -1</clus>
<clus scale="   86.286">  2  5  1 -1</clus>
<clus scale="   91.654">  7  8 -1 -1</clus>
<clus scale="   45.974">  2  5  1 -1</clus>
</clustering>
</event>
<event>
 9    1  0.9171696E-005  0.1038425E+03  0.7546771E-02  0.1277611E+00
         21   -1    0    0  501  502  0.00000000000E+00  0.00000000000E+00  0.35390826978E+03  0.35390826978E+03  0.00000000000E+00 0. -1.
          3   -1    0    0  502    0 -0.00000000000E+00 -0.00000000000E+00 -0.88652992901E+02  0.88652992901E+02  0.00000000000E+00 0. -1.
        -24    2    1    2    0    0 -0.38094172350E+02 -0.25910150585E+02 -0.36365571742E+02  0.98961657199E+02  0.79677179400E+02 0.  0.
         23    2    1    2    0    0  0.68141711794E+02  0.25224303537E+02  0.15489405345E+03  0.19382618517E+03  0.91087122505E+02 0.  0.
         11    1    3    3    0    0 -0.51997583180E+02  0.93430582810E+01 -0.12877589193E+02  0.54377143158E+02  0.00000000000E+00 0. -1.
        -12    1    3    3    0    0  0.13903410830E+02 -0.35253208866E+02 -0.23487982549E+02  0.44584514041E+02  0.00000000000E+00 0.  1.
        -13    1    4    4    0    0  0.56346843251E+02  0.13026820372E+01  0.15725521215E+03  0.16705048780E+03  0.00000000000E+00 0.  1.
         13    1    4    4    0    0  0.11794868543E+02  0.23921621500E+02 -0.23611586997E+01  0.26775697368E+02  0.00000000000E+00 0. -1.
          4    1    1    2  501    0 -0.30047539444E+02  0.68584704775E+00  0.14672679517E+03  0.14977342031E+03  0.00000000000E+00 0. -1.
<scales pt_clust_5="13000.00000" pt_clust_6="13000.00000" pt_clust_7="13000.00000" pt_clust_8="13000.00000" pt_clust_9="30.05537"></scales>
<clustering>
<clus scale="   30.055">  1  9  2 -1</clus>
<clus scale="   79.677">  5  6 -1 -1</clus>
<clus scale="   91.087">  7  8 -1 -1</clus>
<clus scale="   93.994">  2  5  1 -1</clus>
<clus scale="   30.055">  1  5  2 -1</clus>
</clustering>
</event>
<event>
 9    1  0.9171696E-005  0.1554731E+03  0.7546771E-02  0.1195639E+00
          1   -1    0    0  502    0 -0.00000000000E+00  0.00000000000E+00  0.52747895276E+03  0.52747895276E+03  0.00000000000E+00 0. -1.
         21   -1    0    0  501  502  0.00000000000E+00 -0.00000000000E+00 -0.60314308633E+02  0.60314308633E+02  0.00000000000E+00 0.  1.
         23    2    1    2    0    0 -0.87226523956E+02  0.77679846986E+02  0.17607266692E+03  0.22991773854E+03  0.90652950031E+02 0.  0.
        -24    2    1    2    0    0  0.10378368310E+03 -0.90653643328E+02  0.16293045398E+03  0.22799929352E+03  0.80300741504E+02 0.  0.
         11    1    4    4    0    0  0.39372592705E+02 -0.62378075533E+02  0.13187831624E+03  0.15110630582E+03  0.00000000000E+00 0. -1.
        -12    1    4    4    0    0  0.64411090391E+02 -0.28275567795E+02  0.31052137738E+02  0.76892987701E+02  0.00000000000E+00 0.  1.
        -13    1    3    3    0    0  0.55809798548E+01  0.50760421705E+02  0.65926257670E+02  0.83390881984E+02  0.00000000000E+00 0. -1.
         13    1    3    3    0    0 -0.92807503811E+02  0.26919425281E+02  0.11014640925E+03  0.14652685656E+03  0.00000000000E+00 0.  1.
          2    1    1    2  501    0 -0.16557159140E+02  0.12973796342E+02  0.12816152322E+03  0.12987622933E+03  0.00000000000E+00 0. -1.
<scales pt_clust_5="13000.00000" pt_clust_6="13000.00000" pt_clust_7="13000.00000" pt_clust_8="13000.00000" pt_clust_9="21.03472"></scales>
<clustering>
<clus scale="   21.035">  2  9  1 -1</clus>
<clus scale="   80.301">  5  6 -1 -1</clus>
<clus scale="   90.653">  7  8 -1 -1</clus>
<clus scale="  149.673">  2  5  1 -1</clus>
<clus scale="   21.035">  2  5  1 -1</clus>
</clustering>
</event>
<event>
 9    1  0.9171696E-005  0.9889268E+02  0.7546771E-02  0.1287564E+00
         21   -1    0    0  501  502  0.00000000000E+00  0.00000000000E+00  0.68576379916E+03  0.68576379916E+03  0.00000000000E+00 0.  1.
          3   -1    0    0  502    0 -0.00000000000E+00 -0.00000000000E+00 -0.54583202016E+02  0.54583202016E+02  0.00000000000E+00 0. -1.
         23    2    1    2    0    0 -0.26545242399E+02  0.29042887623E+02  0.29609996410E+01  0.99070356427E+02  0.90873696900E+02 0.  0.
        -24    2    1    2    0    0  0.45180186646E+02 -0.53542486664E+01  0.54203320956E+03  0.54997217482E+03  0.81237156295E+02 0.  0.
         11    1    4    4    0    0 -0.42484422114E+01 -0.26354679506E+02  0.70402692962E+02  0.75293808307E+02  0.00000000000E+00 0. -1.
        -12    1    4    4    0    0  0.49428628857E+02  0.21000430839E+02  0.47163051660E+03  0.47467836651E+03  0.00000000000E+00 0.  1.
        -11    1    3    3    0    0 -0.36485936581E+02  0.57802234210E+02 -0.11563753681E+01  0.68364164969E+02  0.00000000000E+00 0. -1.
         11    1    3    3    0    0  0.99406941828E+01 -0.28759346587E+02  0.41173750090E+01  0.30706191459E+02  0.00000000000E+00 0.  1.
          4    1    1    2  501    0 -0.18634944247E+02 -0.23688638957E+02  0.86186387946E+02  0.91304469934E+02  0.00000000000E+00 0. -1.
<scales pt_clust_5="13000.00000" pt_clust_6="13000.00000" pt_clust_7="13000.00000" pt_clust_8="13000.00000" pt_clust_9="30.13989"></scales>
<clustering>
<clus scale="   30.140">  1  9  2 -1</clus>
<clus scale="   81.237">  5  6 -1 -1</clus>
<clus scale="   90.118">  1  5  2 -1</clus>
<clus scale="   90.874">  7  8 -1 -1</clus>
<clus scale="   30.140">  1  5  2 -1</clus>
</clustering>
</event>
<event>
 9    1  0.9171696E-005  0.1206451E+03  0.7546771E-02  0.1246376E+00
          1   -1    0    0  502    0 -0.00000000000E+00  0.00000000000E+00  0.76957766602E+03  0.76957766602E+03  0.00000000000E+00 0. -1.
         21   -1    0    0  501  502  0.00000000000E+00 -0.00000000000E+00 -0.60009937609E+02  0.60009937609E+02  0.00000000000E+00 0. -1.
        -24    2    1    2    0    0  0.31870062375E+02 -0.70706694985E+02  0.58338576288E+03  0.59383361195E+03  0.79273405155E+02 0.  0.
         23    2    1    2    0    0 -0.35518110040E+01  0.79316610797E+02  0.15301485094E+03  0.19580330018E+03  0.92852827862E+02 0.  0.
         13    1    3    3    0    0  0.41135733482E+02 -0.82893518299E+02  0.53889244646E+03  0.54678016862E+03  0.00000000000E+00 0. -1.
        -14    1    3    3    0    0 -0.92656711071E+01  0.12186823314E+02  0.44493316415E+02  0.47053443330E+02  0.00000000000E+00 0.  1.
        -11    1    4    4    0    0 -0.48165678700E+02  0.43929058422E+02  0.79320739473E+02  0.10267168299E+03  0.00000000000E+00 0.  1.
         11    1    4    4    0    0  0.44613867696E+02  0.35387552375E+02  0.73694111469E+02  0.93131617182E+02  0.00000000000E+00 0. -1.
          2    1    1    2  501    0 -0.28318251371E+02 -0.86099158122E+01 -0.26832885415E+02  0.39950691492E+02  0.00000000000E+00 0. -1.
<scales pt_clust_5="13000.00000" pt_clust_6="13000.00000" pt_clust_7="13000.00000" pt_clust_8="13000.00000" pt_clust_9="29.59821"></scales>
<clustering>
<clus scale="   29.598">  2  9  1 -1</clus>
<clus scale="   79.273">  5  6 -1 -1</clus>
<clus scale="   92.853">  7  8 -1 -1</clus>
<clus scale="  110.534">  1  5  2 -1</clus>
<clus scale="   29.598">  2  5  1 -1</clus>
</clustering>
</event>
<event>
 9    1  0.9171696E-005  0.1418299E+03  0.7546771E-02  0.1224627E+00
         21   -1    0    0  501  502  0.00000000000E+00  0.00000000000E+00  0.62981601769E+03  0.62981601769E+03  0.00000000000E+00 0.  1.
          1   -1    0    0  502    0 -0.00000000000E+00 -0.00000000000E+00 -0.54249566374E+02  0.54249566374E+02  0.00000000000E+00 0. -1.
        -24    2    1    2    0    0 -0.68295283939E+02  0.13509204048E+02  0.21747604375E+03  0.24200851773E+03  0.80159520015E+02 0.  0.
         23    2    1    2    0    0 -0.38108294609E+02 -0.83322189783E+02  0.15333283496E+03  0.20097359936E+03  0.92111888134E+02 0.  0.
         11    1    3    3    0    0  0.17560219263E+01 -0.22875694369E+02  0.82640689205E+02  0.85766336742E+02  0.00000000000E+00 0. -1.
        -12    1    3    3    0    0 -0.70051305866E+02  0.36384898417E+02  0.13483535454E+03  0.15624218099E+03  0.00000000000E+00 0.  1.
        -13    1    4    4    0    0 -0.27945019762E+02  0.12344085782E+02  0.19840927750E+02  0.36427503308E+02  0.00000000000E+00 0. -1.
         13    1    4    4    0    0 -0.10163274847E+02 -0.95666275565E+02  0.13349190721E+03  0.16454609605E+03  0.00000000000E+00 0.  1.
          2    1    1    2  501    0  0.10640357855E+03  0.69812985735E+02  0.20475757261E+03  0.24108346697E+03  0.00000000000E+00 0. -1.
<scales pt_clust_5="13000.00000" pt_clust_6="13000.00000" pt_clust_7="13000.00000" pt_clust_8="13000.00000" pt_clust_9="107.84768"></scales>
<clustering>
<clus scale="   80.160">  5  6 -1 -1</clus>
<clus scale="   92.112">  7  8 -1 -1</clus>
<clus scale="  106.171">  2  5  1 -1</clus>
<clus scale="  107.848">  1  9  2 -1</clus>
<clus scale="  107.848">  1  5  2 -1</clus>
</clustering>
</event>
<event>
 9    1  0.9171696E-005  0.1308949E+03  0.7546771E-02  0.1228850E+00
         21   -1    0    0  501  502  0.00000000000E+00  0.00000000000E+00  0.24611497286E+03  0.24611497286E+03  0.00000000000E+00 0. -1.
         -4   -1    0    0    0  501 -0.00000000000E+00 -0.00000000000E+00 -0.19358910823E+03  0.19358910823E+03  0.00000000000E+00 0.  1.
        -24    2    1    2    0    0 -0.73244530607E+01 -0.87707585618E+02  0.61124781564E+02  0.13257842205E+03  0.78067476487E+02 0.  0.
         23    2    1    2    0    0 -0.27149390406E+02  0.10793553368E+03  0.11125135287E+03  0.18078602576E+03  0.88991880333E+02 0.  0.
         11    1    3    3    0    0 -0.21357832218E+02 -0.41067274698E+02 -0.90420274724E+01  0.47163930170E+02  0.00000000000E+00 0. -1.
        -12    1    3    3    0    0  0.14033379158E+02 -0.46640310919E+02  0.70166809036E+02  0.85414491882E+02  0.00000000000E+00 0.  1.
        -13    1    4    4    0    0  0.18170254825E+02  0.40690019196E+02  0.18410961377E+01  0.44600733823E+02  0.00000000000E+00 0.  1.
         13    1    4    4    0    0 -0.45319645231E+02  0.67245514479E+02  0.10941025673E+03  0.13618529194E+03  0.00000000000E+00 0. -1.
         -3    1    1    2    0  502  0.34473843467E+02 -0.20227948058E+02 -0.11985026980E+03  0.12633963328E+03  0.00000000000E+00 0.  1.
<scales pt_clust_5="13000.00000" pt_clust_6="13000.00000" pt_clust_7="13000.00000" pt_clust_8="13000.00000" pt_clust_9="39.97021"></scales>
<clustering>
<clus scale="   39.970">  1  9  2 -1</clus>
<clus scale="   78.067">  5  6 -1 -1</clus>
<clus scale="   88.992">  7  8 -1 -1</clus>
<clus scale="  123.727">  2  5  1 -1</clus>
<clus scale="   39.970">  1  5  2 -1</clus>
</clustering>
</event>
<event>
 9    1  0.9171696E-005  0.1228478E+03  0.7546771E-02  0.1251625E+00
         -4   -1    0    0    0  501 -0.00000000000E+00  0.00000000000E+00  0.29992794285E+03  0.29992794285E+03  0.00000000000E+00 0.  1.
         21   -1    0    0  501  502  0.00000000000E+00 -0.00000000000E+00 -0.16741337917E+03  0.16741337917E+03  0.00000000000E+00 0. -1.
        -24    2    1    2    0    0  0.29134759540E+02 -0.36951642715E+02 -0.10509438176E+02  0.94841055921E+02  0.81670799462E+02 0.  0.
         23    2    1    2    0    0  0.20240184058E+02 -0.64174692862E+02 -0.65084993062E+02  0.13591249260E+03  0.98529655781E+02 0.  0.
         11    1    3    3    0    0  0.42626310157E+02 -0.55526000426E+02 -0.10429659222E+01  0.70008762443E+02  0.00000000000E+00 0. -1.
        -12    1    3    3    0    0 -0.13491550618E+02  0.18574357711E+02 -0.94664722539E+01  0.24832293478E+02  0.00000000000E+00 0.  1.
        -13    1    4    4    0    0 -0.19657602747E+02 -0.73998602691E+02 -0.31295639138E+02  0.82714155832E+02  0.00000000000E+00 0.  1.
         13    1    4    4    0    0  0.39897786805E+02  0.98239098292E+01 -0.33789353924E+02  0.53198336768E+02  0.00000000000E+00 0. -1.
         -3    1    1    2    0  502 -0.49374943597E+02  0.10112633558E+03  0.20810899492E+03  0.23658777350E+03  0.00000000000E+00 0.  1.
<scales pt_clust_5="13000.00000" pt_clust_6="13000.00000" pt_clust_7="13000.00000" pt_clust_8="13000.00000" pt_clust_9="73.37228"></scales>
<clustering>
<clus scale="   81.671">  5  6 -1 -1</clus>
<clus scale="   94.257">  1  5  2 -1</clus>
<clus scale="   73.372">  2  9  1 -1</clus>
<clus scale="   98.530">  7  8 -1 -1</clus>
<clus scale="   73.372">  2  5  1 -1</clus>
</clustering>
</event>
<event>
 9    1  0.9171696E-005  0.2097691E+03  0.7546771E-02  0.1182127E+00
          1   -1    0    0  502    0 -0.00000000000E+00  0.00000000000E+00  0.45441632144E+02  0.45441632144E+02  0.00000000000E+00 0. -1.
         21   -1    0    0  501  502  0.00000000000E+00 -0.00000000000E+00 -0.16952874032E+04  0.16952874032E+04  0.00000000000E+00 0. -1.
        -24    2    1    2    0    0  0.20741302075E+02  0.77118108161E+01 -0.42282530667E+03  0.43073841168E+03  0.79149641207E+02 0.  0.
         23    2    1    2    0    0  0.17785206832E+03 -0.46115217492E+02 -0.91787017527E+03  0.94054773271E+03  0.91577330043E+02 0.  0.
         13    1    3    3    0    0  0.77559167541E+01 -0.31953730909E+02 -0.10099233762E+03  0.10621039225E+03  0.00000000000E+00 0. -1.
        -14    1    3    3    0    0  0.12985385321E+02  0.39665541725E+02 -0.32183296904E+03  0.32452801943E+03  0.00000000000E+00 0.  1.
        -13    1    4    4    0    0  0.14647274089E+03 -0.67462211204E+02 -0.81724328811E+03  0.83300180415E+03  0.00000000000E+00 0. -1.
         13    1    4    4    0    0  0.31379327438E+02  0.21346993711E+02 -0.10062688716E+03  0.10754592856E+03  0.00000000000E+00 0.  1.
          2    1    1    2  501    0 -0.19859337040E+03  0.38403406676E+02 -0.30915028915E+03  0.36944289098E+03  0.00000000000E+00 0. -1.
<scales pt_clust_5="13000.00000" pt_clust_6="13000.00000" pt_clust_7="13000.00000" pt_clust_8="13000.00000" pt_clust_9="188.72384"></scales>
<clustering>
<clus scale="   79.150">  5  6 -1 -1</clus>
<clus scale="   82.185">  1  5  2 -1</clus>
<clus scale="   91.577">  7  8 -1 -1</clus>
<clus scale="  188.724">  2  9  1 -1</clus>
<clus scale="  188.724">  2  5  1 -1</clus>
</clustering>
</event>
<event>
 9    1  0.9171696E-005  0.2168409E+03  0.7546771E-02  0.1136338E+00
         21   -1    0    0  501  502  0.00000000000E+00  0.00000000000E+00  0.56214502531E+03  0.56214502531E+03  0.00000000000E+00 0. -1.
          1   -1    0    0  502    0 -0.00000000000E+00 -0.00000000000E+00 -0.18886395684E+03  0.18886395684E+03  0.00000000000E+00 0. -1.
         23    2    1    2    0    0 -0.24372974802E+03 -0.25821680495E+02 -0.30823198499E+02  0.26004403753E+03  0.81251970045E+02 0.  0.
        -24    2    1    2    0    0  0.12050131967E+03  0.37383830777E+02  0.17164931031E+03  0.22761302086E+03  0.80162851039E+02 0.  0.
         13    1    4    4    0    0  0.34007381832E+02 -0.10695909508E+02  0.97920185857E+02  0.10420780824E+03  0.00000000000E+00 0. -1.
        -14    1    4    4    0    0  0.86493937839E+02  0.48079740285E+02  0.73729124456E+02  0.12340521262E+03  0.00000000000E+00 0.  1.
        -13    1    3    3    0    0 -0.82896201362E+02 -0.47464057662E+02 -0.44028202094E+01  0.95624274093E+02  0.00000000000E+00 0.  1.
         13    1    3    3    0    0 -0.16083354666E+03  0.21642377167E+02 -0.26420378289E+02  0.16441976344E+03  0.00000000000E+00 0. -1.
          2    1    1    2  501    0  0.12322842835E+03 -0.11562150282E+02  0.23245495665E+03  0.26335192376E+03  0.00000000000E+00 0. -1.
<scales pt_clust_5="13000.00000" pt_clust_6="13000.00000" pt_clust_7="13000.00000" pt_clust_8="13000.00000" pt_clust_9="123.76966"></scales>
<clustering>
<clus scale="   80.163">  5  6 -1 -1</clus>
<clus scale="   81.252">  7  8 -1 -1</clus>
<clus scale="  123.770">  1  9  2 -1</clus>
<clus scale="  216.435">  1  5  2 -1</clus>
<clus scale="  123.770">  1  5  2 -1</clus>
</clustering>
</event>
<event>
 9    1  0.9171696E-005  0.2172297E+03  0.7546771E-02  0.1155834E+00
          1   -1    0    0  502    0 -0.00000000000E+00  0.00000000000E+00  0.45760505599E+03  0.45760505599E+03  0.00000000000E+00 0. -1.
         21   -1    0    0  501  502  0.00000000000E+00 -0.00000000000E+00 -0.18663072917E+03  0.18663072917E+03  0.00000000000E+00 0. -1.
        -24    2    1    2    0    0 -0.54811652911E+02 -0.94977927237E+02  0.38020922977E+02  0.14043766591E+03  0.79069737991E+02 0.  0.
         23    2    1    2    0    0 -0.14219731187E+03  0.15019892550E+03  0.19105392833E+03  0.29495019156E+03  0.87830628182E+02 0.  0.
         13    1    3    3    0    0 -0.51450880955E+02 -0.82941342340E+02 -0.29044369203E+01  0.97646787833E+02  0.00000000000E+00 0. -1.
        -14    1    3    3    0    0 -0.33607719564E+01 -0.12036584896E+02  0.40925359898E+02  0.42790878080E+02  0.00000000000E+00 0.  1.
        -11    1    4    4    0    0 -0.68223837106E+02  0.12029201664E+03  0.15398746234E+03  0.20697052876E+03  0.00000000000E+00 0.  1.
         11    1    4    4    0    0 -0.73973474759E+02  0.29906908856E+02  0.37066465997E+02  0.87979662802E+02  0.00000000000E+00 0. -1.
          2    1    1    2  501    0  0.19700896478E+03 -0.55220998263E+02  0.41899475510E+02  0.20884792769E+03  0.00000000000E+00 0. -1.
<scales pt_clust_5="13000.00000" pt_clust_6="13000.00000" pt_clust_7="13000.00000" pt_clust_8="13000.00000" pt_clust_9="198.68201"></scales>
<clustering>
<clus scale="   79.070">  5  6 -1 -1</clus>
<clus scale="   87.831">  7  8 -1 -1</clus>
<clus scale="  135.193">  1  5  2 -1</clus>
<clus scale="  198.682">  2  9  1 -1</clus>
<clus scale="  198.682">  2  5  1 -1</clus>
</clustering>
</event>
<event>
 9    1  0.9171696E-005  0.1567939E+03  0.7546771E-02  0.1221023E+00
         21   -1    0    0  501  502  0.00000000000E+00  0.00000000000E+00  0.15749515991E+03  0.15749515991E+03  0.00000000000E+00 0.  1.
          1   -1    0    0  502    0 -0.00000000000E+00 -0.00000000000E+00 -0.29140371174E+03  0.29140371174E+03  0.00000000000E+00 0. -1.
        -24    2    1    2    0    0 -0.14845696305E+02  0.16205774291E+02 -0.90462281098E+02  0.12394475553E+03  0.81828212148E+02 0.  0.
         23    2    1    2    0    0 -0.44076003741E+02  0.11412130129E+03  0.43314167288E+02  0.15766906906E+03  0.89537996038E+02 0.  0.
         11    1    3    3    0    0  0.12960492950E+02  0.27022491859E+02 -0.89180100823E+02  0.94081240567E+02  0.00000000000E+00 0. -1.
        -12    1    3    3    0    0 -0.27806189255E+02 -0.10816717568E+02 -0.12821802746E+01  0.29863514965E+02  0.00000000000E+00 0.  1.
        -11    1    4    4    0    0 -0.93979447797E+01  0.47100960994E+02  0.63440317812E+02  0.79570696973E+02  0.00000000000E+00 0.  1.
         11    1    4    4    0    0 -0.34678058961E+02  0.67020340299E+02 -0.20126150525E+02  0.78098372083E+02  0.00000000000E+00 0. -1.
          2    1    1    2  501    0  0.58921700045E+02 -0.13032707558E+03 -0.86760438017E+02  0.16728504706E+03  0.00000000000E+00 0. -1.
<scales pt_clust_5="13000.00000" pt_clust_6="13000.00000" pt_clust_7="13000.00000" pt_clust_8="13000.00000" pt_clust_9="128.71405"></scales>
<clustering>
<clus scale="   81.828">  5  6 -1 -1</clus>
<clus scale="   84.728">  2  5  1 -1</clus>
<clus scale="   89.538">  7  8 -1 -1</clus>
<clus scale="  128.714">  1  9  2 -1</clus>
<clus scale="  128.714">  1  5  2 -1</clus>
</clustering>
</event>
<event>
 9    1  0.9171696E-005  0.1613149E+03  0.7546771E-02  0.1210207E+00
         21   -1    0    0  501  502  0.00000000000E+00  0.00000000000E+00  0.81186433693E+02  0.81186433693E+02  0.00000000000E+00 0. -1.
         -4   -1    0    0    0  501 -0.00000000000E+00 -0.00000000000E+00 -0.76169944823E+03  0.76169944823E+03  0.00000000000E+00 0.  1.
        -24    2    1    2    0    0  0.62197102756E+02  0.29942443302E+02 -0.41407129427E+03  0.42546493271E+03  0.69284505628E+02 0.  0.
         23    2    1    2    0    0 -0.97170288097E+02 -0.14480977487E+03 -0.20157917659E+03  0.28094832513E+03  0.88802371436E+02 0.  0.
         13    1    3    3    0    0  0.22095852822E+02  0.43724433419E+02 -0.14449628503E+03  0.15257532296E+03  0.00000000000E+00 0. -1.
        -14    1    3    3    0    0  0.40101249935E+02 -0.13781990117E+02 -0.26957500925E+03  0.27288960975E+03  0.00000000000E+00 0.  1.
        -13    1    4    4    0    0 -0.11385187245E+02 -0.77165402603E+02 -0.12570252539E+03  0.14793663082E+03  0.00000000000E+00 0.  1.
         13    1    4    4    0    0 -0.85785100852E+02 -0.67644372262E+02 -0.75876651201E+02  0.13301169431E+03  0.00000000000E+00 0. -1.
         -3    1    1    2    0  502  0.34973185341E+02  0.11486733156E+03 -0.64862543673E+02  0.13647262409E+03  0.00000000000E+00 0.  1.
<scales pt_clust_5="13000.00000" pt_clust_6="13000.00000" pt_clust_7="13000.00000" pt_clust_8="13000.00000" pt_clust_9="134.67235"></scales>
<clustering>
<clus scale="   69.285">  5  6 -1 -1</clus>
<clus scale="   88.802">  7  8 -1 -1</clus>
<clus scale="   97.803">  2  5  1 -1</clus>
<clus scale="  134.672">  1  9  2 -1</clus>
<clus scale="  134.672">  1  5  2 -1</clus>
</clustering>
</event>
<event>
 9    1  0.9171696E-005  0.1243398E+03  0.7546771E-02  0.1239779E+00
         21   -1    0    0  501  502  0.00000000000E+00  0.00000000000E+00  0.31929437933E+03  0.31929437933E+03  0.00000000000E+00 0.  1.
          3   -1    0    0  502    0 -0.00000000000E+00 -0.00000000000E+00 -0.71723381307E+02  0.71723381307E+02  0.00000000000E+00 0. -1.
        -24    2    1    2    0    0 -0.47474397501E+02 -0.49379875943E+02  0.57655512752E+02  0.11938560761E+03  0.78971986099E+02 0.  0.
         23    2    1    2    0    0  0.65518529199E+02  0.93075825309E+02  0.13219558332E+03  0.19702308011E+03  0.91578572389E+02 0.  0.
         13    1    3    3    0    0 -0.60162568344E+02 -0.44444360253E+02  0.17269131552E+02  0.76766260119E+02  0.00000000000E+00 0. -1.
        -14    1    3    3    0    0  0.12688170843E+02 -0.49355156901E+01  0.40386381200E+02  0.42619347495E+02  0.00000000000E+00 0.  1.
        -11    1    4    4    0    0  0.26927043338E+02  0.94444396263E+02  0.59826081224E+02  0.11499552010E+03  0.00000000000E+00 0. -1.
         11    1    4    4    0    0  0.38591485861E+02 -0.13685709537E+01  0.72369502095E+02  0.82027560008E+02  0.00000000000E+00 0.  1.
          4    1    1    2  501    0 -0.18044131698E+02 -0.43695949366E+02  0.57719901948E+02  0.74609072911E+02  0.00000000000E+00 0. -1.
<scales pt_clust_5="13000.00000" pt_clust_6="13000.00000" pt_clust_7="13000.00000" pt_clust_8="13000.00000" pt_clust_9="47.27501"></scales>
<clustering>
<clus scale="   47.275">  1  9  2 -1</clus>
<clus scale="   78.972">  5  6 -1 -1</clus>
<clus scale="   91.579">  7  8 -1 -1</clus>
<clus scale="  115.370">  2  5  1 -1</clus>
<clus scale="   47.275">  1  5  2 -1</clus>
</clustering>
</event>
<event>
 9    1  0.9171696E-005  0.1327681E+03  0.7546771E-02  0.1235492E+00
         21   -1    0    0  501  502  0.00000000000E+00  0.00000000000E+00  0.57529333857E+02  0.57529333857E+02  0.00000000000E+00 0. -1.
          1   -1    0    0  502    0 -0.00000000000E+00 -0.00000000000E+00 -0.54037411789E+03  0.54037411789E+03  0.00000000000E+00 0. -1.
         23    2    1    2    0    0 -0.12294126623E+02 -0.18586768090E+02 -0.87828643690E+02  0.13568114311E+03  0.10098954622E+03 0.  0.
        -24    2    1    2    0    0  0.76936083957E+01 -0.95220838723E+02 -0.23229959786E+03  0.26360204448E+03  0.79979590834E+02 0.  0.
         13    1    4    4    0    0  0.39883175089E+02 -0.69547835491E+02 -0.12317472764E+03  0.14696796456E+03  0.00000000000E+00 0. -1.
        -14    1    4    4    0    0 -0.32189566693E+02 -0.25673003232E+02 -0.10912487022E+03  0.11663407992E+03  0.00000000000E+00 0.  1.
        -13    1    3    3    0    0 -0.50445512258E+02 -0.32799745929E+02 -0.37312429085E+02  0.70801062169E+02  0.00000000000E+00 0. -1.
         13    1    3    3    0    0  0.38151385635E+02  0.14212977839E+02 -0.50516214606E+02  0.64880080942E+02  0.00000000000E+00 0.  1.
          2    1    1    2  501    0  0.46005182274E+01  0.11380760681E+03 -0.16271654249E+03  0.19862026416E+03  0.00000000000E+00 0. -1.
<scales pt_clust_5="13000.00000" pt_clust_6="13000.00000" pt_clust_7="13000.00000" pt_clust_8="13000.00000" pt_clust_9="105.97465"></scales>
<clustering>
<clus scale="   79.980">  5  6 -1 -1</clus>
<clus scale="  100.990">  7  8 -1 -1</clus>
<clus scale="  103.419">  2  7  1 -1</clus>
<clus scale="  105.975">  1  9  2 -1</clus>
<clus scale="  105.975">  1  5  2 -1</clus>
</clustering>
</event>
<event>
 9    1  0.9171696E-005  0.1857120E+03  0.7546771E-02  0.1195802E+00
         21   -1    0    0  501  502  0.00000000000E+00  0.00000000000E+00  0.43776366823E+03  0.43776366823E+03  0.00000000000E+00 0.  1.
         -2   -1    0    0    0  501 -0.00000000000E+00 -0.00000000000E+00 -0.44227559386E+03  0.44227559386E+03  0.00000000000E+00 0.  1.
         23    2    1    2    0    0  0.24520243000E+02  0.18170351290E+02 -0.36228494462E+03  0.37270345661E+03  0.82012691023E+02 0.  0.
        -24    2    1    2    0    0  0.56438246942E+02  0.13996833479E+03  0.11409944685E+03  0.20577498094E+03  0.80921249043E+02 0.  0.
         11    1    4    4    0    0  0.44072801813E+02  0.45543407069E+02  0.85333592426E+02  0.10629410042E+03  0.00000000000E+00 0. -1.
        -12    1    4    4    0    0  0.12365445129E+02  0.94424927722E+02  0.28765854422E+02  0.99480880521E+02  0.00000000000E+00 0.  1.
        -11    1    3    3    0    0 -0.18542113908E+02  0.35488869123E+02 -0.19683711001E+03  0.20086840890E+03  0.00000000000E+00 0.  1.
         11    1    3    3    0    0  0.43062356907E+02 -0.17318517833E+02 -0.16544783462E+03  0.17183504771E+03  0.00000000000E+00 0. -1.
         -1    1    1    2    0  502 -0.80958489942E+02 -0.15813868608E+03  0.24367357215E+03  0.30156082453E+03  0.00000000000E+00 0.  1.
<scales pt_clust_5="13000.00000" pt_clust_6="13000.00000" pt_clust_7="13000.00000" pt_clust_8="13000.00000" pt_clust_9="167.15473"></scales>
<clustering>
<clus scale="   80.921">  5  6 -1 -1</clus>
<clus scale="   82.013">  7  8 -1 -1</clus>
<clus scale="   87.507">  2  7  1 -1</clus>
<clus scale="  167.155">  1  9  2 -1</clus>
<clus scale="  167.155">  1  5  2 -1</clus>
</clustering>
</event>
<event>
 9    1  0.9171696E-005  0.9225658E+02  0.7546771E-02  0.1301750E+00
          1   -1    0    0  502    0 -0.00000000000E+00  0.00000000000E+00  0.21447233712E+03  0.21447233712E+03  0.00000000000E+00 0. -1.
         21   -1    0    0  501  502  0.00000000000E+00 -0.00000000000E+00 -0.82593839442E+02  0.82593839442E+02  0.00000000000E+00 0.  1.
         23    2    1    2    0    0 -0.21028327206E+02 -0.21681943304E+02  0.12448193417E+03  0.15685100521E+03  0.90521758097E+02 0.  0.
        -24    2    1    2    0    0 -0.97803253049E+01 -0.18123694049E+02 -0.11068468607E+02  0.86599695553E+02  0.83383890671E+02 0.  0.
         11    1    4    4    0    0  0.13758716338E+02  0.14836752817E+02  0.25140125696E+02  0.32271619566E+02  0.00000000000E+00 0. -1.
        -12    1    4    4    0    0 -0.23539041643E+02 -0.32960446866E+02 -0.36208594303E+02  0.54328075987E+02  0.00000000000E+00 0.  1.
        -13    1    3    3    0    0 -0.55723266740E+02 -0.18790318602E+02  0.62892251027E+02  0.86102228592E+02  0.00000000000E+00 0.  1.
         13    1    3    3    0    0  0.34694939533E+02 -0.28916247016E+01  0.61589683146E+02  0.70748776616E+02  0.00000000000E+00 0. -1.
          2    1    1    2  501    0  0.30808652511E+02  0.39805637353E+02  0.18465032115E+02  0.53615475803E+02  0.00000000000E+00 0. -1.
<scales pt_clust_5="13000.00000" pt_clust_6="13000.00000" pt_clust_7="13000.00000" pt_clust_8="13000.00000" pt_clust_9="50.33549"></scales>
<clustering>
<clus scale="   50.335">  2  9  1 -1</clus>
<clus scale="   83.384">  5  6 -1 -1</clus>
<clus scale="   85.264">  2  5  1 -1</clus>
<clus scale="   90.522">  7  8 -1 -1</clus>
<clus scale="   50.335">  2  5  1 -1</clus>
</clustering>
</event>
<event>
 9    1  0.9171696E-005  0.1059013E+03  0.7546771E-02  0.1277528E+00
          1   -1    0    0  502    0 -0.00000000000E+00  0.00000000000E+00  0.69145014427E+03  0.69145014427E+03  0.00000000000E+00 0. -1.
         21   -1    0    0  501  502  0.00000000000E+00 -0.00000000000E+00 -0.91559821236E+02  0.91559821236E+02  0.00000000000E+00 0.  1.
        -24    2    1    2    0    0 -0.17848136382E+02  0.34158306162E+02  0.63714245329E+03  0.64339228342E+03  0.80732761180E+02 0.  0.
         23    2    1    2    0    0  0.39677447351E+01 -0.23566233998E+01 -0.22386824667E+02  0.10186864754E+03  0.99271117460E+02 0.  0.
         13    1    3    3    0    0 -0.32271585086E+02 -0.16215941909E+02  0.21534591428E+03  0.21835355452E+03  0.00000000000E+00 0. -1.
        -14    1    3    3    0    0  0.14423448703E+02  0.50374248071E+02  0.42179653901E+03  0.42503872890E+03  0.00000000000E+00 0.  1.
        -13    1    4    4    0    0  0.35847118676E+02 -0.36126627017E+01  0.25632813231E+02  0.44216607325E+02  0.00000000000E+00 0. -1.
         13    1    4    4    0    0 -0.31879373941E+02  0.12560393020E+01 -0.48019637899E+02  0.57652040220E+02  0.00000000000E+00 0.  1.
          2    1    1    2  501    0  0.13880391647E+02 -0.31801682762E+02 -0.14865305587E+02  0.37749034544E+02  0.00000000000E+00 0. -1.
<scales pt_clust_5="13000.00000" pt_clust_6="13000.00000" pt_clust_7="13000.00000" pt_clust_8="13000.00000" pt_clust_9="34.69888"></scales>
<clustering>
<clus scale="   34.699">  2  9  1 -1</clus>
<clus scale="   80.733">  5  6 -1 -1</clus>
<clus scale="   88.759">  1  5  2 -1</clus>
<clus scale="   99.271">  7  8 -1 -1</clus>
<clus scale="   34.699">  2  5  1 -1</clus>
</clustering>
</event>
<event>
 9    1  0.9171696E-005  0.2027979E+03  0.7546771E-02  0.1148478E+00
          1   -1    0    0  502    0 -0.00000000000E+00  0.00000000000E+00  0.43385021050E+03  0.43385021050E+03  0.00000000000E+00 0. -1.
         21   -1    0    0  501  502  0.00000000000E+00 -0.00000000000E+00 -0.11857880236E+03  0.11857880236E+03  0.00000000000E+00 0. -1.
        -24    2    1    2    0    0  0.18205486259E+03  0.11513462814E+02  0.23921681561E+03  0.31137163078E+03  0.80318582943E+02 0.  0.
         23    2    1    2    0    0 -0.17759166816E+03  0.15821739724E+02  0.62675527326E+02  0.21029811050E+03  0.92238525073E+02 0.  0.
         13    1    3    3    0    0  0.11421981790E+03 -0.28045928906E+02  0.16984140969E+03  0.20658858966E+03  0.00000000000E+00 0. -1.
        -14    1    3    3    0    0  0.67835044690E+02  0.39559391720E+02  0.69375405915E+02  0.10478304112E+03  0.00000000000E+00 0.  1.
        -13    1    4    4    0    0 -0.10237651021E+03  0.53287032961E+02  0.47994424171E+02  0.12499568983E+03  0.00000000000E+00 0. -1.
         13    1    4    4    0    0 -0.75215157949E+02 -0.37465293237E+02  0.14681103155E+02  0.85302420672E+02  0.00000000000E+00 0.  1.
          2    1    1    2  501    0 -0.44631944320E+01 -0.27335202538E+02  0.13379065209E+02  0.30759271581E+02  0.00000000000E+00 0. -1.
<scales pt_clust_5="13000.00000" pt_clust_6="13000.00000" pt_clust_7="13000.00000" pt_clust_8="13000.00000" pt_clust_9="27.69717"></scales>
<clustering>
<clus scale="   27.697">  2  9  1 -1</clus>
<clus scale="   80.319">  5  6 -1 -1</clus>
<clus scale="   92.239">  7  8 -1 -1</clus>
<clus scale="  197.662">  1  5  2 -1</clus>
<clus scale="   27.697">  2  5  1 -1</clus>
</clustering>
</event>
<event>
 9    1  0.9171696E-005  0.1094005E+03  0.7546771E-02  0.1266726E+00
          1   -1    0    0  502    0 -0.00000000000E+00  0.00000000000E+00  0.88962885707E+02  0.88962885707E+02  0.00000000000E+00 0. -1.
         21   -1    0    0  501  502  0.00000000000E+00 -0.00000000000E+00 -0.26375911490E+03  0.26375911490E+03  0.00000000000E+00 0.  1.
         23    2    1    2    0    0  0.60996640132E+02 -0.15201422281E+01  0.18701249229E+02  0.11250699007E+03  0.92656274217E+02 0.  0.
        -24    2    1    2    0    0 -0.48758700473E+02  0.28249205360E+02 -0.91780208992E+02  0.13433482881E+03  0.80292035676E+02 0.  0.
         11    1    4    4    0    0 -0.29361192260E+02 -0.35520173271E+01  0.55753790577E+01  0.30096200586E+02  0.00000000000E+00 0. -1.
        -12    1    4    4    0    0 -0.19397508212E+02  0.31801222687E+02 -0.97355588050E+02  0.10423862822E+03  0.00000000000E+00 0.  1.
        -11    1    3    3    0    0  0.24473927439E+02  0.35853509709E+02 -0.19687216772E+02  0.47665855567E+02  0.00000000000E+00 0.  1.
         11    1    3    3    0    0  0.36522712692E+02 -0.37373651937E+02  0.38388466001E+02  0.64841134501E+02  0.00000000000E+00 0. -1.
          2    1    1    2  501    0 -0.12237939659E+02 -0.26729063132E+02 -0.10171726943E+03  0.10588018173E+03  0.00000000000E+00 0. -1.
<scales pt_clust_5="13000.00000" pt_clust_6="13000.00000" pt_clust_7="13000.00000" pt_clust_8="13000.00000" pt_clust_9="29.39745"></scales>
<clustering>
<clus scale="   29.397">  2  9  1 -1</clus>
<clus scale="   80.292">  5  6 -1 -1</clus>
<clus scale="   92.656">  7  8 -1 -1</clus>
<clus scale="   99.147">  2  5  1 -1</clus>
<clus scale="   29.397">  2  5  1 -1</clus>
</clustering>
</event>
<event>
 9    1  0.9171696E-005  0.9374109E+02  0.7546771E-02  0.1302398E+00
          1   -1    0    0  502    0 -0.00000000000E+00  0.00000000000E+00  0.10684187004E+04  0.10684187004E+04  0.00000000000E+00 0. -1.
         21   -1    0    0  501  502  0.00000000000E+00 -0.00000000000E+00 -0.33371517176E+02  0.33371517176E+02  0.00000000000E+00 0.  1.
        -24    2    1    2    0    0 -0.28412924272E+02 -0.47097165587E+01  0.74191179417E+03  0.74665222531E+03  0.78911086240E+02 0.  0.
         23    2    1    2    0    0 -0.45471517135E+02 -0.88091380256E+01  0.24491547737E+03  0.26588089174E+03  0.92540789699E+02 0.  0.
         13    1    3    3    0    0  0.18032151651E+02  0.13355871101E+02  0.87006929263E+02  0.89854012297E+02  0.00000000000E+00 0. -1.
        -14    1    3    3    0    0 -0.46445075922E+02 -0.18065587659E+02  0.65490486490E+03  0.65679821301E+03  0.00000000000E+00 0.  1.
        -13    1    4    4    0    0 -0.76923901499E+01  0.23016432835E+02  0.10715857048E+02  0.26528449614E+02  0.00000000000E+00 0.  1.
         13    1    4    4    0    0 -0.37779126985E+02 -0.31825570861E+02  0.23419962032E+03  0.23935244213E+03  0.00000000000E+00 0. -1.
          2    1    1    2  501    0  0.73884441406E+02  0.13518854584E+02  0.48219911692E+02  0.89257100529E+02  0.00000000000E+00 0. -1.
<scales pt_clust_5="13000.00000" pt_clust_6="13000.00000" pt_clust_7="13000.00000" pt_clust_8="13000.00000" pt_clust_9="75.11105"></scales>
<clustering>
<clus scale="   75.111">  2  9  1 -1</clus>
<clus scale="   78.911">  5  6 -1 -1</clus>
<clus scale="   80.315">  1  5  2 -1</clus>
<clus scale="   92.541">  7  8 -1 -1</clus>
<clus scale="   75.111">  2  5  1 -1</clus>
</clustering>
</event>
<event>
 9    1  0.9171696E-005  0.3389568E+03  0.7546771E-02  0.1109368E+00
         21   -1    0    0  501  502  0.00000000000E+00  0.00000000000E+00  0.26140554290E+03  0.26140554290E+03  0.00000000000E+00 0. -1.
          3   -1    0    0  502    0 -0.00000000000E+00 -0.00000000000E+00 -0.59567584272E+03  0.59567584272E+03  0.00000000000E+00 0. -1.
         23    2    1    2    0    0 -0.61508529159E+02  0.61148041801E+01 -0.79224199190E+02  0.13625868835E+03  0.92028617426E+02 0.  0.
        -24    2    1    2    0    0  0.35300647255E+03 -0.61283783117E+02 -0.76773177574E+02  0.37470725073E+03  0.78371750100E+02 0.  0.
         13    1    4    4    0    0  0.19628358254E+03 -0.67026850937E+02 -0.65349922051E+02  0.21746368854E+03  0.00000000000E+00 0. -1.
        -14    1    4    4    0    0  0.15672289002E+03  0.57430678194E+01 -0.11423255524E+02  0.15724356219E+03  0.00000000000E+00 0.  1.
        -11    1    3    3    0    0 -0.57803347639E+02  0.26979572710E+02 -0.10888067012E+02  0.64712242622E+02  0.00000000000E+00 0.  1.
         11    1    3    3    0    0 -0.37051815197E+01 -0.20864768529E+02 -0.68336132178E+02  0.71546445733E+02  0.00000000000E+00 0. -1.
          4    1    1    2  501    0 -0.29149794340E+03  0.55168978937E+02 -0.17827292305E+03  0.34611544654E+03  0.00000000000E+00 0. -1.
<scales pt_clust_5="13000.00000" pt_clust_6="13000.00000" pt_clust_7="13000.00000" pt_clust_8="13000.00000" pt_clust_9="329.77219"></scales>
<clustering>
<clus scale="   78.372">  5  6 -1 -1</clus>
<clus scale="   92.029">  7  8 -1 -1</clus>
<clus scale="  110.860">  2  7  1 -1</clus>
<clus scale="  329.772">  1  9  2 -1</clus>
<clus scale="  329.772">  1  5  2 -1</clus>
</clustering>
</event>
<event>
 9    1  0.9171696E-005  0.2864391E+03  0.7546771E-02  0.1092465E+00
         21   -1    0    0  501  502  0.00000000000E+00  0.00000000000E+00  0.11009462387E+03  0.11009462387E+03  0.00000000000E+00 0. -1.
          1   -1    0    0  502    0 -0.00000000000E+00 -0.00000000000E+00 -0.11786471527E+04  0.11786471527E+04  0.00000000000E+00 0. -1.
         23    2    1    2    0    0  0.19947807532E+03 -0.93166376502E+02 -0.35084800077E+03  0.42370909554E+03  0.89239014763E+02 0.  0.
        -24    2    1    2    0    0 -0.30937571016E+03  0.15369446940E+03 -0.56432284970E+03  0.66687345356E+03  0.83214208000E+02 0.  0.
         13    1    4    4    0    0 -0.26983026684E+03  0.10596839059E+03 -0.42578195881E+03  0.51509994093E+03  0.00000000000E+00 0. -1.
        -14    1    4    4    0    0 -0.39545443321E+02  0.47726078810E+02 -0.13854089089E+03  0.15177351262E+03  0.00000000000E+00 0.  1.
        -13    1    3    3    0    0  0.11952463548E+03 -0.25139181296E+02 -0.12557798168E+03  0.17517975455E+03  0.00000000000E+00 0.  1.
         13    1    3    3    0    0  0.79953439840E+02 -0.68027195206E+02 -0.22527001910E+03  0.24852934099E+03  0.00000000000E+00 0. -1.
          2    1    1    2  501    0  0.10989763483E+03 -0.60528092898E+02 -0.15338167838E+03  0.19815922748E+03  0.00000000000E+00 0. -1.
<scales pt_clust_5="13000.00000" pt_clust_6="13000.00000" pt_clust_7="13000.00000" pt_clust_8="13000.00000" pt_clust_9="125.46370"></scales>
<clustering>
<clus scale="   83.214">  5  6 -1 -1</clus>
<clus scale="   89.239">  7  8 -1 -1</clus>
<clus scale="  125.464">  1  9  2 -1</clus>
<clus scale="  284.620">  1  5  2 -1</clus>
<clus scale="  125.464">  1  5  2 -1</clus>
</clustering>
</event>
<event>
 9    1  0.9171696E-005  0.1623349E+03  0.7546771E-02  0.1208370E+00
         -4   -1    0    0    0  501 -0.00000000000E+00  0.00000000000E+00  0.52706778414E+03  0.52706778414E+03  0.00000000000E+00 0.  1.
         21   -1    0    0  501  502  0.00000000000E+00 -0.00000000000E+00 -0.32353149707E+03  0.32353149707E+03  0.00000000000E+00 0.  1.
        -24    2    1    2    0    0 -0.48117307212E+02  0.37871250325E+02  0.27022985426E+03  0.28807505212E+03  0.78826103992E+02 0.  0.
         23    2    1    2    0    0  0.73378466645E+01 -0.16351756832E+03  0.19410077192E+03  0.27018256436E+03  0.92367035678E+02 0.  0.
         13    1    3    3    0    0 -0.24582387730E+01  0.51053228705E+02  0.16197328497E+03  0.16984646050E+03  0.00000000000E+00 0. -1.
        -14    1    3    3    0    0 -0.45659068439E+02 -0.13181978380E+02  0.10825656928E+03  0.11822859162E+03  0.00000000000E+00 0.  1.
        -13    1    4    4    0    0 -0.36605590298E+02 -0.80690906568E+02  0.12712194386E+03  0.15495476842E+03  0.00000000000E+00 0.  1.
         13    1    4    4    0    0  0.43943436963E+02 -0.82826661753E+02  0.66978828052E+02  0.11522779594E+03  0.00000000000E+00 0. -1.
         -3    1    1    2    0  502  0.40779460548E+02  0.12564631800E+03 -0.26079433910E+03  0.29234166473E+03  0.00000000000E+00 0.  1.
<scales pt_clust_5="13000.00000" pt_clust_6="13000.00000" pt_clust_7="13000.00000" pt_clust_8="13000.00000" pt_clust_9="133.49515"></scales>
<clustering>
<clus scale="   78.826">  5  6 -1 -1</clus>
<clus scale="   92.367">  7  8 -1 -1</clus>
<clus scale="   99.815">  1  5  2 -1</clus>
<clus scale="  133.495">  2  9  1 -1</clus>
<clus scale="  133.495">  2  5  1 -1</clus>
</clustering>
</event>
<event>
 9    1  0.9171696E-005  0.1062206E+03  0.7546771E-02  0.1275128E+00
          1   -1    0    0  502    0 -0.00000000000E+00  0.00000000000E+00  0.61293220390E+03  0.61293220390E+03  0.00000000000E+00 0. -1.
         21   -1    0    0  501  502  0.00000000000E+00 -0.00000000000E+00 -0.30134576082E+02  0.30134576082E+02  0.00000000000E+00 0.  1.
         23    2    1    2    0    0  0.13728450777E+02  0.42037100121E+02  0.31925760408E+03  0.33586659894E+03  0.94474157171E+02 0.  0.
        -24    2    1    2    0    0 -0.35389568162E+02 -0.41678496187E+02  0.26850749926E+03  0.28497388094E+03  0.78258016084E+02 0.  0.
         13    1    4    4    0    0  0.36414265932E+01 -0.38590184489E+02  0.21613919666E+03  0.21958737363E+03  0.00000000000E+00 0. -1.
        -14    1    4    4    0    0 -0.39030994756E+02 -0.30883116987E+01  0.52368302595E+02  0.65386507304E+02  0.00000000000E+00 0.  1.
        -13    1    3    3    0    0  0.29726958800E+02 -0.11610270430E+02  0.40601619032E+02  0.51642830354E+02  0.00000000000E+00 0.  1.
         13    1    3    3    0    0 -0.15998508023E+02  0.53647370551E+02  0.27865598504E+03  0.28422376858E+03  0.00000000000E+00 0. -1.
          2    1    1    2  501    0  0.21661117385E+02 -0.35860393378E+00 -0.49674755199E+01  0.22226300102E+02  0.00000000000E+00 0. -1.
<scales pt_clust_5="13000.00000" pt_clust_6="13000.00000" pt_clust_7="13000.00000" pt_clust_8="13000.00000" pt_clust_9="21.66409"></scales>
<clustering>
<clus scale="   21.664">  2  9  1 -1</clus>
<clus scale="   78.258">  5  6 -1 -1</clus>
<clus scale="   92.097">  2  5  1 -1</clus>
<clus scale="   94.474">  7  8 -1 -1</clus>
<clus scale="   21.664">  2  5  1 -1</clus>
</clustering>
</event>
<event>
 9    1  0.9171696E-005  0.1536172E+03  0.7546771E-02  0.1197420E+00
          1   -1    0    0  502    0 -0.00000000000E+00  0.00000000000E+00  0.64341150482E+03  0.64341150482E+03  0.00000000000E+00 0. -1.
         21   -1    0    0  501  502  0.00000000000E+00 -0.00000000000E+00 -0.80448139271E+02  0.80448139271E+02  0.00000000000E+00 0. -1.
        -24    2    1    2    0    0  0.15319678002E+02  0.98902723420E+02  0.10303290130E+03  0.16483566286E+03  0.80861460324E+02 0.  0.
         23    2    1    2    0    0 -0.88016279044E+02 -0.14235160559E+03  0.16182698742E+03  0.24912353905E+03  0.88677611954E+02 0.  0.
         13    1    3    3    0    0 -0.20553389142E+02 -0.18411726121E+01  0.25195185799E+02  0.32567301228E+02  0.00000000000E+00 0. -1.
        -14    1    3    3    0    0  0.35873067144E+02  0.10074389603E+03  0.77837715505E+02  0.13226836163E+03  0.00000000000E+00 0.  1.
        -11    1    4    4    0    0 -0.34582795187E+02 -0.54551116961E+02  0.12360840816E+03  0.13946624198E+03  0.00000000000E+00 0.  1.
         11    1    4    4    0    0 -0.53433483857E+02 -0.87800488630E+02  0.38218579262E+02  0.10965729707E+03  0.00000000000E+00 0. -1.
          2    1    1    2  501    0  0.72696601042E+02  0.43448882171E+02  0.29810347683E+03  0.30990044218E+03  0.00000000000E+00 0. -1.
<scales pt_clust_5="13000.00000" pt_clust_6="13000.00000" pt_clust_7="13000.00000" pt_clust_8="13000.00000" pt_clust_9="84.69125"></scales>
<clustering>
<clus scale="   80.861">  5  6 -1 -1</clus>
<clus scale="   84.691">  2  9  1 -1</clus>
<clus scale="   88.678">  7  8 -1 -1</clus>
<clus scale="  149.242">  1  5  2 -1</clus>
<clus scale="   84.691">  2  5  1 -1</clus>
</clustering>
</event>
<event>
 9    1  0.9171696E-005  0.2595457E+03  0.7546771E-02  0.1145361E+00
         21   -1    0    0  501  502  0.00000000000E+00  0.00000000000E+00  0.19865836456E+03  0.19865836456E+03  0.00000000000E+00 0.  1.
          1   -1    0    0  502    0 -0.00000000000E+00 -0.00000000000E+00 -0.79160470480E+03  0.79160470480E+03  0.00000000000E+00 0. -1.
         23    2    1    2    0    0  0.34276832851E+02  0.30441255993E+02  0.56734396369E+02  0.11633223519E+03  0.90624642770E+02 0.  0.
        -24    2    1    2    0    0  0.18483386508E+03 -0.16305855271E+03 -0.11760317649E+03  0.28341972053E+03  0.75793017978E+02 0.  0.
         11    1    4    4    0    0  0.39399713305E+02 -0.73620029063E+02 -0.16880944744E+02  0.85189273874E+02  0.00000000000E+00 0. -1.
        -12    1    4    4    0    0  0.14543415178E+03 -0.89438523647E+02 -0.10072223174E+03  0.19823044666E+03  0.00000000000E+00 0.  1.
        -11    1    3    3    0    0  0.62608121441E+02  0.13083453192E+02  0.52675738016E+02  0.82859441184E+02  0.00000000000E+00 0.  1.
         11    1    3    3    0    0 -0.28331288590E+02  0.17357802802E+02  0.40586583529E+01  0.33472794011E+02  0.00000000000E+00 0. -1.
          2    1    1    2  501    0 -0.21911069793E+03  0.13261729672E+03 -0.53207756012E+03  0.59051111363E+03  0.00000000000E+00 0. -1.
<scales pt_clust_5="13000.00000" pt_clust_6="13000.00000" pt_clust_7="13000.00000" pt_clust_8="13000.00000" pt_clust_9="248.23263"></scales>
<clustering>
<clus scale="   75.793">  5  6 -1 -1</clus>
<clus scale="   90.625">  7  8 -1 -1</clus>
<clus scale="  101.560">  2  7  1 -1</clus>
<clus scale="  248.233">  1  9  2 -1</clus>
<clus scale="  248.233">  1  5  2 -1</clus>
</clustering>
</event>
<event>
 9    1  0.9171696E-005  0.9741688E+02  0.7546771E-02  0.1288926E+00
         21   -1    0    0  501  502  0.00000000000E+00  0.00000000000E+00  0.73825874720E+02  0.73825874720E+02  0.00000000000E+00 0.  1.
          1   -1    0    0  502    0 -0.00000000000E+00 -0.00000000000E+00 -0.28027214050E+03  0.28027214050E+03  0.00000000000E+00 0. -1.
         23    2    1    2    0    0  0.42453691294E+02  0.31214659413E+02 -0.19396819056E+03  0.21901976496E+03  0.87001882899E+02 0.  0.
        -24    2    1    2    0    0  0.48629478797E+01 -0.31644609645E+02 -0.12355368627E+02  0.87759498622E+02  0.80771559863E+02 0.  0.
         13    1    4    4    0    0 -0.13099405445E+02 -0.40991864598E+02 -0.36372047817E+02  0.56345836126E+02  0.00000000000E+00 0. -1.
        -14    1    4    4    0    0  0.17962353324E+02  0.93472549530E+01  0.24016679190E+02  0.31413662496E+02  0.00000000000E+00 0.  1.
        -13    1    3    3    0    0 -0.19958994804E+01  0.52360816706E+02 -0.95324344389E+02  0.10877669500E+03  0.00000000000E+00 0. -1.
         13    1    3    3    0    0  0.44449590775E+02 -0.21146157292E+02 -0.98643846167E+02  0.11024306996E+03  0.00000000000E+00 0.  1.
          2    1    1    2  501    0 -0.47316639174E+02  0.42995023231E+00 -0.12270659708E+00  0.47318751641E+02  0.00000000000E+00 0. -1.
<scales pt_clust_5="13000.00000" pt_clust_6="13000.00000" pt_clust_7="13000.00000" pt_clust_8="13000.00000" pt_clust_9="47.31859"></scales>
<clustering>
<clus scale="   47.319">  1  9  2 -1</clus>
<clus scale="   80.772">  5  6 -1 -1</clus>
<clus scale="   87.002">  7  8 -1 -1</clus>
<clus scale="   91.895">  1  5  2 -1</clus>
<clus scale="   47.319">  1  5  2 -1</clus>
</clustering>
</event>
<event>
 9    1  0.9171696E-005  0.4171790E+03  0.7546771E-02  0.1055720E+00
         21   -1    0    0  501  502  0.00000000000E+00  0.00000000000E+00  0.13553694577E+04  0.13553694577E+04  0.00000000000E+00 0. -1.
          3   -1    0    0  502    0 -0.00000000000E+00 -0.00000000000E+00 -0.27731510507E+03  0.27731510507E+03  0.00000000000E+00 0. -1.
        -24    2    1    2    0    0  0.20409593824E+03 -0.12007346291E+03  0.10003260517E+03  0.26996586708E+03  0.82475807291E+02 0.  0.
         23    2    1    2    0    0  0.34685383982E+03 -0.57200830149E+01  0.53631877523E+03  0.64545222512E+03  0.92900165233E+02 0.  0.
         11    1    3    3    0    0  0.17486511812E+03 -0.95129324665E+02  0.47111995388E+02  0.20456524157E+03  0.00000000000E+00 0. -1.
        -12    1    3    3    0    0  0.29230820115E+02 -0.24944138246E+02  0.52920609782E+02  0.65400625510E+02  0.00000000000E+00 0.  1.
        -11    1    4    4    0    0  0.24030318254E+03  0.86350568908E+01  0.29021116029E+03  0.37688552812E+03  0.00000000000E+00 0. -1.
         11    1    4    4    0    0  0.10655065728E+03 -0.14355139906E+02  0.24610761494E+03  0.26856669701E+03  0.00000000000E+00 0.  1.
          4    1    1    2  501    0 -0.55094977806E+03  0.12579354593E+03  0.44170297223E+03  0.71726647058E+03  0.00000000000E+00 0. -1.
<scales pt_clust_5="13000.00000" pt_clust_6="13000.00000" pt_clust_7="13000.00000" pt_clust_8="13000.00000" pt_clust_9="406.70383"></scales>
<clustering>
<clus scale="   82.476">  5  6 -1 -1</clus>
<clus scale="   92.900">  7  8 -1 -1</clus>
<clus scale="  250.749">  2  5  1 -1</clus>
<clus scale="  406.704">  1  9  2 -1</clus>
<clus scale="  406.704">  1  5  2 -1</clus>
</clustering>
</event>
<event>
 9    1  0.9171696E-005  0.1064832E+03  0.7546771E-02  0.1271230E+00
         -2   -1    0    0    0  501 -0.00000000000E+00  0.00000000000E+00  0.16529739609E+03  0.16529739609E+03  0.00000000000E+00 0.  1.
         21   -1    0    0  501  502  0.00000000000E+00 -0.00000000000E+00 -0.13637741380E+03  0.13637741380E+03  0.00000000000E+00 0. -1.
        -24    2    1    2    0    0 -0.11903663539E+01  0.50632226160E+02  0.59321203826E+02  0.11208298283E+03  0.80489443520E+02 0.  0.
         23    2    1    2    0    0 -0.57916373838E+01 -0.81408520029E+02 -0.68989016086E+02  0.13974258907E+03  0.90042304855E+02 0.  0.
         11    1    3    3    0    0  0.15822048247E+02  0.64130859903E+02  0.61506624944E+02  0.90256131728E+02  0.00000000000E+00 0. -1.
        -12    1    3    3    0    0 -0.17012414601E+02 -0.13498633743E+02 -0.21854211175E+01  0.21826851100E+02  0.00000000000E+00 0.  1.
        -13    1    4    4    0    0  0.21754257199E+02  0.84196965747E+01 -0.25452071046E+00  0.23328175614E+02  0.00000000000E+00 0.  1.
         13    1    4    4    0    0 -0.27545894583E+02 -0.89828216604E+02 -0.68734495376E+02  0.11641441346E+03  0.00000000000E+00 0. -1.
         -1    1    1    2    0  502  0.69820037377E+01  0.30776293869E+02  0.38587794542E+02  0.49849237989E+02  0.00000000000E+00 0.  1.
<scales pt_clust_5="13000.00000" pt_clust_6="13000.00000" pt_clust_7="13000.00000" pt_clust_8="13000.00000" pt_clust_9="31.55835"></scales>
<clustering>
<clus scale="   31.558">  2  9  1 -1</clus>
<clus scale="   80.489">  5  6 -1 -1</clus>
<clus scale="   90.042">  7  8 -1 -1</clus>
<clus scale="   98.537">  1  5  2 -1</clus>
<clus scale="   31.558">  2  5  1 -1</clus>
</clustering>
</event>
<event>
 9    1  0.9171696E-005  0.1367331E+03  0.7546771E-02  0.1220123E+00
         21   -1    0    0  501  502  0.00000000000E+00  0.00000000000E+00  0.18264306539E+03  0.18264306539E+03  0.00000000000E+00 0. -1.
          1   -1    0    0  502    0 -0.00000000000E+00 -0.00000000000E+00 -0.12930260917E+03  0.12930260917E+03  0.00000000000E+00 0. -1.
         23    2    1    2    0    0  0.13066291072E+02 -0.85437839770E+02  0.27368818458E+02  0.12957332502E+03  0.92573440613E+02 0.  0.
        -24    2    1    2    0    0  0.61225620497E+01  0.11695556590E+03  0.24823934025E+02  0.14545492318E+03  0.82612449519E+02 0.  0.
         11    1    4    4    0    0 -0.28841709034E+02  0.10066629906E+03  0.19501089222E+02  0.10651685513E+03  0.00000000000E+00 0. -1.
        -12    1    4    4    0    0  0.34964271084E+02  0.16289266846E+02  0.53228448032E+01  0.38938068051E+02  0.00000000000E+00 0.  1.
        -13    1    3    3    0    0 -0.28779780885E+02 -0.78722834157E+02  0.23301134242E+02  0.86997145140E+02  0.00000000000E+00 0. -1.
         13    1    3    3    0    0  0.41846071957E+02 -0.67150056132E+01  0.40676842155E+01  0.42576179884E+02  0.00000000000E+00 0.  1.
          2    1    1    2  501    0 -0.19188853122E+02 -0.31517726134E+02  0.11477037283E+01  0.36917426354E+02  0.00000000000E+00 0. -1.
<scales pt_clust_5="13000.00000" pt_clust_6="13000.00000" pt_clust_7="13000.00000" pt_clust_8="13000.00000" pt_clust_9="36.89960"></scales>
<clustering>
<clus scale="   36.900">  1  9  2 -1</clus>
<clus scale="   82.612">  5  6 -1 -1</clus>
<clus scale="   92.573">  7  8 -1 -1</clus>
<clus scale="  130.196">  1  5  2 -1</clus>
<clus scale="   36.900">  1  5  2 -1</clus>
</clustering>
</event>
<event>
 9    1  0.9171696E-005  0.2648727E+03  0.7546771E-02  0.1104728E+00
         21   -1    0    0  501  502  0.00000000000E+00  0.00000000000E+00  0.19827410566E+03  0.19827410566E+03  0.00000000000E+00 0. -1.
          1   -1    0    0  502    0 -0.00000000000E+00 -0.00000000000E+00 -0.52031235510E+03  0.52031235510E+03  0.00000000000E+00 0. -1.
        -24    2    1    2    0    0 -0.21321170136E+03  0.14701760674E+03 -0.23640451146E+03  0.35989283312E+03  0.81008345253E+02 0.  0.
         23    2    1    2    0    0  0.19441728691E+03 -0.11715087689E+03  0.21921821811E+02  0.24549711706E+03  0.90916768565E+02 0.  0.
         13    1    3    3    0    0 -0.17527362574E+03  0.15334802494E+03 -0.20185213667E+03  0.30818946399E+03  0.00000000000E+00 0. -1.
        -14    1    3    3    0    0 -0.37938075613E+02 -0.63304181929E+01 -0.34552374791E+02  0.51703369130E+02  0.00000000000E+00 0.  1.
        -13    1    4    4    0    0  0.83293245011E+02 -0.93111019098E+01 -0.17698827289E+02  0.85660432936E+02  0.00000000000E+00 0.  1.
         13    1    4    4    0    0  0.11112404190E+03 -0.10783977498E+03  0.39620649101E+02  0.15983668413E+03  0.00000000000E+00 0. -1.
          2    1    1    2  501    0  0.18794414443E+02 -0.29866729849E+02 -0.10755555978E+03  0.11319651058E+03  0.00000000000E+00 0. -1.
<scales pt_clust_5="13000.00000" pt_clust_6="13000.00000" pt_clust_7="13000.00000" pt_clust_8="13000.00000" pt_clust_9="35.28814"></scales>
<clustering>
<clus scale="   35.288">  1  9  2 -1</clus>
<clus scale="   81.008">  5  6 -1 -1</clus>
<clus scale="   90.917">  7  8 -1 -1</clus>
<clus scale="  261.637">  2  5  1 -1</clus>
<clus scale="   35.288">  1  5  2 -1</clus>
</clustering>
</event>
<event>
 9    1  0.9171696E-005  0.9581712E+02  0.7546771E-02  0.1294498E+00
         21   -1    0    0  501  502  0.00000000000E+00  0.00000000000E+00  0.18985993132E+03  0.18985993132E+03  0.00000000000E+00 0. -1.
         -4   -1    0    0    0  501 -0.00000000000E+00 -0.00000000000E+00 -0.76328326725E+02  0.76328326725E+02  0.00000000000E+00 0.  1.
        -24    2    1    2    0    0  0.11448997131E+02  0.26129094920E+02  0.66945651455E+00  0.85671804753E+02  0.80779953089E+02 0.  0.
         23    2    1    2    0    0  0.16413028982E+02 -0.45286544555E+02  0.62406951913E+02  0.11977909085E+03  0.90178402740E+02 0.  0.
         11    1    3    3    0    0 -0.33447103657E+02  0.16307141807E+02  0.10521923822E+02  0.38669658621E+02  0.00000000000E+00 0. -1.
        -12    1    3    3    0    0  0.44896100788E+02  0.98219531131E+01 -0.98524673079E+01  0.47002146132E+02  0.00000000000E+00 0.  1.
        -11    1    4    4    0    0 -0.13242822237E+02 -0.41857119642E+02  0.75376841312E+02  0.87229920392E+02  0.00000000000E+00 0. -1.
         11    1    4    4    0    0  0.29655851219E+02 -0.34294249130E+01 -0.12969889399E+02  0.32549170462E+02  0.00000000000E+00 0.  1.
         -3    1    1    2    0  502 -0.27862026113E+02  0.19157449635E+02  0.50455196169E+02  0.60737362439E+02  0.00000000000E+00 0.  1.
<scales pt_clust_5="13000.00000" pt_clust_6="13000.00000" pt_clust_7="13000.00000" pt_clust_8="13000.00000" pt_clust_9="33.81273"></scales>
<clustering>
<clus scale="   33.813">  1  9  2 -1</clus>
<clus scale="   80.780">  5  6 -1 -1</clus>
<clus scale="   87.030">  2  5  1 -1</clus>
<clus scale="   90.178">  7  8 -1 -1</clus>
<clus scale="   33.813">  1  5  2 -1</clus>
</clustering>
</event>
<event>
 9    1  0.9171696E-005  0.1147382E+03  0.7546771E-02  0.1256517E+00
         -4   -1    0    0    0  501 -0.00000000000E+00  0.00000000000E+00  0.21751988221E+03  0.21751988221E+03  0.00000000000E+00 0.  1.
         21   -1    0    0  501  502  0.00000000000E+00 -0.00000000000E+00 -0.12183704930E+03  0.12183704930E+03  0.00000000000E+00 0.  1.
         23    2    1    2    0    0 -0.10590915698E+02 -0.69885016243E+02  0.49519657493E+02  0.12648997244E+03  0.92473962054E+02 0.  0.
        -24    2    1    2    0    0  0.40952505824E+02  0.54121941330E+02 -0.45978037545E+02  0.11458011452E+03  0.80052048320E+02 0.  0.
         13    1    4    4    0    0 -0.22024557264E+02  0.23692558744E+02 -0.26926369102E+02  0.42088571080E+02  0.00000000000E+00 0. -1.
        -14    1    4    4    0    0  0.62977063089E+02  0.30429382586E+02 -0.19051668444E+02  0.72491543440E+02  0.00000000000E+00 0.  1.
        -13    1    3    3    0    0 -0.40927258123E+02 -0.11967919981E+01  0.22270649947E+02  0.46609597914E+02  0.00000000000E+00 0.  1.
         13    1    3    3    0    0  0.30336342425E+02 -0.68688224245E+02  0.27249007546E+02  0.79880374523E+02  0.00000000000E+00 0. -1.
         -3    1    1    2    0  502 -0.30361590126E+02  0.15763074913E+02  0.92141212964E+02  0.98286844553E+02  0.00000000000E+00 0.  1.
<scales pt_clust_5="13000.00000" pt_clust_6="13000.00000" pt_clust_7="13000.00000" pt_clust_8="13000.00000" pt_clust_9="34.20967"></scales>
<clustering>
<clus scale="   34.210">  2  9  1 -1</clus>
<clus scale="   80.052">  5  6 -1 -1</clus>
<clus scale="   92.474">  7  8 -1 -1</clus>
<clus scale="  104.985">  2  5  1 -1</clus>
<clus scale="   34.210">  2  5  1 -1</clus>
</clustering>
</event>
<event>
 9    1  0.9171696E-005  0.9831995E+02  0.7546771E-02  0.1288377E+00
         21   -1    0    0  501  502  0.00000000000E+00  0.00000000000E+00  0.10815938181E+03  0.10815938181E+03  0.00000000000E+00 0.  1.
          1   -1    0    0  502    0 -0.00000000000E+00 -0.00000000000E+00 -0.19278128013E+03  0.19278128013E+03  0.00000000000E+00 0. -1.
         23    2    1    2    0    0  0.52547870805E+02  0.69646802642E+01 -0.67293485138E+02  0.12385422621E+03  0.89452058168E+02 0.  0.
        -24    2    1    2    0    0 -0.11616164081E+02  0.40937649664E+02  0.32519165477E+02  0.96744547988E+02  0.80567890714E+02 0.  0.
         13    1    4    4    0    0  0.31150418592E+02  0.87349730703E-01  0.17483759973E+02  0.35721675090E+02  0.00000000000E+00 0. -1.
        -14    1    4    4    0    0 -0.42766582672E+02  0.40850299933E+02  0.15035405504E+02  0.61022872898E+02  0.00000000000E+00 0.  1.
        -11    1    3    3    0    0  0.29494319408E+02 -0.10817792097E+02 -0.84419715085E+02  0.90075678172E+02  0.00000000000E+00 0. -1.
         11    1    3    3    0    0  0.23053551397E+02  0.17782472361E+02  0.17126229947E+02  0.33778548037E+02  0.00000000000E+00 0.  1.
          2    1    1    2  501    0 -0.40931706724E+02 -0.47902329928E+02 -0.49847578656E+02  0.80341887741E+02  0.00000000000E+00 0. -1.
<scales pt_clust_5="13000.00000" pt_clust_6="13000.00000" pt_clust_7="13000.00000" pt_clust_8="13000.00000" pt_clust_9="63.00827"></scales>
<clustering>
<clus scale="   63.008">  1  9  2 -1</clus>
<clus scale="   80.568">  5  6 -1 -1</clus>
<clus scale="   89.452">  7  8 -1 -1</clus>
<clus scale="   90.312">  1  5  2 -1</clus>
<clus scale="   63.008">  1  5  2 -1</clus>
</clustering>
</event>
<event>
 9    1  0.9171696E-005  0.1175576E+03  0.7546771E-02  0.1251025E+00
         21   -1    0    0  501  502  0.00000000000E+00  0.00000000000E+00  0.55484812017E+02  0.55484812017E+02  0.00000000000E+00 0.  1.
          1   -1    0    0  502    0 -0.00000000000E+00 -0.00000000000E+00 -0.54408440512E+03  0.54408440512E+03  0.00000000000E+00 0. -1.
        -24    2    1    2    0    0 -0.80093974548E+02  0.15932366291E+02 -0.23543681408E+03  0.26189835972E+03  0.80569053296E+02 0.  0.
         23    2    1    2    0    0  0.53577301478E+02  0.40659883086E+02 -0.48795528194E+02  0.12396126509E+03  0.91987164015E+02 0.  0.
         13    1    3    3    0    0 -0.47444153043E+02  0.25326070280E+02 -0.21634046325E+03  0.22292499531E+03  0.00000000000E+00 0. -1.
        -14    1    3    3    0    0 -0.32649821505E+02 -0.93937039893E+01 -0.19096350825E+02  0.38973364414E+02  0.00000000000E+00 0.  1.
        -11    1    4    4    0    0  0.51547667673E+01 -0.27525618502E+02 -0.18725035455E+01  0.28066662856E+02  0.00000000000E+00 0. -1.
         11    1    4    4    0    0  0.48422534711E+02  0.68185501588E+02 -0.46923024648E+02  0.95894602230E+02  0.00000000000E+00 0.  1.
          2    1    1    2  501    0  0.26516673070E+02 -0.56592249377E+02 -0.20436725083E+03  0.21370959233E+03  0.00000000000E+00 0. -1.
<scales pt_clust_5="13000.00000" pt_clust_6="13000.00000" pt_clust_7="13000.00000" pt_clust_8="13000.00000" pt_clust_9="62.49656"></scales>
<clustering>
<clus scale="   62.497">  1  9  2 -1</clus>
<clus scale="   80.569">  5  6 -1 -1</clus>
<clus scale="   91.987">  7  8 -1 -1</clus>
<clus scale="  108.856">  2  5  1 -1</clus>
<clus scale="   62.497">  1  5  2 -1</clus>
</clustering>
</event>
<event>
 9    1  0.9171696E-005  0.1098659E+03  0.7546771E-02  0.1265109E+00
         21   -1    0    0  501  502  0.00000000000E+00  0.00000000000E+00  0.48163746321E+02  0.48163746321E+02  0.00000000000E+00 0. -1.
         -2   -1    0    0    0  501 -0.00000000000E+00 -0.00000000000E+00 -0.60564878176E+03  0.60564878176E+03  0.00000000000E+00 0.  1.
         23    2    1    2    0    0 -0.12612157079E+02  0.71537749745E+02 -0.39262597219E+03  0.40932715776E+03  0.90093573018E+02 0.  0.
        -24    2    1    2    0    0  0.65797827768E+02 -0.18065318725E+02 -0.10610283319E+03  0.14888039651E+03  0.79068649759E+02 0.  0.
         13    1    4    4    0    0  0.58286972870E+02 -0.22038090570E+02 -0.24692911821E+02  0.67028266698E+02  0.00000000000E+00 0. -1.
        -14    1    4    4    0    0  0.75108548983E+01  0.39727718449E+01 -0.81409921374E+02  0.81852129816E+02  0.00000000000E+00 0.  1.
        -11    1    3    3    0    0 -0.50663494023E+02  0.38446257364E+02 -0.25308487322E+03  0.26095374568E+03  0.00000000000E+00 0. -1.
         11    1    3    3    0    0  0.38051336943E+02  0.33091492382E+02 -0.13954109897E+03  0.14837341208E+03  0.00000000000E+00 0.  1.
         -1    1    1    2    0  502 -0.53185670689E+02 -0.53472431021E+02 -0.58756230052E+02  0.95604973803E+02  0.00000000000E+00 0.  1.
<scales pt_clust_5="13000.00000" pt_clust_6="13000.00000" pt_clust_7="13000.00000" pt_clust_8="13000.00000" pt_clust_9="75.41894"></scales>
<clustering>
<clus scale="   75.419">  1  9  2 -1</clus>
<clus scale="   79.069">  5  6 -1 -1</clus>
<clus scale="   90.094">  7  8 -1 -1</clus>
<clus scale="  101.022">  1  5  2 -1</clus>
<clus scale="   75.419">  1  5  2 -1</clus>
</clustering>
</event>
<event>
 9    1  0.9171696E-005  0.1807865E+03  0.7546771E-02  0.1168447E+00
         21   -1    0    0  501  502  0.00000000000E+00  0.00000000000E+00  0.38736701695E+03  0.38736701695E+03  0.00000000000E+00 0. -1.
          1   -1    0    0  502    0 -0.00000000000E+00 -0.00000000000E+00 -0.20553146914E+03  0.20553146914E+03  0.00000000000E+00 0. -1.
         23    2    1    2    0    0 -0.21095802807E+02  0.16460807051E+03 -0.24637569130E+02  0.19119974059E+03  0.91703223579E+02 0.  0.
        -24    2    1    2    0    0 -0.11041375057E+03 -0.12955979947E+03  0.18527611929E+03  0.26395820448E+03  0.79810747279E+02 0.  0.
         13    1    4    4    0    0 -0.93551202270E+02 -0.55654859766E+02  0.13304468199E+03  0.17190165290E+03  0.00000000000E+00 0. -1.
        -14    1    4    4    0    0 -0.16862548299E+02 -0.73904939705E+02  0.52231437294E+02  0.92056551586E+02  0.00000000000E+00 0.  1.
        -11    1    3    3    0    0 -0.39862044904E+02  0.28205096600E+02  0.85361394228E+01  0.49571925264E+02  0.00000000000E+00 0.  1.
         11    1    3    3    0    0  0.18766242097E+02  0.13640297391E+03 -0.33173708553E+02  0.14162781532E+03  0.00000000000E+00 0. -1.
          2    1    1    2  501    0  0.13150955338E+03 -0.35048271037E+02  0.21196997654E+02  0.13774054102E+03  0.00000000000E+00 0. -1.
<scales pt_clust_5="13000.00000" pt_clust_6="13000.00000" pt_clust_7="13000.00000" pt_clust_8="13000.00000" pt_clust_9="136.09983"></scales>
<clustering>
<clus scale="   79.811">  5  6 -1 -1</clus>
<clus scale="   91.703">  7  8 -1 -1</clus>
<clus scale="  136.100">  1  9  2 -1</clus>
<clus scale="  175.054">  1  5  2 -1</clus>
<clus scale="  136.100">  1  5  2 -1</clus>
</clustering>
</event>
<event>
 9    1  0.9171696E-005  0.1071344E+03  0.7546771E-02  0.1271086E+00
          1   -1    0    0  502    0 -0.00000000000E+00  0.00000000000E+00  0.38744995188E+03  0.38744995188E+03  0.00000000000E+00 0. -1.
         21   -1    0    0  501  502  0.00000000000E+00 -0.00000000000E+00 -0.81363195019E+02  0.81363195019E+02  0.00000000000E+00 0. -1.
        -24    2    1    2    0    0 -0.82739695464E+02  0.80927208366E+01  0.24168779548E+03  0.26759908580E+03  0.79277556120E+02 0.  0.
         23    2    1    2    0    0  0.24330782539E+01 -0.24485035820E+02  0.71987141471E+02  0.11890099266E+03  0.91377572025E+02 0.  0.
         13    1    3    3    0    0 -0.77858850321E+02 -0.26269715442E+01  0.24352140564E+03  0.25567865879E+03  0.00000000000E+00 0. -1.
        -14    1    3    3    0    0 -0.48808451428E+01  0.10719692381E+02 -0.18336101648E+01  0.11920427018E+02  0.00000000000E+00 0.  1.
        -13    1    4    4    0    0  0.98587770193E+01 -0.53587643442E+02  0.70129385515E+02  0.88808567868E+02  0.00000000000E+00 0. -1.
         13    1    4    4    0    0 -0.74256987655E+01  0.29102607623E+02  0.18577559560E+01  0.30092424791E+02  0.00000000000E+00 0.  1.
          2    1    1    2  501    0  0.80306617210E+02  0.16392314983E+02 -0.75881800885E+01  0.82313068436E+02  0.00000000000E+00 0. -1.
<scales pt_clust_5="13000.00000" pt_clust_6="13000.00000" pt_clust_7="13000.00000" pt_clust_8="13000.00000" pt_clust_9="81.96256"></scales>
<clustering>
<clus scale="   79.278">  5  6 -1 -1</clus>
<clus scale="   81.963">  2  9  1 -1</clus>
<clus scale="   91.378">  7  8 -1 -1</clus>
<clus scale="   97.020">  1  5  2 -1</clus>
<clus scale="   81.963">  2  5  1 -1</clus>
</clustering>
</event>
<event>
 9    1  0.9171696E-005  0.1107458E+03  0.7546771E-02  0.1266391E+00
          1   -1    0    0  502    0 -0.00000000000E+00  0.00000000000E+00  0.28494483731E+03  0.28494483731E+03  0.00000000000E+00 0. -1.
         21   -1    0    0  501  502  0.00000000000E+00 -0.00000000000E+00 -0.29628337269E+03  0.29628337269E+03  0.00000000000E+00 0. -1.
         23    2    1    2    0    0  0.35933682998E+02  0.39897999974E+02  0.17167751456E+03  0.20485537328E+03  0.98027929586E+02 0.  0.
        -24    2    1    2    0    0 -0.22233931788E+02 -0.81670359067E+00 -0.26849166466E+03  0.28139330409E+03  0.81236708860E+02 0.  0.
         13    1    4    4    0    0 -0.50015363270E+02 -0.28354469025E+01 -0.11564307846E+03  0.12602736972E+03  0.00000000000E+00 0. -1.
        -14    1    4    4    0    0  0.27781431482E+02  0.20187433118E+01 -0.15284858619E+03  0.15536593437E+03  0.00000000000E+00 0.  1.
        -11    1    3    3    0    0  0.30059939589E+01  0.52533175465E+02  0.33802710381E+02  0.62541136489E+02  0.00000000000E+00 0.  1.
         11    1    3    3    0    0  0.32927689039E+02 -0.12635175491E+02  0.13787480418E+03  0.14231423679E+03  0.00000000000E+00 0. -1.
          2    1    1    2  501    0 -0.13699751210E+02 -0.39081296383E+02  0.85475614718E+02  0.94979532646E+02  0.00000000000E+00 0. -1.
<scales pt_clust_5="13000.00000" pt_clust_6="13000.00000" pt_clust_7="13000.00000" pt_clust_8="13000.00000" pt_clust_9="41.41295"></scales>
<clustering>
<clus scale="   41.413">  2  9  1 -1</clus>
<clus scale="   81.237">  5  6 -1 -1</clus>
<clus scale="   96.201">  2  5  1 -1</clus>
<clus scale="   98.028">  7  8 -1 -1</clus>
<clus scale="   41.413">  2  5  1 -1</clus>
</clustering>
</event>
<event>
 9    1  0.9171696E-005  0.1473160E+03  0.7546771E-02  0.1205062E+00
          1   -1    0    0  502    0 -0.00000000000E+00  0.00000000000E+00  0.89715586708E+03  0.89715586708E+03  0.00000000000E+00 0. -1.
         21   -1    0    0  501  502  0.00000000000E+00 -0.00000000000E+00 -0.95977912242E+02  0.95977912242E+02  0.00000000000E+00 0. -1.
        -24    2    1    2    0    0 -0.58162173258E+02  0.11043399577E+03  0.68684156443E+03  0.70186336183E+03  0.72679696130E+02 0.  0.
         23    2    1    2    0    0  0.77408882347E+02 -0.82957923073E+02 -0.30819265117E+02  0.14228875851E+03  0.80138078525E+02 0.  0.
         11    1    3    3    0    0 -0.55137947875E+02  0.32076900904E+02  0.37026379743E+03  0.37571851239E+03  0.00000000000E+00 0. -1.
        -12    1    3    3    0    0 -0.30242253830E+01  0.78357094868E+02  0.31657776701E+03  0.32614484944E+03  0.00000000000E+00 0.  1.
        -11    1    4    4    0    0  0.31249117708E+02 -0.19259129075E+01  0.18935256744E+02  0.36589075501E+02  0.00000000000E+00 0.  1.
         11    1    4    4    0    0  0.46159764639E+02 -0.81032010166E+02 -0.49754521861E+02  0.10569968301E+03  0.00000000000E+00 0. -1.
          2    1    1    2  501    0 -0.19246709089E+02 -0.27476072698E+02  0.14515565552E+03  0.14898165898E+03  0.00000000000E+00 0. -1.
<scales pt_clust_5="13000.00000" pt_clust_6="13000.00000" pt_clust_7="13000.00000" pt_clust_8="13000.00000" pt_clust_9="33.54656"></scales>
<clustering>
<clus scale="   33.547">  2  9  1 -1</clus>
<clus scale="   72.680">  5  6 -1 -1</clus>
<clus scale="   80.138">  7  8 -1 -1</clus>
<clus scale="  143.395">  1  5  2 -1</clus>
<clus scale="   33.547">  2  5  1 -1</clus>
</clustering>
</event>
<event>
 9    1  0.9171696E-005  0.9701215E+02  0.7546771E-02  0.1289768E+00
          3   -1    0    0  502    0 -0.00000000000E+00  0.00000000000E+00  0.35553972333E+03  0.35553972333E+03  0.00000000000E+00 0. -1.
         21   -1    0    0  501  502  0.00000000000E+00 -0.00000000000E+00 -0.64002804893E+02  0.64002804893E+02  0.00000000000E+00 0.  1.
        -24    2    1    2    0    0  0.10489097837E+02  0.53411654271E+02  0.13646528569E+03  0.16737858178E+03  0.80187215024E+02 0.  0.
         23    2    1    2    0    0 -0.12252956352E+01 -0.14012337513E+02 -0.44609433837E+01  0.87577291340E+02  0.86325170088E+02 0.  0.
         13    1    3    3    0    0  0.34748143433E+02  0.57176726863E+02  0.71466714835E+02  0.97898431531E+02  0.00000000000E+00 0. -1.
        -14    1    3    3    0    0 -0.24259045596E+02 -0.37650725926E+01  0.64998570857E+02  0.69480150247E+02  0.00000000000E+00 0.  1.
        -11    1    4    4    0    0  0.16465573453E+02 -0.25917734178E+02  0.32622349245E+02  0.44800242458E+02  0.00000000000E+00 0. -1.
         11    1    4    4    0    0 -0.17690869088E+02  0.11905396665E+02 -0.37083292629E+02  0.42777048882E+02  0.00000000000E+00 0.  1.
          4    1    1    2  501    0 -0.92638022014E+01 -0.39399316758E+02  0.15953257613E+03  0.16458665510E+03  0.00000000000E+00 0. -1.
<scales pt_clust_5="13000.00000" pt_clust_6="13000.00000" pt_clust_7="13000.00000" pt_clust_8="13000.00000" pt_clust_9="40.47377"></scales>
<clustering>
<clus scale="   40.474">  2  9  1 -1</clus>
<clus scale="   80.187">  5  6 -1 -1</clus>
<clus scale="   86.325">  7  8 -1 -1</clus>
<clus scale="   91.593">  1  5  2 -1</clus>
<clus scale="   40.474">  2  5  1 -1</clus>
</clustering>
</event>
<event>
 9    1  0.9171696E-005  0.1654349E+03  0.7546771E-02  0.1184793E+00
         21   -1    0    0  501  502  0.00000000000E+00  0.00000000000E+00  0.29827140080E+03  0.29827140080E+03  0.00000000000E+00 0. -1.
          1   -1    0    0  502    0 -0.00000000000E+00 -0.00000000000E+00 -0.10837967072E+04  0.10837967072E+04  0.00000000000E+00 0. -1.
         23    2    1    2    0    0  0.20127873489E+02 -0.13502758753E+03 -0.98813849734E+03  0.10020032770E+04  0.94632428818E+02 0.  0.
        -24    2    1    2    0    0  0.10958900772E+03  0.13217096939E+03  0.98724287212E+02  0.21384950726E+03  0.80661087937E+02 0.  0.
         13    1    4    4    0    0  0.16005999789E+02  0.81814308590E+02  0.46093821599E+02  0.95259716086E+02  0.00000000000E+00 0. -1.
        -14    1    4    4    0    0  0.93583007926E+02  0.50356660804E+02  0.52630465613E+02  0.11858979117E+03  0.00000000000E+00 0.  1.
        -13    1    3    3    0    0 -0.37449383093E+02 -0.38462700628E+02 -0.32090252210E+03  0.32536174379E+03  0.00000000000E+00 0.  1.
         13    1    3    3    0    0  0.57577256583E+02 -0.96564886906E+02 -0.66723597524E+03  0.67664153324E+03  0.00000000000E+00 0. -1.
          2    1    1    2  501    0 -0.12971688120E+03  0.28566181400E+01  0.10388890369E+03  0.16621532374E+03  0.00000000000E+00 0. -1.
<scales pt_clust_5="13000.00000" pt_clust_6="13000.00000" pt_clust_7="13000.00000" pt_clust_8="13000.00000" pt_clust_9="129.74833"></scales>
<clustering>
<clus scale="   80.661">  5  6 -1 -1</clus>
<clus scale="   94.632">  7  8 -1 -1</clus>
<clus scale="  129.748">  1  9  2 -1</clus>
<clus scale="  157.859">  1  5  2 -1</clus>
<clus scale="  129.748">  1  5  2 -1</clus>
</clustering>
</event>
<event>
 9    1  0.9171696E-005  0.9280130E+02  0.7546771E-02  0.1300843E+00
         21   -1    0    0  501  502  0.00000000000E+00  0.00000000000E+00  0.27616446307E+02  0.27616446307E+02  0.00000000000E+00 0. -1.
          1   -1    0    0  502    0 -0.00000000000E+00 -0.00000000000E+00 -0.43627950534E+03  0.43627950534E+03  0.00000000000E+00 0. -1.
         23    2    1    2    0    0 -0.23237448665E+02 -0.26471909397E+02 -0.27394792837E+03  0.29005771864E+03  0.88573538248E+02 0.  0.
        -24    2    1    2    0    0  0.16499014959E+02  0.65294374080E+01 -0.12696580442E+03  0.15140698839E+03  0.80553768344E+02 0.  0.
         11    1    4    4    0    0  0.32810304355E+02 -0.24530070261E+02 -0.38415412208E+02  0.56160344675E+02  0.00000000000E+00 0. -1.
        -12    1    4    4    0    0 -0.16311289395E+02  0.31059507669E+02 -0.88550392213E+02  0.95246643718E+02  0.00000000000E+00 0.  1.
        -11    1    3    3    0    0 -0.43734764832E+02 -0.44316259044E+02 -0.13764871296E+03  0.15107557265E+03  0.00000000000E+00 0.  1.
         11    1    3    3    0    0  0.20497316167E+02  0.17844349647E+02 -0.13629921541E+03  0.13898214599E+03  0.00000000000E+00 0. -1.
          2    1    1    2  501    0  0.67384337055E+01  0.19942471989E+02 -0.77493262482E+01  0.22431244618E+02  0.00000000000E+00 0. -1.
<scales pt_clust_5="13000.00000" pt_clust_6="13000.00000" pt_clust_7="13000.00000" pt_clust_8="13000.00000" pt_clust_9="21.05015"></scales>
<clustering>
<clus scale="   21.050">  1  9  2 -1</clus>
<clus scale="   80.554">  5  6 -1 -1</clus>
<clus scale="   85.181">  1  5  2 -1</clus>
<clus scale="   88.574">  7  8 -1 -1</clus>
<clus scale="   21.050">  1  5  2 -1</clus>
</clustering>
</event>
<event>
 9    1  0.9171696E-005  0.2981347E+03  0.7546771E-02  0.1113993E+00
          1   -1    0    0  502    0 -0.00000000000E+00  0.00000000000E+00  0.49841624059E+03  0.49841624059E+03  0.00000000000E+00 0. -1.
         21   -1    0    0  501  502  0.00000000000E+00 -0.00000000000E+00 -0.35431535616E+03  0.35431535616E+03  0.00000000000E+00 0. -1.
        -24    2    1    2    0    0 -0.37853418798E+02 -0.11155578643E+03  0.20766635457E+01  0.14487779687E+03  0.84307109385E+02 0.  0.
         23    2    1    2    0    0 -0.15653804704E+03 -0.12879548302E+03  0.28985388695E+03  0.36520181188E+03  0.90910125930E+02 0.  0.
         13    1    3    3    0    0  0.17052507841E+02 -0.68215913968E+02  0.19146452710E+02  0.72875137005E+02  0.00000000000E+00 0. -1.
        -14    1    3    3    0    0 -0.54905926639E+02 -0.43339872465E+02 -0.17069789164E+02  0.72002659864E+02  0.00000000000E+00 0.  1.
        -13    1    4    4    0    0 -0.76857439222E+02 -0.24336683327E+02  0.60167582740E+02  0.10059561686E+03  0.00000000000E+00 0.  1.
         13    1    4    4    0    0 -0.79680607822E+02 -0.10445879969E+03  0.22968630421E+03  0.26460619501E+03  0.00000000000E+00 0. -1.
          2    1    1    2  501    0  0.19439146584E+03  0.24035126945E+03 -0.14782966607E+03  0.34265198801E+03  0.00000000000E+00 0. -1.
<scales pt_clust_5="13000.00000" pt_clust_6="13000.00000" pt_clust_7="13000.00000" pt_clust_8="13000.00000" pt_clust_9="283.93595"></scales>
<clustering>
<clus scale="   84.307">  5  6 -1 -1</clus>
<clus scale="   90.910">  7  8 -1 -1</clus>
<clus scale="  144.863">  1  5  2 -1</clus>
<clus scale="  283.936">  2  9  1 -1</clus>
<clus scale="  283.936">  2  5  1 -1</clus>
</clustering>
</event>
<event>
 9    1  0.9171696E-005  0.1906101E+03  0.7546771E-02  0.1159068E+00
         21   -1    0    0  501  502  0.00000000000E+00  0.00000000000E+00  0.18920209549E+03  0.18920209549E+03  0.00000000000E+00 0.  1.
         -2   -1    0    0    0  501 -0.00000000000E+00 -0.00000000000E+00 -0.84264595890E+03  0.84264595890E+03  0.00000000000E+00 0.  1.
        -24    2    1    2    0    0 -0.10866573294E+03 -0.12118045417E+03 -0.63516964404E+03  0.66066855163E+03  0.80929070297E+02 0.  0.
         23    2    1    2    0    0  0.12040182044E+03  0.14063508102E+03 -0.13850010624E+03  0.24882558117E+03  0.91962307696E+02 0.  0.
         13    1    3    3    0    0 -0.20985413901E+02 -0.59669940145E+02 -0.13395250139E+03  0.14813562023E+03  0.00000000000E+00 0. -1.
        -14    1    3    3    0    0 -0.87680319042E+02 -0.61510514025E+02 -0.50121714265E+03  0.51253293140E+03  0.00000000000E+00 0.  1.
        -13    1    4    4    0    0  0.64339247108E+02  0.67392576189E+02 -0.12454450573E+03  0.15553980825E+03  0.00000000000E+00 0.  1.
         13    1    4    4    0    0  0.56062573333E+02  0.73242504832E+02 -0.13955600506E+02  0.93285772914E+02  0.00000000000E+00 0. -1.
         -1    1    1    2    0  502 -0.11736087499E+02 -0.19454626850E+02  0.12022588687E+03  0.12235392159E+03  0.00000000000E+00 0.  1.
<scales pt_clust_5="13000.00000" pt_clust_6="13000.00000" pt_clust_7="13000.00000" pt_clust_8="13000.00000" pt_clust_9="22.72044"></scales>
<clustering>
<clus scale="   22.720">  1  9  2 -1</clus>
<clus scale="   80.929">  5  6 -1 -1</clus>
<clus scale="   91.962">  7  8 -1 -1</clus>
<clus scale="  185.539">  2  5  1 -1</clus>
<clus scale="   22.720">  1  5  2 -1</clus>
</clustering>
</event>
<event>
 9    1  0.9171696E-005  0.2666381E+03  0.7546771E-02  0.1146406E+00
         21   -1    0    0  501  502  0.00000000000E+00  0.00000000000E+00  0.53866426186E+03  0.53866426186E+03  0.00000000000E+00 0. -1.
          1   -1    0    0  502    0 -0.00000000000E+00 -0.00000000000E+00 -0.19478819537E+03  0.19478819537E+03  0.00000000000E+00 0. -1.
        -24    2    1    2    0    0  0.46096214403E+01 -0.10946415373E+02 -0.71455905621E+01  0.91642766492E+02  0.90588435059E+02 0.  0.
         23    2    1    2    0    0 -0.16249364535E+03 -0.18924664953E+03  0.93550188241E+02  0.27946153566E+03  0.84431232700E+02 0.  0.
         11    1    3    3    0    0  0.20809362333E+01  0.26461299604E+02  0.29174669597E+02  0.39442261832E+02  0.00000000000E+00 0. -1.
        -12    1    3    3    0    0  0.25286852070E+01 -0.37407714977E+02 -0.36320260159E+02  0.52200504660E+02  0.00000000000E+00 0.  1.
        -13    1    4    4    0    0 -0.14520593452E+03 -0.13420481972E+03  0.99702799633E+02  0.22144151668E+03  0.00000000000E+00 0. -1.
         13    1    4    4    0    0 -0.17287710824E+02 -0.55041829819E+02 -0.61526113915E+01  0.58020018978E+02  0.00000000000E+00 0.  1.
          2    1    1    2  501    0  0.15788402391E+03  0.20019306491E+03  0.25747146881E+03  0.36234815508E+03  0.00000000000E+00 0. -1.
<scales pt_clust_5="13000.00000" pt_clust_6="13000.00000" pt_clust_7="13000.00000" pt_clust_8="13000.00000" pt_clust_9="252.91745"></scales>
<clustering>
<clus scale="   84.431">  7  8 -1 -1</clus>
<clus scale="   90.588">  5  6 -1 -1</clus>
<clus scale="   91.364">  2  5  1 -1</clus>
<clus scale="  252.917">  1  9  2 -1</clus>
<clus scale="  252.917">  1  5  2 -1</clus>
</clustering>
</event>
<event>
 9    1  0.9171696E-005  0.2798033E+03  0.7546771E-02  0.1096663E+00
          1   -1    0    0  502    0 -0.00000000000E+00  0.00000000000E+00  0.84188193057E+03  0.84188193057E+03  0.00000000000E+00 0. -1.
         21   -1    0    0  501  502  0.00000000000E+00 -0.00000000000E+00 -0.14617160868E+03  0.14617160868E+03  0.00000000000E+00 0. -1.
         23    2    1    2    0    0  0.25707910490E+03 -0.16216169715E+02  0.56103252081E+03  0.62525987321E+03  0.99195712104E+02 0.  0.
        -24    2    1    2    0    0 -0.27589574666E+03  0.53883865354E+01  0.71559169169E+02  0.29604586766E+03  0.79843242263E+02 0.  0.
         13    1    4    4    0    0 -0.18998285282E+03 -0.20613758579E+02  0.19028517889E+02  0.19204295327E+03  0.00000000000E+00 0. -1.
        -14    1    4    4    0    0 -0.85912893840E+02  0.26002145114E+02  0.52530651280E+02  0.10400291439E+03  0.00000000000E+00 0.  1.
        -13    1    3    3    0    0  0.49252693074E+02 -0.42380916585E+02  0.16303611772E+03  0.17550710967E+03  0.00000000000E+00 0.  1.
         13    1    3    3    0    0  0.20782641183E+03  0.26164746870E+02  0.39799640309E+03  0.44975276353E+03  0.00000000000E+00 0. -1.
          2    1    1    2  501    0  0.18816641755E+02  0.10827783179E+02  0.63118631906E+02  0.66747798385E+02  0.00000000000E+00 0. -1.
<scales pt_clust_5="13000.00000" pt_clust_6="13000.00000" pt_clust_7="13000.00000" pt_clust_8="13000.00000" pt_clust_9="21.70961"></scales>
<clustering>
<clus scale="   21.710">  2  9  1 -1</clus>
<clus scale="   79.843">  5  6 -1 -1</clus>
<clus scale="   99.196">  7  8 -1 -1</clus>
<clus scale="  273.542">  2  5  1 -1</clus>
<clus scale="   21.710">  2  5  1 -1</clus>
</clustering>
</event>
<event>
 9    1  0.9171696E-005  0.2051499E+03  0.7546771E-02  0.1176625E+00
         21   -1    0    0  501  502  0.00000000000E+00  0.00000000000E+00  0.60722269249E+03  0.60722269249E+03  0.00000000000E+00 0. -1.
          1   -1    0    0  502    0 -0.00000000000E+00 -0.00000000000E+00 -0.10738179056E+03  0.10738179056E+03  0.00000000000E+00 0. -1.
         23    2    1    2    0    0  0.35206576729E+02  0.20795785152E+02  0.49456390319E+02  0.11106340947E+03  0.90648655002E+02 0.  0.
        -24    2    1    2    0    0  0.24584842423E+02  0.17184565485E+03  0.15276799343E+03  0.24401175614E+03  0.77899510600E+02 0.  0.
         11    1    4    4    0    0  0.45097835323E+02  0.14866512123E+03  0.10653743973E+03  0.18837557985E+03  0.00000000000E+00 0. -1.
        -12    1    4    4    0    0 -0.20512992900E+02  0.23180533620E+02  0.46230553701E+02  0.55636176289E+02  0.00000000000E+00 0.  1.
        -11    1    3    3    0    0 -0.66672803803E+01  0.20655848709E+02 -0.20290236237E+02  0.29712125473E+02  0.00000000000E+00 0.  1.
         11    1    3    3    0    0  0.41873857109E+02  0.13993644357E+00  0.69746626556E+02  0.81351283993E+02  0.00000000000E+00 0. -1.
          2    1    1    2  501    0 -0.59791419152E+02 -0.19264144000E+03  0.29761651818E+03  0.35952931745E+03  0.00000000000E+00 0. -1.
<scales pt_clust_5="13000.00000" pt_clust_6="13000.00000" pt_clust_7="13000.00000" pt_clust_8="13000.00000" pt_clust_9="189.78443"></scales>
<clustering>
<clus scale="   77.900">  5  6 -1 -1</clus>
<clus scale="   90.649">  7  8 -1 -1</clus>
<clus scale="   99.444">  2  7  1 -1</clus>
<clus scale="  189.784">  1  9  2 -1</clus>
<clus scale="  189.784">  1  5  2 -1</clus>
</clustering>
</event>
<event>
 9    1  0.9171696E-005  0.1489161E+03  0.7546771E-02  0.1214850E+00
         21   -1    0    0  501  502  0.00000000000E+00  0.00000000000E+00  0.52454425474E+02  0.52454425474E+02  0.00000000000E+00 0. -1.
          1   -1    0    0  502    0 -0.00000000000E+00 -0.00000000000E+00 -0.10744282804E+04  0.10744282804E+04  0.00000000000E+00 0. -1.
         23    2    1    2    0    0 -0.66207963799E+02 -0.30013329949E+01 -0.78095181397E+02  0.13706085781E+03  0.91073151452E+02 0.  0.
        -24    2    1    2    0    0  0.16849396842E+02  0.12412899714E+03 -0.67023141434E+03  0.68652166407E+03  0.80062078163E+02 0.  0.
         13    1    4    4    0    0  0.45169630481E+02  0.74289508369E+02 -0.31868186230E+03  0.33032916300E+03  0.00000000000E+00 0. -1.
        -14    1    4    4    0    0 -0.28320233639E+02  0.49839488773E+02 -0.35154955204E+03  0.35619250106E+03  0.00000000000E+00 0.  1.
        -11    1    3    3    0    0 -0.76695331468E+02  0.21477871102E+02 -0.36360251379E+02  0.87553073597E+02  0.00000000000E+00 0. -1.
         11    1    3    3    0    0  0.10487367668E+02 -0.24479204097E+02 -0.41734930018E+02  0.49507784211E+02  0.00000000000E+00 0.  1.
          2    1    1    2  501    0  0.49358566957E+02 -0.12112766415E+03 -0.27364725923E+03  0.30330018404E+03  0.00000000000E+00 0. -1.
<scales pt_clust_5="13000.00000" pt_clust_6="13000.00000" pt_clust_7="13000.00000" pt_clust_8="13000.00000" pt_clust_9="125.56303"></scales>
<clustering>
<clus scale="   80.062">  5  6 -1 -1</clus>
<clus scale="   91.073">  7  8 -1 -1</clus>
<clus scale="  112.636">  2  7  1 -1</clus>
<clus scale="  125.563">  1  9  2 -1</clus>
<clus scale="  125.563">  1  5  2 -1</clus>
</clustering>
</event>
<event>
 9    1  0.9171696E-005  0.2462610E+03  0.7546771E-02  0.1115691E+00
         21   -1    0    0  501  502  0.00000000000E+00  0.00000000000E+00  0.12286692501E+03  0.12286692501E+03  0.00000000000E+00 0. -1.
         -2   -1    0    0    0  501 -0.00000000000E+00 -0.00000000000E+00 -0.36577088462E+03  0.36577088462E+03  0.00000000000E+00 0.  1.
        -24    2    1    2    0    0 -0.74058517174E+02 -0.53213313238E+02 -0.43121896631E+02  0.12982199809E+03  0.81718618120E+02 0.  0.
         23    2    1    2    0    0 -0.28256334766E+01 -0.82891701065E+02 -0.27887586248E+02  0.12647240477E+03  0.91315570371E+02 0.  0.
         13    1    3    3    0    0 -0.92070474418E+02 -0.46971587480E+02 -0.37410414083E+02  0.10992197857E+03  0.00000000000E+00 0. -1.
        -14    1    3    3    0    0  0.18011957244E+02 -0.62417257574E+01 -0.57114825473E+01  0.19900019524E+02  0.00000000000E+00 0.  1.
        -11    1    4    4    0    0  0.30579850840E+02 -0.84118463799E+02 -0.24942815903E+02  0.92914946561E+02  0.00000000000E+00 0. -1.
         11    1    4    4    0    0 -0.33405484317E+02  0.12267627341E+01 -0.29447703456E+01  0.33557458212E+02  0.00000000000E+00 0.  1.
         -1    1    1    2    0  502  0.76884150650E+02  0.13610501430E+03 -0.17189447673E+03  0.23234340677E+03  0.00000000000E+00 0.  1.
<scales pt_clust_5="13000.00000" pt_clust_6="13000.00000" pt_clust_7="13000.00000" pt_clust_8="13000.00000" pt_clust_9="156.31945"></scales>
<clustering>
<clus scale="   81.719">  5  6 -1 -1</clus>
<clus scale="   91.316">  7  8 -1 -1</clus>
<clus scale="  118.204">  5  7 -1 -1</clus>
<clus scale="  156.319">  1  9  2 -1</clus>
<clus scale="  156.319">  1  5  2 -1</clus>
</clustering>
</event>
<event>
 9    1  0.9171696E-005  0.9873703E+02  0.7546771E-02  0.1289493E+00
         21   -1    0    0  501  502  0.00000000000E+00  0.00000000000E+00  0.88991300519E+02  0.88991300519E+02  0.00000000000E+00 0. -1.
          1   -1    0    0  502    0 -0.00000000000E+00 -0.00000000000E+00 -0.21123560950E+03  0.21123560950E+03  0.00000000000E+00 0. -1.
        -24    2    1    2    0    0 -0.17590538487E+02 -0.41014631560E+02 -0.12321364508E+03  0.15402977258E+03  0.80944063792E+02 0.  0.
         23    2    1    2    0    0 -0.14332633498E+02  0.17199306814E+00  0.34323468671E+01  0.94300350922E+02  0.93141404404E+02 0.  0.
         13    1    3    3    0    0  0.15236210686E+02 -0.42561436842E+02 -0.10941717450E+03  0.11838807414E+03  0.00000000000E+00 0. -1.
        -14    1    3    3    0    0 -0.32826749173E+02  0.15468052820E+01 -0.13796470574E+02  0.35641698446E+02  0.00000000000E+00 0.  1.
        -11    1    4    4    0    0 -0.33690829896E+02 -0.38339904284E+02  0.39699802904E+01  0.51193564274E+02  0.00000000000E+00 0. -1.
         11    1    4    4    0    0  0.19358196398E+02  0.38511897352E+02 -0.53763342326E+00  0.43106786648E+02  0.00000000000E+00 0.  1.
          2    1    1    2  501    0  0.31923171985E+02  0.40842638492E+02 -0.24630107741E+01  0.51896786515E+02  0.00000000000E+00 0. -1.
<scales pt_clust_5="13000.00000" pt_clust_6="13000.00000" pt_clust_7="13000.00000" pt_clust_8="13000.00000" pt_clust_9="51.83831"></scales>
<clustering>
<clus scale="   51.838">  1  9  2 -1</clus>
<clus scale="   80.944">  5  6 -1 -1</clus>
<clus scale="   87.325">  2  5  1 -1</clus>
<clus scale="   93.141">  7  8 -1 -1</clus>
<clus scale="   51.838">  1  5  2 -1</clus>
</clustering>
</event>
<event>
 9    1  0.9171696E-005  0.1508984E+03  0.7546771E-02  0.1218282E+00
         21   -1    0    0  501  502  0.00000000000E+00  0.00000000000E+00  0.96669042558E+02  0.96669042558E+02  0.00000000000E+00 0. -1.
          1   -1    0    0  502    0 -0.00000000000E+00 -0.00000000000E+00 -0.63294284813E+03  0.63294284813E+03  0.00000000000E+00 0. -1.
        -24    2    1    2    0    0 -0.21975019713E+02  0.55167439607E+02 -0.38560399295E+03  0.39853288216E+03  0.81312181766E+02 0.  0.
         23    2    1    2    0    0  0.76250018928E+01  0.78631639446E+02 -0.15416801529E+03  0.19646714430E+03  0.92684877284E+02 0.  0.
         11    1    3    3    0    0 -0.38683682904E+02  0.68494046428E+02 -0.28317038722E+03  0.29389339890E+03  0.00000000000E+00 0. -1.
        -12    1    3    3    0    0  0.16708663190E+02 -0.13326606821E+02 -0.10243360573E+03  0.10463948327E+03  0.00000000000E+00 0.  1.
        -11    1    4    4    0    0  0.45857459248E+02  0.16704129601E+02 -0.56401758632E+02  0.74586144096E+02  0.00000000000E+00 0.  1.
         11    1    4    4    0    0 -0.38232457355E+02  0.61927509846E+02 -0.97766256657E+02  0.12188100021E+03  0.00000000000E+00 0. -1.
          2    1    1    2  501    0  0.14350017821E+02 -0.13379907905E+03  0.34982026647E+01  0.13461186422E+03  0.00000000000E+00 0. -1.
<scales pt_clust_5="13000.00000" pt_clust_6="13000.00000" pt_clust_7="13000.00000" pt_clust_8="13000.00000" pt_clust_9="119.07908"></scales>
<clustering>
<clus scale="   81.312">  5  6 -1 -1</clus>
<clus scale="   92.685">  7  8 -1 -1</clus>
<clus scale="  100.688">  2  5  1 -1</clus>
<clus scale="  119.079">  1  9  2 -1</clus>
<clus scale="  119.079">  1  5  2 -1</clus>
</clustering>
</event>
<event>
 9    1  0.9171696E-005  0.1286804E+03  0.7546771E-02  0.1232581E+00
         21   -1    0    0  501  502  0.00000000000E+00  0.00000000000E+00  0.80816315459E+02  0.80816315459E+02  0.00000000000E+00 0.  1.
         -2   -1    0    0    0  501 -0.00000000000E+00 -0.00000000000E+00 -0.51897452669E+03  0.51897452669E+03  0.00000000000E+00 0.  1.
         23    2    1    2    0    0  0.60254624769E+02  0.29221079810E+02 -0.10075719346E+03  0.15091004714E+03  0.90207200284E+02 0.  0.
        -24    2    1    2    0    0 -0.13911630142E+03 -0.31919032167E+02 -0.83353410824E+02  0.18286081533E+03  0.78218391404E+02 0.  0.
         13    1    4    4    0    0 -0.22487942257E+02 -0.27054631321E+02 -0.50590662691E+02  0.61620416863E+02  0.00000000000E+00 0. -1.
        -14    1    4    4    0    0 -0.11662835916E+03 -0.48644008464E+01 -0.32762748133E+02  0.12124039847E+03  0.00000000000E+00 0.  1.
        -13    1    3    3    0    0 -0.23263354211E+02  0.14681422328E+02 -0.22521753182E+02  0.35552175421E+02  0.00000000000E+00 0. -1.
         13    1    3    3    0    0  0.83517978980E+02  0.14539657481E+02 -0.78235440278E+02  0.11535787172E+03  0.00000000000E+00 0.  1.
         -1    1    1    2    0  502  0.78861676648E+02  0.26979523572E+01 -0.25404760694E+03  0.26601997967E+03  0.00000000000E+00 0.  1.
<scales pt_clust_5="13000.00000" pt_clust_6="13000.00000" pt_clust_7="13000.00000" pt_clust_8="13000.00000" pt_clust_9="78.90785"></scales>
<clustering>
<clus scale="   78.218">  5  6 -1 -1</clus>
<clus scale="   78.908">  1  9  2 -1</clus>
<clus scale="   90.207">  7  8 -1 -1</clus>
<clus scale="  120.580">  1  5  2 -1</clus>
<clus scale="   78.908">  1  5  2 -1</clus>
</clustering>
</event>
<event>
 9    1  0.9171696E-005  0.2067543E+03  0.7546771E-02  0.1145232E+00
          1   -1    0    0  502    0 -0.00000000000E+00  0.00000000000E+00  0.12686077543E+04  0.12686077543E+04  0.00000000000E+00 0. -1.
         21   -1    0    0  501  502  0.00000000000E+00 -0.00000000000E+00 -0.13410991544E+03  0.13410991544E+03  0.00000000000E+00 0. -1.
         23    2    1    2    0    0 -0.12499702337E+03  0.14665842100E+03  0.89288727990E+03  0.91812421574E+03  0.92582031848E+02 0.  0.
        -24    2    1    2    0    0  0.20941817421E+03 -0.90264805868E+01  0.23206787218E+03  0.32285123753E+03  0.80249456280E+02 0.  0.
         11    1    4    4    0    0  0.20373276334E+03  0.55367341380E+01  0.22962714608E+03  0.30702820799E+03  0.00000000000E+00 0. -1.
        -12    1    4    4    0    0  0.56854108732E+01 -0.14563214725E+02  0.24407260968E+01  0.15823029539E+02  0.00000000000E+00 0.  1.
        -13    1    3    3    0    0 -0.70784674085E+01  0.71486794292E+02  0.36680181728E+03  0.37377003574E+03  0.00000000000E+00 0.  1.
         13    1    3    3    0    0 -0.11791855596E+03  0.75171626709E+02  0.52608546262E+03  0.54435418000E+03  0.00000000000E+00 0. -1.
          2    1    1    2  501    0 -0.84421150846E+02 -0.13763194041E+03  0.95426868288E+01  0.16174221652E+03  0.00000000000E+00 0. -1.
<scales pt_clust_5="13000.00000" pt_clust_6="13000.00000" pt_clust_7="13000.00000" pt_clust_8="13000.00000" pt_clust_9="161.46046"></scales>
<clustering>
<clus scale="   80.249">  5  6 -1 -1</clus>
<clus scale="   92.582">  7  8 -1 -1</clus>
<clus scale="  161.460">  2  9  1 -1</clus>
<clus scale="  201.534">  2  5  1 -1</clus>
<clus scale="  161.460">  2  5  1 -1</clus>
</clustering>
</event>
<event>
 9    1  0.9171696E-005  0.1000777E+03  0.7546771E-02  0.1285138E+00
          3   -1    0    0  502    0 -0.00000000000E+00  0.00000000000E+00  0.62227424265E+03  0.62227424265E+03  0.00000000000E+00 0. -1.
         21   -1    0    0  501  502  0.00000000000E+00 -0.00000000000E+00 -0.36957795747E+03  0.36957795747E+03  0.00000000000E+00 0. -1.
        -24    2    1    2    0    0 -0.14451770814E+02 -0.42090859328E+02  0.31191357958E+03  0.32534927907E+03  0.81126926150E+02 0.  0.
         23    2    1    2    0    0 -0.45162050395E+02  0.37142509273E+02  0.29136933751E+03  0.31084960627E+03  0.91171322702E+02 0.  0.
         11    1    3    3    0    0 -0.26967511848E+02 -0.20242501566E+01  0.30253557807E+02  0.40578590955E+02  0.00000000000E+00 0. -1.
        -12    1    3    3    0    0  0.12515741034E+02 -0.40066609172E+02  0.28166002177E+03  0.28477068811E+03  0.00000000000E+00 0.  1.
        -11    1    4    4    0    0  0.94658896734E+01  0.36589847507E+02  0.46310764571E+02  0.59775470915E+02  0.00000000000E+00 0.  1.
         11    1    4    4    0    0 -0.54627940069E+02  0.55266176612E+00  0.24505857294E+03  0.25107413535E+03  0.00000000000E+00 0. -1.
          4    1    1    2  501    0  0.59613821209E+02  0.49483500548E+01 -0.35058663191E+03  0.35565331479E+03  0.00000000000E+00 0. -1.
<scales pt_clust_5="13000.00000" pt_clust_6="13000.00000" pt_clust_7="13000.00000" pt_clust_8="13000.00000" pt_clust_9="59.81884"></scales>
<clustering>
<clus scale="   59.819">  2  9  1 -1</clus>
<clus scale="   81.127">  5  6 -1 -1</clus>
<clus scale="   91.021">  1  5  2 -1</clus>
<clus scale="   91.171">  7  8 -1 -1</clus>
<clus scale="   59.819">  2  5  1 -1</clus>
</clustering>
</event>
<event>
 9    1  0.9171696E-005  0.1689676E+03  0.7546771E-02  0.1187849E+00
         21   -1    0    0  501  502  0.00000000000E+00  0.00000000000E+00  0.10738619037E+03  0.10738619037E+03  0.00000000000E+00 0.  1.
          1   -1    0    0  502    0 -0.00000000000E+00 -0.00000000000E+00 -0.32136388346E+03  0.32136388346E+03  0.00000000000E+00 0. -1.
        -24    2    1    2    0    0  0.59106448306E+02  0.85123362513E+02 -0.92787991831E+02  0.16093491532E+03  0.80937484918E+02 0.  0.
         23    2    1    2    0    0 -0.92829243724E+02 -0.92762016227E+02 -0.50263788413E+02  0.18890976531E+03  0.12624734001E+03 0.  0.
         13    1    3    3    0    0  0.16940928022E+02  0.64305219962E+02 -0.92483224003E+02  0.11390918786E+03  0.00000000000E+00 0. -1.
        -14    1    3    3    0    0  0.42165520284E+02  0.20818142552E+02 -0.30476782783E+00  0.47025727464E+02  0.00000000000E+00 0.  1.
        -13    1    4    4    0    0 -0.11396256062E+03 -0.77574812230E+02 -0.71520215341E+02  0.15530762350E+03  0.00000000000E+00 0.  1.
         13    1    4    4    0    0  0.21133316898E+02 -0.15187203997E+02  0.21256426928E+02  0.33602141809E+02  0.00000000000E+00 0. -1.
          2    1    1    2  501    0  0.33722795418E+02  0.76386537141E+01 -0.70925912852E+02  0.78905393195E+02  0.00000000000E+00 0. -1.
<scales pt_clust_5="13000.00000" pt_clust_6="13000.00000" pt_clust_7="13000.00000" pt_clust_8="13000.00000" pt_clust_9="34.57712"></scales>
<clustering>
<clus scale="   34.577">  1  9  2 -1</clus>
<clus scale="   80.937">  5  6 -1 -1</clus>
<clus scale="  126.247">  7  8 -1 -1</clus>
<clus scale="  138.429">  2  5  1 -1</clus>
<clus scale="   34.577">  1  5  2 -1</clus>
</clustering>
</event>
<event>
 9    1  0.9171696E-005  0.3171423E+03  0.7546771E-02  0.1116710E+00
         21   -1    0    0  501  502  0.00000000000E+00  0.00000000000E+00  0.28920362823E+03  0.28920362823E+03  0.00000000000E+00 0. -1.
          1   -1    0    0  502    0 -0.00000000000E+00 -0.00000000000E+00 -0.57377871960E+03  0.57377871960E+03  0.00000000000E+00 0. -1.
         23    2    1    2    0    0  0.38385648305E+02  0.52247144270E+02 -0.10814875636E+03  0.15596276020E+03  0.91787836804E+02 0.  0.
        -24    2    1    2    0    0 -0.23761056210E+03  0.18614208097E+03 -0.23490274068E+03  0.39088752818E+03  0.80660452397E+02 0.  0.
         13    1    4    4    0    0 -0.12532416403E+03  0.10636231059E+03 -0.77509338100E+02  0.18173272874E+03  0.00000000000E+00 0. -1.
        -14    1    4    4    0    0 -0.11228639808E+03  0.79779770378E+02 -0.15739340258E+03  0.20915479944E+03  0.00000000000E+00 0.  1.
        -13    1    3    3    0    0  0.26130537260E+02  0.72144574487E+01  0.10028527284E+02  0.28903714870E+02  0.00000000000E+00 0.  1.
         13    1    3    3    0    0  0.12255111045E+02  0.45032686822E+02 -0.11817728365E+03  0.12705904533E+03  0.00000000000E+00 0. -1.
          2    1    1    2  501    0  0.19922491380E+03 -0.23838922524E+03  0.58476405669E+02  0.31613205945E+03  0.00000000000E+00 0. -1.
<scales pt_clust_5="13000.00000" pt_clust_6="13000.00000" pt_clust_7="13000.00000" pt_clust_8="13000.00000" pt_clust_9="306.71346"></scales>
<clustering>
<clus scale="   80.660">  5  6 -1 -1</clus>
<clus scale="   91.788">  7  8 -1 -1</clus>
<clus scale="  112.375">  2  7  1 -1</clus>
<clus scale="  306.713">  1  9  2 -1</clus>
<clus scale="  306.713">  1  5  2 -1</clus>
</clustering>
</event>
<event>
 9    1  0.9171696E-005  0.2329099E+03  0.7546771E-02  0.1144314E+00
         21   -1    0    0  501  502  0.00000000000E+00  0.00000000000E+00  0.26036405364E+03  0.26036405364E+03  0.00000000000E+00 0. -1.
          1   -1    0    0  502    0 -0.00000000000E+00 -0.00000000000E+00 -0.40537034157E+03  0.40537034157E+03  0.00000000000E+00 0. -1.
         23    2    1    2    0    0 -0.97601039610E+02 -0.17071673162E+02 -0.12323183005E+02  0.14462990409E+03  0.10463528736E+03 0.  0.
        -24    2    1    2    0    0 -0.12160508796E+03 -0.96302371148E+02 -0.20069351121E+03  0.26511539829E+03  0.77112546726E+02 0.  0.
         11    1    4    4    0    0 -0.77813051638E+02 -0.90475834493E+02 -0.18087785165E+03  0.21669689627E+03  0.00000000000E+00 0. -1.
        -12    1    4    4    0    0 -0.43792036322E+02 -0.58265366552E+01 -0.19815659554E+02  0.48418502023E+02  0.00000000000E+00 0.  1.
        -11    1    3    3    0    0  0.13647485542E+02 -0.28078041151E+02  0.46284806518E+01  0.31560308770E+02  0.00000000000E+00 0.  1.
         11    1    3    3    0    0 -0.11124852515E+03  0.11006367989E+02 -0.16951663656E+02  0.11306959532E+03  0.00000000000E+00 0. -1.
          2    1    1    2  501    0  0.21920612757E+03  0.11337404431E+03  0.68010406277E+02  0.25598909283E+03  0.00000000000E+00 0. -1.
<scales pt_clust_5="13000.00000" pt_clust_6="13000.00000" pt_clust_7="13000.00000" pt_clust_8="13000.00000" pt_clust_9="219.77412"></scales>
<clustering>
<clus scale="   77.113">  5  6 -1 -1</clus>
<clus scale="  104.635">  7  8 -1 -1</clus>
<clus scale="  144.104">  2  7  1 -1</clus>
<clus scale="  219.774">  1  9  2 -1</clus>
<clus scale="  219.774">  1  5  2 -1</clus>
</clustering>
</event>
<event>
 9    1  0.9171696E-005  0.2572401E+03  0.7546771E-02  0.1121815E+00
         -4   -1    0    0    0  501 -0.00000000000E+00  0.00000000000E+00  0.22809632971E+03  0.22809632971E+03  0.00000000000E+00 0.  1.
         21   -1    0    0  501  502  0.00000000000E+00 -0.00000000000E+00 -0.62844284072E+03  0.62844284072E+03  0.00000000000E+00 0.  1.
        -24    2    1    2    0    0  0.57451771006E+02  0.15910250933E+03 -0.15965039465E+03  0.24459834853E+03  0.75668944260E+02 0.  0.
         23    2    1    2    0    0 -0.11760152872E+03 -0.33897487951E+03 -0.13261256398E+03  0.39364259194E+03  0.92920985660E+02 0.  0.
         13    1    3    3    0    0  0.64080953325E+01  0.75894328869E+02 -0.28979610832E+02  0.81491292077E+02  0.00000000000E+00 0. -1.
        -14    1    3    3    0    0  0.51043675673E+02  0.83208180460E+02 -0.13067078381E+03  0.16310705645E+03  0.00000000000E+00 0.  1.
        -11    1    4    4    0    0 -0.33766754069E+02 -0.47728410397E+02 -0.56176572911E+02  0.81080220667E+02  0.00000000000E+00 0. -1.
         11    1    4    4    0    0 -0.83834774649E+02 -0.29124646911E+03 -0.76435991065E+02  0.31256237128E+03  0.00000000000E+00 0.  1.
         -3    1    1    2    0  502  0.60149757713E+02  0.17987237018E+03 -0.10808355238E+03  0.21829822995E+03  0.00000000000E+00 0.  1.
<scales pt_clust_5="13000.00000" pt_clust_6="13000.00000" pt_clust_7="13000.00000" pt_clust_8="13000.00000" pt_clust_9="239.87109"></scales>
<clustering>
<clus scale="   75.669">  5  6 -1 -1</clus>
<clus scale="   92.921">  7  8 -1 -1</clus>
<clus scale="  185.311">  1  5  2 -1</clus>
<clus scale="  239.871">  2  9  1 -1</clus>
<clus scale="  239.871">  2  5  1 -1</clus>
</clustering>
</event>
<event>
 9    1  0.9171696E-005  0.1116149E+03  0.7546771E-02  0.1262869E+00
         -2   -1    0    0    0  501 -0.00000000000E+00  0.00000000000E+00  0.10199437838E+03  0.10199437838E+03  0.00000000000E+00 0.  1.
         21   -1    0    0  501  502  0.00000000000E+00 -0.00000000000E+00 -0.26760719902E+03  0.26760719902E+03  0.00000000000E+00 0.  1.
        -24    2    1    2    0    0  0.75472536246E+01 -0.61000575429E+02  0.33452433834E+02  0.11040044284E+03  0.85388296679E+02 0.  0.
         23    2    1    2    0    0  0.65989092525E+01  0.13082309932E+02 -0.18041986824E+03  0.20587267574E+03  0.98069043656E+02 0.  0.
         11    1    3    3    0    0 -0.19788568516E+02  0.90735626180E+01 -0.95345956262E+01  0.23766057651E+02  0.00000000000E+00 0. -1.
        -12    1    3    3    0    0  0.27335822141E+02 -0.70074138047E+02  0.42987029460E+02  0.86634385188E+02  0.00000000000E+00 0.  1.
        -13    1    4    4    0    0 -0.34555158527E+02 -0.18987675406E+02 -0.40414533013E+02  0.56461715142E+02  0.00000000000E+00 0.  1.
         13    1    4    4    0    0  0.41154067779E+02  0.32069985338E+02 -0.14000533523E+03  0.14941096060E+03  0.00000000000E+00 0. -1.
         -1    1    1    2    0  502 -0.14146162877E+02  0.47918265497E+02 -0.18645386230E+02  0.53328458819E+02  0.00000000000E+00 0.  1.
<scales pt_clust_5="13000.00000" pt_clust_6="13000.00000" pt_clust_7="13000.00000" pt_clust_8="13000.00000" pt_clust_9="49.96275"></scales>
<clustering>
<clus scale="   49.963">  2  9  1 -1</clus>
<clus scale="   85.388">  5  6 -1 -1</clus>
<clus scale="   98.069">  7  8 -1 -1</clus>
<clus scale="  100.655">  1  5  2 -1</clus>
<clus scale="   49.963">  2  5  1 -1</clus>
</clustering>
</event>
<event>
 9    1  0.9171696E-005  0.1098721E+03  0.7546771E-02  0.1264856E+00
         21   -1    0    0  501  502  0.00000000000E+00  0.00000000000E+00  0.45650587075E+03  0.45650587075E+03  0.00000000000E+00 0.  1.
          1   -1    0    0  502    0 -0.00000000000E+00 -0.00000000000E+00 -0.13420826469E+03  0.13420826469E+03  0.00000000000E+00 0. -1.
         23    2    1    2    0    0  0.55649498696E+02 -0.20723449836E+02 -0.82989090223E+02  0.13673909126E+03  0.91016822101E+02 0.  0.
        -24    2    1    2    0    0 -0.79417158735E+02  0.54540768044E+02  0.39025050709E+03  0.40999096001E+03  0.80717708855E+02 0.  0.
         11    1    4    4    0    0 -0.82972501102E+02  0.25117226578E+02  0.20794226673E+03  0.22528936349E+03  0.00000000000E+00 0. -1.
        -12    1    4    4    0    0  0.35553423666E+01  0.29423541466E+02  0.18230824036E+03  0.18470159651E+03  0.00000000000E+00 0.  1.
        -11    1    3    3    0    0  0.50238573544E+02  0.10771636824E+02 -0.90357296715E+02  0.10394413644E+03  0.00000000000E+00 0.  1.
         11    1    3    3    0    0  0.54109251523E+01 -0.31495086660E+02  0.73682064914E+01  0.32794954820E+02  0.00000000000E+00 0. -1.
          2    1    1    2  501    0  0.23767660039E+02 -0.33817318208E+02  0.15036189190E+02  0.43984084166E+02  0.00000000000E+00 0. -1.
<scales pt_clust_5="13000.00000" pt_clust_6="13000.00000" pt_clust_7="13000.00000" pt_clust_8="13000.00000" pt_clust_9="41.33418"></scales>
<clustering>
<clus scale="   41.334">  1  9  2 -1</clus>
<clus scale="   80.718">  5  6 -1 -1</clus>
<clus scale="   91.017">  7  8 -1 -1</clus>
<clus scale="  101.504">  1  5  2 -1</clus>
<clus scale="   41.334">  1  5  2 -1</clus>
</clustering>
</event>
<event>
 9    1  0.9171696E-005  0.9969432E+02  0.7546771E-02  0.1285387E+00
         21   -1    0    0  501  502  0.00000000000E+00  0.00000000000E+00  0.34764858354E+02  0.34764858354E+02  0.00000000000E+00 0. -1.
         -2   -1    0    0    0  501 -0.00000000000E+00 -0.00000000000E+00 -0.39752472100E+03  0.39752472100E+03  0.00000000000E+00 0.  1.
         23    2    1    2    0    0 -0.52427225082E+02 -0.17713042276E+01 -0.26254340324E+03  0.28223077968E+03  0.89294025360E+02 0.  0.
        -24    2    1    2    0    0  0.29338049449E+02  0.90834780919E+01 -0.87878001351E+02  0.12287763956E+03  0.80206860440E+02 0.  0.
         13    1    4    4    0    0  0.30667902923E+02 -0.14977702490E+02 -0.25645867695E+01  0.34226144201E+02  0.00000000000E+00 0. -1.
        -14    1    4    4    0    0 -0.13298534731E+01  0.24061180581E+02 -0.85313414582E+02  0.88651495356E+02  0.00000000000E+00 0.  1.
        -11    1    3    3    0    0 -0.66971604610E+02 -0.28754952328E+02 -0.18196592109E+03  0.19601948767E+03  0.00000000000E+00 0.  1.
         11    1    3    3    0    0  0.14544379528E+02  0.26983648101E+02 -0.80577482151E+02  0.86211292013E+02  0.00000000000E+00 0. -1.
         -1    1    1    2    0  502  0.23089175633E+02 -0.73121738643E+01 -0.12338458049E+02  0.27181160112E+02  0.00000000000E+00 0.  1.
<scales pt_clust_5="13000.00000" pt_clust_6="13000.00000" pt_clust_7="13000.00000" pt_clust_8="13000.00000" pt_clust_9="24.21937"></scales>
<clustering>
<clus scale="   24.219">  1  9  2 -1</clus>
<clus scale="   80.207">  5  6 -1 -1</clus>
<clus scale="   89.294">  7  8 -1 -1</clus>
<clus scale="   91.644">  1  5  2 -1</clus>
<clus scale="   24.219">  1  5  2 -1</clus>
</clustering>
</event>
<event>
 9    1  0.3116218E-004  0.1055787E+03  0.7546771E-02  0.1277463E+00
         -4   -1    0    0    0  501 -0.00000000000E+00  0.00000000000E+00  0.46988027996E+03  0.46988027996E+03  0.00000000000E+00 0.  1.
         21   -1    0    0  501  502  0.00000000000E+00 -0.00000000000E+00 -0.20630802566E+03  0.20630802566E+03  0.00000000000E+00 0.  1.
        -24    2    1    2    0    0  0.56425632633E+01 -0.42401249905E+02  0.41736140071E+03  0.42715180137E+03  0.80239753836E+02 0.  0.
         23    2    1    2    0    0 -0.12689294513E+02  0.86741877565E+01 -0.79719340049E+01  0.99203828994E+02  0.97681053571E+02 0.  0.
         11    1    3    3    0    0  0.11453667582E+02  0.18826459072E+02  0.49488908347E+02  0.54173555465E+02  0.00000000000E+00 0. -1.
        -12    1    3    3    0    0 -0.58111043185E+01 -0.61227708977E+02  0.36787249236E+03  0.37297824590E+03  0.00000000000E+00 0.  1.
        -11    1    4    4    0    0 -0.76291414184E+01 -0.26191588257E+02  0.34525126045E+02  0.44002129751E+02  0.00000000000E+00 0.  1.
         11    1    4    4    0    0 -0.50601530943E+01  0.34865776014E+02 -0.42497060050E+02  0.55201699243E+02  0.00000000000E+00 0. -1.
         -3    1    1    2    0  502  0.70467312494E+01  0.33727062148E+02 -0.14581721240E+03  0.14983267526E+03  0.00000000000E+00 0.  1.
<scales pt_clust_5="13000.00000" pt_clust_6="13000.00000" pt_clust_7="13000.00000" pt_clust_8="13000.00000" pt_clust_9="34.45535"></scales>
<clustering>
<clus scale="   34.455">  2  9  1 -1</clus>
<clus scale="   80.240">  5  6 -1 -1</clus>
<clus scale="   89.687">  1  5  2 -1</clus>
<clus scale="   97.681">  7  8 -1 -1</clus>
<clus scale="   34.455">  2  5  1 -1</clus>
</clustering>
</event>
<event>
 9    1  0.9171696E-005  0.1210867E+03  0.7546771E-02  0.1247816E+00
         21   -1    0    0  501  502  0.00000000000E+00  0.00000000000E+00  0.59524008827E+03  0.59524008827E+03  0.00000000000E+00 0. -1.
          1   -1    0    0  502    0 -0.00000000000E+00 -0.00000000000E+00 -0.27106382020E+03  0.27106382020E+03  0.00000000000E+00 0. -1.
         23    2    1    2    0    0  0.51511282679E+02  0.20585220024E+02 -0.21811084407E+03  0.24259844382E+03  0.90578701218E+02 0.  0.
        -24    2    1    2    0    0  0.78723610132E+02 -0.21584639864E+02  0.44889206450E+03  0.46344080520E+03  0.81301850423E+02 0.  0.
         11    1    4    4    0    0  0.86438948240E+02 -0.31865845243E+02  0.43443511299E+03  0.44409570057E+03  0.00000000000E+00 0. -1.
        -12    1    4    4    0    0 -0.77153381078E+01  0.10281205378E+02  0.14456951509E+02  0.19345104628E+02  0.00000000000E+00 0.  1.
        -13    1    3    3    0    0  0.49443962070E+02 -0.21320997938E+02 -0.68015236552E+02  0.86748848646E+02  0.00000000000E+00 0.  1.
         13    1    3    3    0    0  0.20673206098E+01  0.41906217962E+02 -0.15009560752E+03  0.15584959517E+03  0.00000000000E+00 0. -1.
          2    1    1    2  501    0 -0.13023489281E+03  0.99941984034E+00  0.93395047636E+02  0.16026465945E+03  0.00000000000E+00 0. -1.
<scales pt_clust_5="13000.00000" pt_clust_6="13000.00000" pt_clust_7="13000.00000" pt_clust_8="13000.00000" pt_clust_9="89.73301"></scales>
<clustering>
<clus scale="   81.302">  5  6 -1 -1</clus>
<clus scale="   90.579">  7  8 -1 -1</clus>
<clus scale="  106.215">  2  7  1 -1</clus>
<clus scale="   89.733">  1  9  2 -1</clus>
<clus scale="   89.733">  1  5  2 -1</clus>
</clustering>
</event>
<event>
 9    1  0.9171696E-005  0.2501264E+03  0.7546771E-02  0.1113759E+00
          1   -1    0    0  502    0 -0.00000000000E+00  0.00000000000E+00  0.29473800685E+03  0.29473800685E+03  0.00000000000E+00 0. -1.
         21   -1    0    0  501  502  0.00000000000E+00 -0.00000000000E+00 -0.70564321971E+03  0.70564321971E+03  0.00000000000E+00 0. -1.
         23    2    1    2    0    0  0.23982672599E+03 -0.56214592250E+02  0.19699964712E+03  0.32836932732E+03  0.91326969074E+02 0.  0.
        -24    2    1    2    0    0 -0.15762575017E+03  0.55894117706E+02 -0.29765161287E+03  0.35105367691E+03  0.81683363776E+02 0.  0.
         13    1    4    4    0    0 -0.27160645797E+02  0.44241501079E+02 -0.11615349983E+03  0.12722675277E+03  0.00000000000E+00 0. -1.
        -14    1    4    4    0    0 -0.13046510437E+03  0.11652616626E+02 -0.18149811305E+03  0.22382692414E+03  0.00000000000E+00 0.  1.
        -11    1    3    3    0    0  0.15587981352E+02 -0.26060645488E+02  0.50171728062E+02  0.58645926565E+02  0.00000000000E+00 0.  1.
         11    1    3    3    0    0  0.22423874463E+03 -0.30153946762E+02  0.14682791906E+03  0.26972340076E+03  0.00000000000E+00 0. -1.
          2    1    1    2  501    0 -0.82200975820E+02  0.32047454438E+00 -0.31025324712E+03  0.32095822232E+03  0.00000000000E+00 0. -1.
<scales pt_clust_5="13000.00000" pt_clust_6="13000.00000" pt_clust_7="13000.00000" pt_clust_8="13000.00000" pt_clust_9="82.20160"></scales>
<clustering>
<clus scale="   81.683">  5  6 -1 -1</clus>
<clus scale="   82.202">  2  9  1 -1</clus>
<clus scale="   91.327">  7  8 -1 -1</clus>
<clus scale="  246.769">  2  5  1 -1</clus>
<clus scale="   82.202">  2  5  1 -1</clus>
</clustering>
</event>
<event>
 9    1  0.9171696E-005  0.2007417E+03  0.7546771E-02  0.1183329E+00
         21   -1    0    0  501  502  0.00000000000E+00  0.00000000000E+00  0.82906861496E+03  0.82906861496E+03  0.00000000000E+00 0. -1.
         -2   -1    0    0    0  501 -0.00000000000E+00 -0.00000000000E+00 -0.11506069646E+03  0.11506069646E+03  0.00000000000E+00 0.  1.
         23    2    1    2    0    0 -0.42743804645E+02 -0.36943750603E-01  0.15955525420E+03  0.18382527120E+03  0.80664843570E+02 0.  0.
        -24    2    1    2    0    0  0.18820431178E+03  0.30876023591E+02  0.57395714805E+03  0.61033660086E+03  0.81913165922E+02 0.  0.
         11    1    4    4    0    0  0.18982202159E+03  0.33410850446E+02  0.49319723284E+03  0.52952072224E+03  0.00000000000E+00 0. -1.
        -12    1    4    4    0    0 -0.16177098051E+01 -0.25348268542E+01  0.80759915211E+02  0.80815878620E+02  0.00000000000E+00 0.  1.
        -11    1    3    3    0    0  0.17601014420E+02  0.12660476234E+02  0.14166458990E+02  0.25899264998E+02  0.00000000000E+00 0. -1.
         11    1    3    3    0    0 -0.60344819065E+02 -0.12697419985E+02  0.14538879521E+03  0.15792600620E+03  0.00000000000E+00 0.  1.
         -1    1    1    2    0  502 -0.14546050714E+03 -0.30839079841E+02 -0.19504483751E+02  0.14996743936E+03  0.00000000000E+00 0.  1.
<scales pt_clust_5="13000.00000" pt_clust_6="13000.00000" pt_clust_7="13000.00000" pt_clust_8="13000.00000" pt_clust_9="183.26894"></scales>
<clustering>
<clus scale="   80.665">  7  8 -1 -1</clus>
<clus scale="   81.913">  5  6 -1 -1</clus>
<clus scale="   91.290">  2  7  1 -1</clus>
<clus scale="  183.269">  1  9  2 -1</clus>
<clus scale="  183.269">  1  5  2 -1</clus>
</clustering>
</event>
<event>
 9    1  0.9171696E-005  0.2816602E+03  0.7546771E-02  0.1094786E+00
          1   -1    0    0  502    0 -0.00000000000E+00  0.00000000000E+00  0.97906371524E+03  0.97906371524E+03  0.00000000000E+00 0. -1.
         21   -1    0    0  501  502  0.00000000000E+00 -0.00000000000E+00 -0.67849624115E+02  0.67849624115E+02  0.00000000000E+00 0. -1.
        -24    2    1    2    0    0 -0.88384678571E+02 -0.66265883500E+02  0.37408656160E+03  0.39550385722E+03  0.65418092138E+02 0.  0.
         23    2    1    2    0    0 -0.98549666986E+02 -0.54042374614E+02  0.24209798197E+03  0.28200325527E+03  0.91004329525E+02 0.  0.
         13    1    3    3    0    0 -0.82137351144E+02 -0.79032622188E+02  0.32550353476E+03  0.34488440232E+03  0.00000000000E+00 0. -1.
        -14    1    3    3    0    0 -0.62473274275E+01  0.12766738688E+02  0.48583026844E+02  0.50619454897E+02  0.00000000000E+00 0.  1.
        -13    1    4    4    0    0 -0.29484480718E+02  0.11861730868E+02  0.13430845424E+03  0.13801737623E+03  0.00000000000E+00 0.  1.
         13    1    4    4    0    0 -0.69065186268E+02 -0.65904105482E+02  0.10778952774E+03  0.14398587904E+03  0.00000000000E+00 0. -1.
          2    1    1    2  501    0  0.18693434556E+03  0.12030825811E+03  0.29502954754E+03  0.36940622686E+03  0.00000000000E+00 0. -1.
<scales pt_clust_5="13000.00000" pt_clust_6="13000.00000" pt_clust_7="13000.00000" pt_clust_8="13000.00000" pt_clust_9="222.30278"></scales>
<clustering>
<clus scale="   65.418">  5  6 -1 -1</clus>
<clus scale="   91.004">  7  8 -1 -1</clus>
<clus scale="  113.234">  5  7 -1 -1</clus>
<clus scale="  222.303">  2  9  1 -1</clus>
<clus scale="  222.303">  2  5  1 -1</clus>
</clustering>
</event>
<event>
 9    1  0.9171696E-005  0.1289936E+03  0.7546771E-02  0.1232570E+00
         21   -1    0    0  501  502  0.00000000000E+00  0.00000000000E+00  0.24311472464E+03  0.24311472464E+03  0.00000000000E+00 0.  1.
          3   -1    0    0  502    0 -0.00000000000E+00 -0.00000000000E+00 -0.17635305920E+03  0.17635305920E+03  0.00000000000E+00 0. -1.
         23    2    1    2    0    0 -0.79281555180E+02 -0.20161981126E+02 -0.92901202053E+02  0.15385297718E+03  0.91367580519E+02 0.  0.
        -24    2    1    2    0    0  0.12443905798E+03  0.21538976054E+02  0.67431039101E+02  0.16291229284E+03  0.77746147723E+02 0.  0.
         11    1    4    4    0    0  0.28770079052E+02 -0.20882900745E+02 -0.46286812277E+01  0.35850211744E+02  0.00000000000E+00 0. -1.
        -12    1    4    4    0    0  0.95668978924E+02  0.42421876798E+02  0.72059720329E+02  0.12706208110E+03  0.00000000000E+00 0.  1.
        -13    1    3    3    0    0 -0.47310545138E+02  0.33813367396E+02 -0.57690751244E+02  0.81913700167E+02  0.00000000000E+00 0. -1.
         13    1    3    3    0    0 -0.31971010042E+02 -0.53975348522E+02 -0.35210450809E+02  0.71939277014E+02  0.00000000000E+00 0.  1.
          4    1    1    2  501    0 -0.45157502796E+02 -0.13769949275E+01  0.92231828397E+02  0.10270251381E+03  0.00000000000E+00 0. -1.
<scales pt_clust_5="13000.00000" pt_clust_6="13000.00000" pt_clust_7="13000.00000" pt_clust_8="13000.00000" pt_clust_9="45.17849"></scales>
<clustering>
<clus scale="   45.178">  1  9  2 -1</clus>
<clus scale="   77.746">  5  6 -1 -1</clus>
<clus scale="   91.368">  7  8 -1 -1</clus>
<clus scale="  119.732">  1  5  2 -1</clus>
<clus scale="   45.178">  1  5  2 -1</clus>
</clustering>
</event>
<event>
 9    1  0.9171696E-005  0.1283742E+03  0.7546771E-02  0.1234113E+00
         21   -1    0    0  501  502  0.00000000000E+00  0.00000000000E+00  0.39307847795E+03  0.39307847795E+03  0.00000000000E+00 0.  1.
          3   -1    0    0  502    0 -0.00000000000E+00 -0.00000000000E+00 -0.59286804813E+02  0.59286804813E+02  0.00000000000E+00 0. -1.
         23    2    1    2    0    0  0.52666300925E+02 -0.73297183842E+02  0.63746717019E+02  0.14538265417E+03  0.94478864252E+02 0.  0.
        -24    2    1    2    0    0 -0.32257565164E+02  0.75646111155E+02  0.16992126275E+03  0.20477309906E+03  0.79346719647E+02 0.  0.
         13    1    4    4    0    0 -0.30085245215E+02 -0.12734436773E+01  0.19682162010E+02  0.35974034244E+02  0.00000000000E+00 0. -1.
        -14    1    4    4    0    0 -0.21723199492E+01  0.76919554832E+02  0.15023910074E+03  0.16879906481E+03  0.00000000000E+00 0.  1.
        -13    1    3    3    0    0  0.75753715249E+02 -0.59978608899E+02  0.27630672277E+02  0.10049633302E+03  0.00000000000E+00 0. -1.
         13    1    3    3    0    0 -0.23087414324E+02 -0.13318574943E+02  0.36116044742E+02  0.44886321151E+02  0.00000000000E+00 0.  1.
          4    1    1    2  501    0 -0.20408735761E+02 -0.23489273129E+01  0.10012369336E+03  0.10220952954E+03  0.00000000000E+00 0. -1.
<scales pt_clust_5="13000.00000" pt_clust_6="13000.00000" pt_clust_7="13000.00000" pt_clust_8="13000.00000" pt_clust_9="20.54347"></scales>
<clustering>
<clus scale="   20.543">  1  9  2 -1</clus>
<clus scale="   79.347">  5  6 -1 -1</clus>
<clus scale="   94.479">  7  8 -1 -1</clus>
<clus scale="  117.684">  1  5  2 -1</clus>
<clus scale="   20.543">  1  5  2 -1</clus>
</clustering>
</event>
<event>
 9    1  0.9171696E-005  0.1268493E+03  0.7546771E-02  0.1242184E+00
          3   -1    0    0  502    0 -0.00000000000E+00  0.00000000000E+00  0.15926971983E+03  0.15926971983E+03  0.00000000000E+00 0. -1.
         21   -1    0    0  501  502  0.00000000000E+00 -0.00000000000E+00 -0.22870348872E+03  0.22870348872E+03  0.00000000000E+00 0. -1.
        -24    2    1    2    0    0 -0.93340173058E+01  0.61266963541E+02  0.54959051963E+02  0.11717463505E+03  0.82877216446E+02 0.  0.
         23    2    1    2    0    0  0.44906994692E+02  0.53704138334E+02 -0.88235347483E+02  0.14513571555E+03  0.91532107677E+02 0.  0.
         13    1    3    3    0    0  0.14761581289E+01  0.32873128509E+02  0.74229693167E+02  0.81196483719E+02  0.00000000000E+00 0. -1.
        -14    1    3    3    0    0 -0.10810175435E+02  0.28393835032E+02 -0.19270641204E+02  0.35978151331E+02  0.00000000000E+00 0.  1.
        -13    1    4    4    0    0  0.43647981872E+01 -0.25120564513E+02 -0.28531277179E+02  0.38263925598E+02  0.00000000000E+00 0.  1.
         13    1    4    4    0    0  0.40542196505E+02  0.78824702847E+02 -0.59704070304E+02  0.10687178995E+03  0.00000000000E+00 0. -1.
          4    1    1    2  501    0 -0.35572977387E+02 -0.11497110188E+03 -0.36157473375E+02  0.12566285795E+03  0.00000000000E+00 0. -1.
<scales pt_clust_5="13000.00000" pt_clust_6="13000.00000" pt_clust_7="13000.00000" pt_clust_8="13000.00000" pt_clust_9="87.82162"></scales>
<clustering>
<clus scale="   82.877">  5  6 -1 -1</clus>
<clus scale="   91.532">  7  8 -1 -1</clus>
<clus scale="  103.486">  1  5  2 -1</clus>
<clus scale="   87.822">  2  9  1 -1</clus>
<clus scale="   87.822">  2  5  1 -1</clus>
</clustering>
</event>
<event>
 9    1  0.9171696E-005  0.2048670E+03  0.7546771E-02  0.1147418E+00
          1   -1    0    0  502    0 -0.00000000000E+00  0.00000000000E+00  0.13835474170E+04  0.13835474170E+04  0.00000000000E+00 0. -1.
         21   -1    0    0  501  502  0.00000000000E+00 -0.00000000000E+00 -0.43527905597E+02  0.43527905597E+02  0.00000000000E+00 0. -1.
         23    2    1    2    0    0  0.14372531844E+02  0.20370517332E+03  0.92189433960E+03  0.94958070535E+03  0.10055831782E+03 0.  0.
        -24    2    1    2    0    0 -0.21470678941E+02 -0.14133053221E+03  0.33372795793E+03  0.37230968841E+03  0.82491483140E+02 0.  0.
         11    1    4    4    0    0 -0.51527891523E+02 -0.67740943565E+02  0.15890582752E+03  0.18026375415E+03  0.00000000000E+00 0. -1.
        -12    1    4    4    0    0  0.30057212582E+02 -0.73589588649E+02  0.17482213041E+03  0.19204593426E+03  0.00000000000E+00 0.  1.
        -13    1    3    3    0    0  0.42795910571E+02  0.32936264519E+02  0.24725777221E+03  0.25308633586E+03  0.00000000000E+00 0.  1.
         13    1    3    3    0    0 -0.28423378727E+02  0.17076890880E+03  0.67463656739E+03  0.69649436948E+03  0.00000000000E+00 0. -1.
          2    1    1    2  501    0  0.70981470961E+01 -0.62374641101E+02  0.84397213882E+02  0.10518492884E+03  0.00000000000E+00 0. -1.
<scales pt_clust_5="13000.00000" pt_clust_6="13000.00000" pt_clust_7="13000.00000" pt_clust_8="13000.00000" pt_clust_9="62.77722"></scales>
<clustering>
<clus scale="   62.777">  2  9  1 -1</clus>
<clus scale="   82.491">  5  6 -1 -1</clus>
<clus scale="  100.558">  7  8 -1 -1</clus>
<clus scale="  196.630">  2  5  1 -1</clus>
<clus scale="   62.777">  2  5  1 -1</clus>
</clustering>
</event>
<event>
 9    1  0.9171696E-005  0.1367995E+03  0.7546771E-02  0.1238522E+00
         21   -1    0    0  501  502  0.00000000000E+00  0.00000000000E+00  0.65726667165E+02  0.65726667165E+02  0.00000000000E+00 0. -1.
          1   -1    0    0  502    0 -0.00000000000E+00 -0.00000000000E+00 -0.64198853256E+03  0.64198853256E+03  0.00000000000E+00 0. -1.
        -24    2    1    2    0    0  0.41499344619E+02 -0.29681359812E+01 -0.26249295399E+03  0.27713007666E+03  0.78533579180E+02 0.  0.
         23    2    1    2    0    0 -0.27698640515E+02 -0.99487562816E+02 -0.29499823183E+03  0.32551387076E+03  0.90941373610E+02 0.  0.
         11    1    3    3    0    0  0.49663292422E+02 -0.22506247120E+02 -0.10590563242E+03  0.11911749138E+03  0.00000000000E+00 0. -1.
        -12    1    3    3    0    0 -0.81639478033E+01  0.19538111138E+02 -0.15658732157E+03  0.15801258528E+03  0.00000000000E+00 0.  1.
        -11    1    4    4    0    0 -0.38273354668E+02 -0.38618169795E+02 -0.22793737438E+03  0.23433236941E+03  0.00000000000E+00 0. -1.
         11    1    4    4    0    0  0.10574714153E+02 -0.60869393021E+02 -0.67060857450E+02  0.91181501348E+02  0.00000000000E+00 0.  1.
          2    1    1    2  501    0 -0.13800704104E+02  0.10245569880E+03 -0.18770679578E+02  0.10507125231E+03  0.00000000000E+00 0. -1.
<scales pt_clust_5="13000.00000" pt_clust_6="13000.00000" pt_clust_7="13000.00000" pt_clust_8="13000.00000" pt_clust_9="102.19482"></scales>
<clustering>
<clus scale="   78.534">  5  6 -1 -1</clus>
<clus scale="   88.874">  2  5  1 -1</clus>
<clus scale="   90.941">  7  8 -1 -1</clus>
<clus scale="  102.195">  1  9  2 -1</clus>
<clus scale="  102.195">  1  5  2 -1</clus>
</clustering>
</event>
<event>
 9    1  0.9171696E-005  0.1383297E+03  0.7546771E-02  0.1216765E+00
         21   -1    0    0  501  502  0.00000000000E+00  0.00000000000E+00  0.52945208607E+02  0.52945208607E+02  0.00000000000E+00 0. -1.
          1   -1    0    0  502    0 -0.00000000000E+00 -0.00000000000E+00 -0.67093262268E+03  0.67093262268E+03  0.00000000000E+00 0. -1.
         23    2    1    2    0    0 -0.27405184354E+01  0.79054553547E+02 -0.19801255888E+03  0.23024202337E+03  0.86863588311E+02 0.  0.
        -24    2    1    2    0    0 -0.80174750927E+01 -0.15728207646E+03 -0.25289340295E+03  0.30883458647E+03  0.81374425097E+02 0.  0.
         13    1    4    4    0    0  0.35659180844E+02 -0.54085917694E+02 -0.82497553257E+02  0.10489380327E+03  0.00000000000E+00 0. -1.
        -14    1    4    4    0    0 -0.43676655936E+02 -0.10319615876E+03 -0.17039584970E+03  0.20394078320E+03  0.00000000000E+00 0.  1.
        -13    1    3    3    0    0 -0.37490457631E+02  0.25371453183E+02 -0.42492232753E+02  0.62087316695E+02  0.00000000000E+00 0. -1.
         13    1    3    3    0    0  0.34749939196E+02  0.53683100364E+02 -0.15552032613E+03  0.16815470668E+03  0.00000000000E+00 0.  1.
          2    1    1    2  501    0  0.10757993528E+02  0.78227522912E+02 -0.16708145224E+03  0.18480122145E+03  0.00000000000E+00 0. -1.
<scales pt_clust_5="13000.00000" pt_clust_6="13000.00000" pt_clust_7="13000.00000" pt_clust_8="13000.00000" pt_clust_9="78.96383"></scales>
<clustering>
<clus scale="   78.964">  1  9  2 -1</clus>
<clus scale="   81.374">  5  6 -1 -1</clus>
<clus scale="   86.864">  7  8 -1 -1</clus>
<clus scale="  134.950">  1  5  2 -1</clus>
<clus scale="   78.964">  1  5  2 -1</clus>
</clustering>
</event>
<event>
 9    1  0.9171696E-005  0.1230584E+03  0.7546771E-02  0.1241551E+00
          1   -1    0    0  502    0 -0.00000000000E+00  0.00000000000E+00  0.50991453339E+03  0.50991453339E+03  0.00000000000E+00 0. -1.
         21   -1    0    0  501  502  0.00000000000E+00 -0.00000000000E+00 -0.47251165617E+02  0.47251165617E+02  0.00000000000E+00 0. -1.
         23    2    1    2    0    0 -0.86118832460E+02  0.29228696086E+02  0.34801039074E+03  0.37105870520E+03  0.91118388192E+02 0.  0.
        -24    2    1    2    0    0  0.61091583726E+02 -0.61136738232E+01  0.48364138389E+02  0.11157594281E+03  0.79627523644E+02 0.  0.
         11    1    4    4    0    0  0.25487511214E+02 -0.21560585039E+02 -0.15529233494E+02  0.36818869456E+02  0.00000000000E+00 0. -1.
        -12    1    4    4    0    0  0.35604072512E+02  0.15446911216E+02  0.63893371883E+02  0.74757073352E+02  0.00000000000E+00 0.  1.
        -13    1    3    3    0    0 -0.60779529529E+02  0.61219734604E+02  0.26243621576E+03  0.27625128861E+03  0.00000000000E+00 0.  1.
         13    1    3    3    0    0 -0.25339302931E+02 -0.31991038518E+02  0.85574174979E+02  0.94807416597E+02  0.00000000000E+00 0. -1.
          2    1    1    2  501    0  0.25027248734E+02 -0.23115022263E+02  0.66288838644E+02  0.74531050993E+02  0.00000000000E+00 0. -1.
<scales pt_clust_5="13000.00000" pt_clust_6="13000.00000" pt_clust_7="13000.00000" pt_clust_8="13000.00000" pt_clust_9="34.06859"></scales>
<clustering>
<clus scale="   34.069">  2  9  1 -1</clus>
<clus scale="   79.628">  5  6 -1 -1</clus>
<clus scale="   91.118">  7  8 -1 -1</clus>
<clus scale="  114.810">  2  5  1 -1</clus>
<clus scale="   34.069">  2  5  1 -1</clus>
</clustering>
</event>
<event>
 9    1  0.9171696E-005  0.1191545E+03  0.7546771E-02  0.1250657E+00
          3   -1    0    0  502    0 -0.00000000000E+00  0.00000000000E+00  0.62950170480E+03  0.62950170480E+03  0.00000000000E+00 0. -1.
         21   -1    0    0  501  502  0.00000000000E+00 -0.00000000000E+00 -0.80853594004E+02  0.80853594004E+02  0.00000000000E+00 0. -1.
         23    2    1    2    0    0  0.25027533934E+02 -0.82233498561E+02  0.17140984665E+03  0.21247371877E+03  0.91515134789E+02 0.  0.
        -24    2    1    2    0    0  0.41771148228E+02  0.58474436884E+02 -0.11456725165E+02  0.10277355473E+03  0.72574502461E+02 0.  0.
         13    1    4    4    0    0  0.59787914165E+02  0.28432499234E+02 -0.13937881015E+02  0.67655496599E+02  0.00000000000E+00 0. -1.
        -14    1    4    4    0    0 -0.18016765937E+02  0.30041937651E+02  0.24811558497E+01  0.35118058132E+02  0.00000000000E+00 0.  1.
        -13    1    3    3    0    0 -0.18701630295E+02 -0.79044405532E+02  0.12000052318E+03  0.14490650291E+03  0.00000000000E+00 0.  1.
         13    1    3    3    0    0  0.43729164230E+02 -0.31890930288E+01  0.51409323472E+02  0.67567215855E+02  0.00000000000E+00 0. -1.
          4    1    1    2  501    0 -0.66798682162E+02  0.23759061676E+02  0.38869498930E+03  0.39510802531E+03  0.00000000000E+00 0. -1.
<scales pt_clust_5="13000.00000" pt_clust_6="13000.00000" pt_clust_7="13000.00000" pt_clust_8="13000.00000" pt_clust_9="70.89825"></scales>
<clustering>
<clus scale="   70.898">  2  9  1 -1</clus>
<clus scale="   72.575">  5  6 -1 -1</clus>
<clus scale="   91.515">  7  8 -1 -1</clus>
<clus scale="  105.308">  2  5  1 -1</clus>
<clus scale="   70.898">  2  5  1 -1</clus>
</clustering>
</event>
<event>
 9    1  0.9171696E-005  0.1544098E+03  0.7546771E-02  0.1196567E+00
         21   -1    0    0  501  502  0.00000000000E+00  0.00000000000E+00  0.64151946777E+02  0.64151946777E+02  0.00000000000E+00 0.  1.
          3   -1    0    0  502    0 -0.00000000000E+00 -0.00000000000E+00 -0.43497734611E+03  0.43497734611E+03  0.00000000000E+00 0. -1.
        -24    2    1    2    0    0  0.11146099694E+03 -0.52689069165E+02 -0.17385041267E+03  0.22952754078E+03  0.85201139330E+02 0.  0.
         23    2    1    2    0    0 -0.98525745139E+02  0.76054940111E+02 -0.15293701217E+03  0.21809808368E+03  0.93195321998E+02 0.  0.
         13    1    3    3    0    0  0.38561858990E+02 -0.65333615812E+02 -0.86662354507E+02  0.11517752390E+03  0.00000000000E+00 0. -1.
        -14    1    3    3    0    0  0.72899137948E+02  0.12644546647E+02 -0.87188058162E+02  0.11435001688E+03  0.00000000000E+00 0.  1.
        -11    1    4    4    0    0 -0.26616627560E+02 -0.15794507495E+01  0.58336386783E+01  0.27294154458E+02  0.00000000000E+00 0.  1.
         11    1    4    4    0    0 -0.71909117579E+02  0.77634390861E+02 -0.15877065085E+03  0.19080392922E+03  0.00000000000E+00 0. -1.
          4    1    1    2  501    0 -0.12935251799E+02 -0.23365870947E+02 -0.44037974493E+02  0.51503668429E+02  0.00000000000E+00 0. -1.
<scales pt_clust_5="13000.00000" pt_clust_6="13000.00000" pt_clust_7="13000.00000" pt_clust_8="13000.00000" pt_clust_9="26.70740"></scales>
<clustering>
<clus scale="   26.707">  1  9  2 -1</clus>
<clus scale="   85.201">  5  6 -1 -1</clus>
<clus scale="   93.195">  7  8 -1 -1</clus>
<clus scale="  149.721">  2  5  1 -1</clus>
<clus scale="   26.707">  1  5  2 -1</clus>
</clustering>
</event>
<event>
 9    1  0.9171696E-005  0.9473284E+02  0.7546771E-02  0.1296693E+00
         21   -1    0    0  501  502  0.00000000000E+00  0.00000000000E+00  0.25009143537E+03  0.25009143537E+03  0.00000000000E+00 0. -1.
          1   -1    0    0  502    0 -0.00000000000E+00 -0.00000000000E+00 -0.14201776650E+03  0.14201776650E+03  0.00000000000E+00 0. -1.
        -24    2    1    2    0    0 -0.26136270479E+02 -0.22230465003E+02  0.45582872798E+02  0.98828618081E+02  0.80696959363E+02 0.  0.
         23    2    1    2    0    0 -0.29586950202E+01  0.33496305355E+02  0.16248579911E+03  0.18853118375E+03  0.89507630866E+02 0.  0.
         11    1    3    3    0    0  0.28360772018E+02 -0.37196690006E+00  0.95063878388E+01  0.29913929173E+02  0.00000000000E+00 0. -1.
        -12    1    3    3    0    0 -0.54497042497E+02 -0.21858498103E+02  0.36076484960E+02  0.68914688908E+02  0.00000000000E+00 0.  1.
        -11    1    4    4    0    0  0.79165485349E+01  0.51527849319E+02  0.15881984100E+03  0.16715721011E+03  0.00000000000E+00 0. -1.
         11    1    4    4    0    0 -0.10875243555E+02 -0.18031543964E+02  0.36659581098E+01  0.21373973636E+02  0.00000000000E+00 0.  1.
          2    1    1    2  501    0  0.29094965500E+02 -0.11265840352E+02 -0.99995003038E+02  0.10474940004E+03  0.00000000000E+00 0. -1.
<scales pt_clust_5="13000.00000" pt_clust_6="13000.00000" pt_clust_7="13000.00000" pt_clust_8="13000.00000" pt_clust_9="31.19995"></scales>
<clustering>
<clus scale="   31.200">  1  9  2 -1</clus>
<clus scale="   80.697">  5  6 -1 -1</clus>
<clus scale="   86.456">  2  5  1 -1</clus>
<clus scale="   89.508">  7  8 -1 -1</clus>
<clus scale="   31.200">  1  5  2 -1</clus>
</clustering>
</event>
<event>
 9    1  0.9171696E-005  0.2399911E+03  0.7546771E-02  0.1120428E+00
         -2   -1    0    0    0  501 -0.00000000000E+00  0.00000000000E+00  0.85249820142E+02  0.85249820142E+02  0.00000000000E+00 0.  1.
         21   -1    0    0  501  502  0.00000000000E+00 -0.00000000000E+00 -0.12032555328E+04  0.12032555328E+04  0.00000000000E+00 0. -1.
         23    2    1    2    0    0  0.18701571613E+03 -0.12019072675E+03 -0.14932110000E+03  0.28290120186E+03  0.91189967836E+02 0.  0.
        -24    2    1    2    0    0 -0.16908850237E+03  0.14430364325E+03 -0.90137516809E+03  0.93189269293E+03  0.80822858115E+02 0.  0.
         11    1    4    4    0    0 -0.15988904245E+03  0.11829446607E+03 -0.67055985415E+03  0.69943448914E+03  0.00000000000E+00 0. -1.
        -12    1    4    4    0    0 -0.91994599271E+01  0.26009177178E+02 -0.23081531394E+03  0.23245820379E+03  0.00000000000E+00 0.  1.
        -11    1    3    3    0    0  0.14957346596E+03 -0.69600721152E+02 -0.64170741890E+02  0.17701515816E+03  0.00000000000E+00 0.  1.
         11    1    3    3    0    0  0.37442250164E+02 -0.50590005594E+02 -0.85150358106E+02  0.10588604369E+03  0.00000000000E+00 0. -1.
         -1    1    1    2    0  502 -0.17927213755E+02 -0.24112916504E+02 -0.67309444608E+02  0.73711458192E+02  0.00000000000E+00 0.  1.
<scales pt_clust_5="13000.00000" pt_clust_6="13000.00000" pt_clust_7="13000.00000" pt_clust_8="13000.00000" pt_clust_9="30.04693"></scales>
<clustering>
<clus scale="   30.047">  2  9  1 -1</clus>
<clus scale="   80.823">  5  6 -1 -1</clus>
<clus scale="   91.190">  7  8 -1 -1</clus>
<clus scale="  236.247">  2  5  1 -1</clus>
<clus scale="   30.047">  2  5  1 -1</clus>
</clustering>
</event>
<event>
 9    1  0.9171696E-005  0.1513451E+03  0.7546771E-02  0.1219283E+00
         21   -1    0    0  501  502  0.00000000000E+00  0.00000000000E+00  0.87833255856E+02  0.87833255856E+02  0.00000000000E+00 0. -1.
          1   -1    0    0  502    0 -0.00000000000E+00 -0.00000000000E+00 -0.93396984490E+03  0.93396984490E+03  0.00000000000E+00 0. -1.
         23    2    1    2    0    0 -0.18447650947E+02  0.35756469301E+02 -0.16872349799E+03  0.19497778883E+03  0.89049864912E+02 0.  0.
        -24    2    1    2    0    0 -0.10466314232E+03 -0.72927197873E+02 -0.68164266671E+03  0.69815589135E+03  0.80698042089E+02 0.  0.
         13    1    4    4    0    0 -0.11541523699E+03 -0.50839792604E+02 -0.58500298037E+03  0.59844285315E+03  0.00000000000E+00 0. -1.
        -14    1    4    4    0    0  0.10752094676E+02 -0.22087405269E+02 -0.96639686335E+02  0.99713038197E+02  0.00000000000E+00 0.  1.
        -13    1    3    3    0    0 -0.25824229105E+02  0.56476684289E+02 -0.15943567651E+03  0.17110301465E+03  0.00000000000E+00 0. -1.
         13    1    3    3    0    0  0.73765781577E+01 -0.20720214988E+02 -0.92878214800E+01  0.23874774183E+02  0.00000000000E+00 0.  1.
          2    1    1    2  501    0  0.12311079327E+03  0.37170728572E+02  0.42295756557E+01  0.12866942058E+03  0.00000000000E+00 0. -1.
<scales pt_clust_5="13000.00000" pt_clust_6="13000.00000" pt_clust_7="13000.00000" pt_clust_8="13000.00000" pt_clust_9="128.03574"></scales>
<clustering>
<clus scale="   80.698">  5  6 -1 -1</clus>
<clus scale="   89.050">  7  8 -1 -1</clus>
<clus scale="   97.718">  2  7  1 -1</clus>
<clus scale="  128.036">  1  9  2 -1</clus>
<clus scale="  128.036">  1  5  2 -1</clus>
</clustering>
</event>
<event>
 9    1  0.9171696E-005  0.9778453E+02  0.7546771E-02  0.1291117E+00
          3   -1    0    0  502    0 -0.00000000000E+00  0.00000000000E+00  0.71915303842E+02  0.71915303842E+02  0.00000000000E+00 0. -1.
         21   -1    0    0  501  502  0.00000000000E+00 -0.00000000000E+00 -0.53603308427E+03  0.53603308427E+03  0.00000000000E+00 0.  1.
         23    2    1    2    0    0 -0.17398522828E+02 -0.30519918902E+02  0.27504638981E+02  0.10168636291E+03  0.91375254799E+02 0.  0.
        -24    2    1    2    0    0 -0.87513202334E+01  0.39974272072E+02 -0.41851688128E+03  0.42804681702E+03  0.79957298677E+02 0.  0.
         13    1    4    4    0    0 -0.15684533156E+02  0.35195394715E+02 -0.74034506784E+02  0.83461539551E+02  0.00000000000E+00 0. -1.
        -14    1    4    4    0    0  0.69332129230E+01  0.47788773561E+01 -0.34448237450E+03  0.34458527747E+03  0.00000000000E+00 0.  1.
        -11    1    3    3    0    0  0.27393969546E+02 -0.10674760884E+02  0.41385992734E+02  0.50765938207E+02  0.00000000000E+00 0. -1.
         11    1    3    3    0    0 -0.44792492373E+02 -0.19845158017E+02 -0.13881353753E+02  0.50920424701E+02  0.00000000000E+00 0.  1.
          4    1    1    2  501    0  0.26149843061E+02 -0.94543531699E+01 -0.73105538121E+02  0.78215208176E+02  0.00000000000E+00 0. -1.
<scales pt_clust_5="13000.00000" pt_clust_6="13000.00000" pt_clust_7="13000.00000" pt_clust_8="13000.00000" pt_clust_9="27.80646"></scales>
<clustering>
<clus scale="   27.806">  2  9  1 -1</clus>
<clus scale="   79.957">  5  6 -1 -1</clus>
<clus scale="   87.210">  2  5  1 -1</clus>
<clus scale="   91.375">  7  8 -1 -1</clus>
<clus scale="   27.806">  2  5  1 -1</clus>
</clustering>
</event>
<event>
 9    1  0.9171696E-005  0.9704557E+02  0.7546771E-02  0.1291407E+00
          3   -1    0    0  502    0 -0.00000000000E+00  0.00000000000E+00  0.66572205428E+02  0.66572205428E+02  0.00000000000E+00 0. -1.
         21   -1    0    0  501  502  0.00000000000E+00 -0.00000000000E+00 -0.35726473528E+03  0.35726473528E+03  0.00000000000E+00 0. -1.
        -24    2    1    2    0    0 -0.39074053376E+02  0.28705843603E+02 -0.15294176013E+03  0.18032907285E+03  0.82320018333E+02 0.  0.
         23    2    1    2    0    0  0.83163956955E+01 -0.15340262877E+02 -0.17206415478E+03  0.19552786526E+03  0.91217249635E+02 0.  0.
         11    1    3    3    0    0 -0.45531173316E+02  0.38839841798E+02 -0.53837712438E+02  0.80499194623E+02  0.00000000000E+00 0. -1.
        -12    1    3    3    0    0  0.64571199396E+01 -0.10133998195E+02 -0.99104047696E+02  0.99829878229E+02  0.00000000000E+00 0.  1.
        -11    1    4    4    0    0 -0.23645359778E+02 -0.42741231785E+02 -0.72397676445E+02  0.87334640826E+02  0.00000000000E+00 0.  1.
         11    1    4    4    0    0  0.31961755473E+02  0.27400968908E+02 -0.99666478337E+02  0.10819322444E+03  0.00000000000E+00 0. -1.
          4    1    1    2  501    0  0.30757657681E+02 -0.13365580726E+02  0.34313385065E+02  0.47980002593E+02  0.00000000000E+00 0. -1.
<scales pt_clust_5="13000.00000" pt_clust_6="13000.00000" pt_clust_7="13000.00000" pt_clust_8="13000.00000" pt_clust_9="33.53615"></scales>
<clustering>
<clus scale="   33.536">  2  9  1 -1</clus>
<clus scale="   82.320">  5  6 -1 -1</clus>
<clus scale="   88.735">  1  5  2 -1</clus>
<clus scale="   91.217">  7  8 -1 -1</clus>
<clus scale="   33.536">  2  5  1 -1</clus>
</clustering>
</event>
<event>
 9    1  0.9171696E-005  0.9682173E+02  0.7546771E-02  0.1291781E+00
          1   -1    0    0  502    0 -0.00000000000E+00  0.00000000000E+00  0.10160889965E+04  0.10160889965E+04  0.00000000000E+00 0. -1.
         21   -1    0    0  501  502  0.00000000000E+00 -0.00000000000E+00 -0.13162472285E+02  0.13162472285E+02  0.00000000000E+00 0. -1.
         23    2    1    2    0    0 -0.18968801111E+02  0.54439424747E+02  0.55022706923E+03  0.56011582492E+03  0.87501104132E+02 0.  0.
        -24    2    1    2    0    0 -0.55009415601E+01 -0.28002526097E+02  0.36294059469E+03  0.37241785379E+03  0.78452410529E+02 0.  0.
         11    1    4    4    0    0 -0.22904580560E+02 -0.17324875674E+02  0.42300446443E+02  0.51128259280E+02  0.00000000000E+00 0. -1.
        -12    1    4    4    0    0  0.17403639000E+02 -0.10677650424E+02  0.32064014825E+03  0.32128959451E+03  0.00000000000E+00 0.  1.
        -13    1    3    3    0    0  0.31920611572E+02  0.27353231143E+01  0.15298523322E+03  0.15630383559E+03  0.00000000000E+00 0.  1.
         13    1    3    3    0    0 -0.50889412683E+02  0.51704101633E+02  0.39724183601E+03  0.40381198933E+03  0.00000000000E+00 0. -1.
          2    1    1    2  501    0  0.24469742671E+02 -0.26436898650E+02  0.89758860240E+02  0.96717790030E+02  0.00000000000E+00 0. -1.
<scales pt_clust_5="13000.00000" pt_clust_6="13000.00000" pt_clust_7="13000.00000" pt_clust_8="13000.00000" pt_clust_9="36.02330"></scales>
<clustering>
<clus scale="   36.023">  2  9  1 -1</clus>
<clus scale="   78.452">  5  6 -1 -1</clus>
<clus scale="   87.501">  7  8 -1 -1</clus>
<clus scale="   88.729">  2  5  1 -1</clus>
<clus scale="   36.023">  2  5  1 -1</clus>
</clustering>
</event>
<event>
 9    1  0.9171696E-005  0.1040488E+03  0.7546771E-02  0.1276096E+00
         21   -1    0    0  501  502  0.00000000000E+00  0.00000000000E+00  0.35810436276E+03  0.35810436276E+03  0.00000000000E+00 0.  1.
          3   -1    0    0  502    0 -0.00000000000E+00 -0.00000000000E+00 -0.48851421143E+02  0.48851421143E+02  0.00000000000E+00 0. -1.
         23    2    1    2    0    0 -0.22567640702E+02  0.56972932387E+02  0.48499058671E+02  0.11817553702E+03  0.88645842696E+02 0.  0.
        -24    2    1    2    0    0  0.33256125782E+02 -0.25272000002E+02  0.20556649501E+03  0.22424467053E+03  0.79268180908E+02 0.  0.
         11    1    4    4    0    0  0.35430078434E+01 -0.35770245684E+02  0.32908299991E+02  0.48734172704E+02  0.00000000000E+00 0. -1.
        -12    1    4    4    0    0  0.29713117939E+02  0.10498245682E+02  0.17265819502E+03  0.17551049783E+03  0.00000000000E+00 0.  1.
        -13    1    3    3    0    0 -0.51591447457E+02  0.58644693534E+02  0.40698816363E+02  0.88075372175E+02  0.00000000000E+00 0.  1.
         13    1    3    3    0    0  0.29023806755E+02 -0.16717611469E+01  0.78002423082E+01  0.30100164849E+02  0.00000000000E+00 0. -1.
          4    1    1    2  501    0 -0.10688485081E+02 -0.31700932386E+02  0.55187387934E+02  0.64535576347E+02  0.00000000000E+00 0. -1.
<scales pt_clust_5="13000.00000" pt_clust_6="13000.00000" pt_clust_7="13000.00000" pt_clust_8="13000.00000" pt_clust_9="33.45434"></scales>
<clustering>
<clus scale="   33.454">  1  9  2 -1</clus>
<clus scale="   79.268">  5  6 -1 -1</clus>
<clus scale="   88.646">  7  8 -1 -1</clus>
<clus scale="   96.185">  1  5  2 -1</clus>
<clus scale="   33.454">  1  5  2 -1</clus>
</clustering>
</event>
<event>
 9    1  0.9171696E-005  0.2357917E+03  0.7546771E-02  0.1148825E+00
          1   -1    0    0  502    0 -0.00000000000E+00  0.00000000000E+00  0.12125586157E+04  0.12125586157E+04  0.00000000000E+00 0. -1.
         21   -1    0    0  501  502  0.00000000000E+00 -0.00000000000E+00 -0.81678011920E+02  0.81678011920E+02  0.00000000000E+00 0. -1.
         23    2    1    2    0    0  0.11662343558E+02 -0.82238605638E+02  0.88479124655E+02  0.15292151655E+03  0.93044270156E+02 0.  0.
        -24    2    1    2    0    0 -0.49445345696E+02  0.26093146010E+03  0.55209489830E+03  0.61809504773E+03  0.81869666055E+02 0.  0.
         11    1    4    4    0    0 -0.67275562226E+02  0.24461249702E+03  0.50702141685E+03  0.56694972626E+03  0.00000000000E+00 0. -1.
        -12    1    4    4    0    0  0.17830216530E+02  0.16318963077E+02  0.45073481456E+02  0.51145321468E+02  0.00000000000E+00 0.  1.
        -13    1    3    3    0    0  0.19548009199E+02 -0.10173868758E+03  0.75699803769E+02  0.12830956903E+03  0.00000000000E+00 0. -1.
         13    1    3    3    0    0 -0.78856656414E+01  0.19500081941E+02  0.12779320886E+02  0.24611947517E+02  0.00000000000E+00 0.  1.
          2    1    1    2  501    0  0.37783002138E+02 -0.17869285446E+03  0.49030658084E+03  0.52322006336E+03  0.00000000000E+00 0. -1.
<scales pt_clust_5="13000.00000" pt_clust_6="13000.00000" pt_clust_7="13000.00000" pt_clust_8="13000.00000" pt_clust_9="221.12234"></scales>
<clustering>
<clus scale="   81.870">  5  6 -1 -1</clus>
<clus scale="   93.044">  7  8 -1 -1</clus>
<clus scale="  124.725">  1  7  2 -1</clus>
<clus scale="  221.122">  2  9  1 -1</clus>
<clus scale="  221.122">  2  5  1 -1</clus>
</clustering>
</event>
<event>
 9    1  0.9171696E-005  0.1154234E+03  0.7546771E-02  0.1253690E+00
         21   -1    0    0  501  502  0.00000000000E+00  0.00000000000E+00  0.65154466340E+02  0.65154466340E+02  0.00000000000E+00 0.  1.
          1   -1    0    0  502    0 -0.00000000000E+00 -0.00000000000E+00 -0.66552833841E+03  0.66552833841E+03  0.00000000000E+00 0. -1.
        -24    2    1    2    0    0 -0.27335378239E+02  0.69303815312E+02 -0.59269812495E+03  0.60286902125E+03  0.81300355163E+02 0.  0.
         23    2    1    2    0    0  0.28228214226E+02 -0.49214543582E+02 -0.13327292272E+02  0.10692560605E+03  0.89646891363E+02 0.  0.
         11    1    3    3    0    0 -0.83353332500E+01  0.81816960709E+02 -0.37096035560E+03  0.37996720683E+03  0.00000000000E+00 0. -1.
        -12    1    3    3    0    0 -0.19000044989E+02 -0.12513145397E+02 -0.22173776935E+03  0.22290181442E+03  0.00000000000E+00 0.  1.
        -13    1    4    4    0    0  0.22904415200E+02 -0.75676022930E+02 -0.11109482475E+02  0.79842928823E+02  0.00000000000E+00 0. -1.
         13    1    4    4    0    0  0.53237990258E+01  0.26461479348E+02 -0.22178097970E+01  0.27082677225E+02  0.00000000000E+00 0.  1.
          2    1    1    2  501    0 -0.89283598672E+00 -0.20089271730E+02  0.56515451476E+01  0.20888177453E+02  0.00000000000E+00 0. -1.
<scales pt_clust_5="13000.00000" pt_clust_6="13000.00000" pt_clust_7="13000.00000" pt_clust_8="13000.00000" pt_clust_9="20.10910"></scales>
<clustering>
<clus scale="   20.109">  1  9  2 -1</clus>
<clus scale="   81.300">  5  6 -1 -1</clus>
<clus scale="   89.647">  7  8 -1 -1</clus>
<clus scale="  109.068">  2  5  1 -1</clus>
<clus scale="   20.109">  1  5  2 -1</clus>
</clustering>
</event>
<event>
 9    1  0.9171696E-005  0.1368331E+03  0.7546771E-02  0.1220391E+00
          1   -1    0    0  502    0 -0.00000000000E+00  0.00000000000E+00  0.57572364519E+03  0.57572364519E+03  0.00000000000E+00 0. -1.
         21   -1    0    0  501  502  0.00000000000E+00 -0.00000000000E+00 -0.14639444399E+03  0.14639444399E+03  0.00000000000E+00 0. -1.
        -24    2    1    2    0    0  0.94661065363E+02  0.61994914670E+02  0.50330378281E+03  0.52202620462E+03  0.79953572627E+02 0.  0.
         23    2    1    2    0    0 -0.30108405735E+02 -0.87412428308E+01 -0.16079376036E+02  0.98333080231E+02  0.91803719488E+02 0.  0.
         11    1    3    3    0    0  0.80595932305E+02  0.69690896061E+02  0.48921252391E+03  0.50068095515E+03  0.00000000000E+00 0. -1.
        -12    1    3    3    0    0  0.14065133058E+02 -0.76959813907E+01  0.14091258900E+02  0.21345249469E+02  0.00000000000E+00 0.  1.
        -11    1    4    4    0    0  0.33107776131E+02 -0.63816202516E+01 -0.67970891338E+01  0.34395498805E+02  0.00000000000E+00 0. -1.
         11    1    4    4    0    0 -0.63216181866E+02 -0.23596225793E+01 -0.92822869018E+01  0.63937581425E+02  0.00000000000E+00 0.  1.
          2    1    1    2  501    0 -0.64552659628E+02 -0.53253671839E+02 -0.57895205575E+02  0.10175880433E+03  0.00000000000E+00 0. -1.
<scales pt_clust_5="13000.00000" pt_clust_6="13000.00000" pt_clust_7="13000.00000" pt_clust_8="13000.00000" pt_clust_9="83.68393"></scales>
<clustering>
<clus scale="   79.954">  5  6 -1 -1</clus>
<clus scale="   83.684">  2  9  1 -1</clus>
<clus scale="   91.804">  7  8 -1 -1</clus>
<clus scale="  129.182">  1  5  2 -1</clus>
<clus scale="   83.684">  2  5  1 -1</clus>
</clustering>
</event>
<event>
 9    1  0.9171696E-005  0.1007595E+03  0.7546771E-02  0.1287574E+00
         -4   -1    0    0    0  501 -0.00000000000E+00  0.00000000000E+00  0.18126897506E+03  0.18126897506E+03  0.00000000000E+00 0.  1.
         21   -1    0    0  501  502  0.00000000000E+00 -0.00000000000E+00 -0.19536207060E+03  0.19536207060E+03  0.00000000000E+00 0.  1.
        -24    2    1    2    0    0  0.34754370540E+02  0.12046625345E+02  0.13292642873E+03  0.15707954045E+03  0.75176852286E+02 0.  0.
         23    2    1    2    0    0 -0.63486356816E+02 -0.18331160515E+02 -0.61709052056E+02  0.12931349167E+03  0.92452274575E+02 0.  0.
         13    1    3    3    0    0 -0.20797190395E+02  0.84545319492E+01  0.67713330465E+02  0.71337909707E+02  0.00000000000E+00 0. -1.
        -14    1    3    3    0    0  0.55551560935E+02  0.35920933959E+01  0.65213098267E+02  0.85741630745E+02  0.00000000000E+00 0.  1.
        -13    1    4    4    0    0  0.77045565809E+01 -0.31332686764E+02  0.27731054376E+01  0.32384989822E+02  0.00000000000E+00 0. -1.
         13    1    4    4    0    0 -0.71190913397E+02  0.13001526249E+02 -0.64482157494E+02  0.96928501846E+02  0.00000000000E+00 0.  1.
         -3    1    1    2    0  502  0.28731986276E+02  0.62845351701E+01 -0.85310472213E+02  0.90238013536E+02  0.00000000000E+00 0.  1.
<scales pt_clust_5="13000.00000" pt_clust_6="13000.00000" pt_clust_7="13000.00000" pt_clust_8="13000.00000" pt_clust_9="29.41126"></scales>
<clustering>
<clus scale="   29.411">  2  9  1 -1</clus>
<clus scale="   75.177">  5  6 -1 -1</clus>
<clus scale="   85.186">  1  5  2 -1</clus>
<clus scale="   92.452">  7  8 -1 -1</clus>
<clus scale="   29.411">  2  5  1 -1</clus>
</clustering>
</event>
<event>
 9    1  0.9171696E-005  0.1278588E+03  0.7546771E-02  0.1234648E+00
          1   -1    0    0  502    0 -0.00000000000E+00  0.00000000000E+00  0.53969362474E+02  0.53969362474E+02  0.00000000000E+00 0. -1.
         21   -1    0    0  501  502  0.00000000000E+00 -0.00000000000E+00 -0.42660732473E+03  0.42660732473E+03  0.00000000000E+00 0.  1.
         23    2    1    2    0    0 -0.74485745167E+01  0.97428374893E+02 -0.11828850361E+03  0.18067782824E+03  0.95417702934E+02 0.  0.
        -24    2    1    2    0    0  0.24734271574E+02 -0.62024869731E+02 -0.23153947819E+03  0.25437415459E+03  0.81466630625E+02 0.  0.
         11    1    4    4    0    0  0.54562655580E+02 -0.38198039644E+02 -0.15940263015E+03  0.17275813184E+03  0.00000000000E+00 0. -1.
        -12    1    4    4    0    0 -0.29828384007E+02 -0.23826830087E+02 -0.72136848043E+02  0.81616022753E+02  0.00000000000E+00 0.  1.
        -11    1    3    3    0    0  0.31298656579E+02  0.92330434727E+02 -0.84779891850E+02  0.12919808490E+03  0.00000000000E+00 0.  1.
         11    1    3    3    0    0 -0.38747231096E+02  0.50979401660E+01 -0.33508611760E+02  0.51479743333E+02  0.00000000000E+00 0. -1.
          2    1    1    2  501    0 -0.17285697057E+02 -0.35403505162E+02 -0.22809980451E+02  0.45524704378E+02  0.00000000000E+00 0. -1.
<scales pt_clust_5="13000.00000" pt_clust_6="13000.00000" pt_clust_7="13000.00000" pt_clust_8="13000.00000" pt_clust_9="39.39803"></scales>
<clustering>
<clus scale="   39.398">  2  9  1 -1</clus>
<clus scale="   81.467">  5  6 -1 -1</clus>
<clus scale="   95.418">  7  8 -1 -1</clus>
<clus scale="  117.814">  2  5  1 -1</clus>
<clus scale="   39.398">  2  5  1 -1</clus>
</clustering>
</event>
<event>
 9    1  0.9171696E-005  0.2559857E+03  0.7546771E-02  0.1146650E+00
         21   -1    0    0  501  502  0.00000000000E+00  0.00000000000E+00  0.31442192946E+03  0.31442192946E+03  0.00000000000E+00 0. -1.
          1   -1    0    0  502    0 -0.00000000000E+00 -0.00000000000E+00 -0.35481885451E+03  0.35481885451E+03  0.00000000000E+00 0. -1.
        -24    2    1    2    0    0 -0.59768418055E+02  0.19251117464E+02 -0.31941148332E+01  0.10270117536E+03  0.81206278890E+02 0.  0.
         23    2    1    2    0    0 -0.17893416516E+03 -0.14003454148E+03  0.99712595761E+02  0.26601775059E+03  0.95894387763E+02 0.  0.
         13    1    3    3    0    0 -0.60851045746E+02 -0.17966051401E+02 -0.11678809905E+02  0.64513745606E+02  0.00000000000E+00 0. -1.
        -14    1    3    3    0    0  0.10826276914E+01  0.37217168865E+02  0.84846950715E+01  0.38187429758E+02  0.00000000000E+00 0.  1.
        -13    1    4    4    0    0 -0.66593603570E+02 -0.11041058479E+03  0.67063576711E+02  0.14533660445E+03  0.00000000000E+00 0. -1.
         13    1    4    4    0    0 -0.11234056159E+03 -0.29623956683E+02  0.32649019049E+02  0.12068114614E+03  0.00000000000E+00 0.  1.
          2    1    1    2  501    0  0.23870258322E+03  0.12078342401E+03 -0.13691540598E+03  0.30052185801E+03  0.00000000000E+00 0. -1.
<scales pt_clust_5="13000.00000" pt_clust_6="13000.00000" pt_clust_7="13000.00000" pt_clust_8="13000.00000" pt_clust_9="237.34571"></scales>
<clustering>
<clus scale="   81.206">  5  6 -1 -1</clus>
<clus scale="   95.894">  7  8 -1 -1</clus>
<clus scale="  102.652">  2  5  1 -1</clus>
<clus scale="  237.346">  1  9  2 -1</clus>
<clus scale="  237.346">  1  5  2 -1</clus>
</clustering>
</event>
<event>
 9    1  0.9171696E-005  0.1312942E+03  0.7546771E-02  0.1228571E+00
         21   -1    0    0  501  502  0.00000000000E+00  0.00000000000E+00  0.41248038905E+03  0.41248038905E+03  0.00000000000E+00 0. -1.
         -4   -1    0    0    0  501 -0.00000000000E+00 -0.00000000000E+00 -0.74452172014E+02  0.74452172014E+02  0.00000000000E+00 0.  1.
         23    2    1    2    0    0 -0.78656918163E+02 -0.64473937871E+02  0.24935856282E+02  0.13862415489E+03  0.90835345278E+02 0.  0.
        -24    2    1    2    0    0  0.54158206934E+02  0.57912132270E+02  0.17339684770E+03  0.20632925097E+03  0.78856620338E+02 0.  0.
         11    1    4    4    0    0 -0.65618239307E+01  0.48850452215E+02  0.92052203973E+02  0.10441758698E+03  0.00000000000E+00 0. -1.
        -12    1    4    4    0    0  0.60720030865E+02  0.90616800549E+01  0.81344643726E+02  0.10191166399E+03  0.00000000000E+00 0.  1.
        -11    1    3    3    0    0 -0.20616804279E+02 -0.13437674677E+02 -0.33616480339E+02  0.41661630667E+02  0.00000000000E+00 0.  1.
         11    1    3    3    0    0 -0.58040113884E+02 -0.51036263193E+02  0.58552336622E+02  0.96962524226E+02  0.00000000000E+00 0. -1.
         -3    1    1    2    0  502  0.24498711229E+02  0.65618056010E+01  0.13969551306E+03  0.14197915521E+03  0.00000000000E+00 0.  1.
<scales pt_clust_5="13000.00000" pt_clust_6="13000.00000" pt_clust_7="13000.00000" pt_clust_8="13000.00000" pt_clust_9="25.36226"></scales>
<clustering>
<clus scale="   25.362">  1  9  2 -1</clus>
<clus scale="   78.857">  5  6 -1 -1</clus>
<clus scale="   90.835">  7  8 -1 -1</clus>
<clus scale="  123.310">  1  5  2 -1</clus>
<clus scale="   25.362">  1  5  2 -1</clus>
</clustering>
</event>
<event>
 9    1  0.9171696E-005  0.2673517E+03  0.7546771E-02  0.1102805E+00
          1   -1    0    0  502    0 -0.00000000000E+00  0.00000000000E+00  0.56319012679E+03  0.56319012679E+03  0.00000000000E+00 0. -1.
         21   -1    0    0  501  502  0.00000000000E+00 -0.00000000000E+00 -0.17095089050E+03  0.17095089050E+03  0.00000000000E+00 0.  1.
        -24    2    1    2    0    0 -0.81083200424E+02  0.91830964712E+02  0.23037098486E+03  0.27273416120E+03  0.79408567229E+02 0.  0.
         23    2    1    2    0    0 -0.69592322111E+02  0.36234980039E+02  0.22371745849E+03  0.25421292831E+03  0.91753183106E+02 0.  0.
         13    1    3    3    0    0 -0.91960126167E+02  0.74832062228E+02  0.22030638645E+03  0.25018274572E+03  0.00000000000E+00 0. -1.
        -14    1    3    3    0    0  0.10876925743E+02  0.16998902484E+02  0.10064598408E+02  0.22551415485E+02  0.00000000000E+00 0.  1.
        -13    1    4    4    0    0 -0.87928985860E+02  0.24151971766E+02  0.20829092667E+03  0.22737619582E+03  0.00000000000E+00 0.  1.
         13    1    4    4    0    0  0.18336663749E+02  0.12083008273E+02  0.15426531821E+02  0.26836732484E+02  0.00000000000E+00 0. -1.
          2    1    1    2  501    0  0.15067552253E+03 -0.12806594475E+03 -0.61849207057E+02  0.20719392778E+03  0.00000000000E+00 0. -1.
<scales pt_clust_5="13000.00000" pt_clust_6="13000.00000" pt_clust_7="13000.00000" pt_clust_8="13000.00000" pt_clust_9="197.74731"></scales>
<clustering>
<clus scale="   79.409">  5  6 -1 -1</clus>
<clus scale="   91.753">  7  8 -1 -1</clus>
<clus scale="   99.956">  5  7 -1 -1</clus>
<clus scale="  197.747">  2  9  1 -1</clus>
<clus scale="  197.747">  2  5  1 -1</clus>
</clustering>
</event>
<event>
 9    1  0.9171696E-005  0.1556435E+03  0.7546771E-02  0.1194901E+00
         21   -1    0    0  501  502  0.00000000000E+00  0.00000000000E+00  0.22444498667E+03  0.22444498667E+03  0.00000000000E+00 0.  1.
          1   -1    0    0  502    0 -0.00000000000E+00 -0.00000000000E+00 -0.33826806059E+03  0.33826806059E+03  0.00000000000E+00 0. -1.
         23    2    1    2    0    0 -0.73816613867E+02  0.11394302702E+03 -0.22431785138E+03  0.27683594304E+03  0.88812921483E+02 0.  0.
        -24    2    1    2    0    0  0.68966041188E+02 -0.87564354446E+02 -0.31267481428E+02  0.14159993879E+03  0.81541745531E+02 0.  0.
         11    1    4    4    0    0  0.47091365463E+02 -0.57135770077E+01 -0.31379814327E+02  0.56876483810E+02  0.00000000000E+00 0. -1.
        -12    1    4    4    0    0  0.21874675724E+02 -0.81850777439E+02  0.11233289827E+00  0.84723454982E+02  0.00000000000E+00 0.  1.
        -11    1    3    3    0    0 -0.94257084553E+02  0.93948928004E+02 -0.19292305027E+03  0.23437171840E+03  0.00000000000E+00 0.  1.
         11    1    3    3    0    0  0.20440470687E+02  0.19994099021E+02 -0.31394801111E+02  0.42464224641E+02  0.00000000000E+00 0. -1.
          2    1    1    2  501    0  0.48505726791E+01 -0.26378672579E+02  0.14176225888E+03  0.14427716544E+03  0.00000000000E+00 0. -1.
<scales pt_clust_5="13000.00000" pt_clust_6="13000.00000" pt_clust_7="13000.00000" pt_clust_8="13000.00000" pt_clust_9="26.82093"></scales>
<clustering>
<clus scale="   26.821">  1  9  2 -1</clus>
<clus scale="   81.542">  5  6 -1 -1</clus>
<clus scale="   88.813">  7  8 -1 -1</clus>
<clus scale="  151.612">  1  5  2 -1</clus>
<clus scale="   26.821">  1  5  2 -1</clus>
</clustering>
</event>
<event>
 9    1  0.9171696E-005  0.2386672E+03  0.7546771E-02  0.1121399E+00
          1   -1    0    0  502    0 -0.00000000000E+00  0.00000000000E+00  0.99641200898E+03  0.99641200898E+03  0.00000000000E+00 0. -1.
         21   -1    0    0  501  502  0.00000000000E+00 -0.00000000000E+00 -0.14756803618E+03  0.14756803618E+03  0.00000000000E+00 0. -1.
        -24    2    1    2    0    0  0.15234205882E+03  0.16088235593E+03  0.68519575639E+03  0.72438767556E+03  0.78441344920E+02 0.  0.
         23    2    1    2    0    0 -0.12791422082E+03 -0.17715249819E+03 -0.16566805234E+02  0.23700296457E+03  0.90282283304E+02 0.  0.
         13    1    3    3    0    0  0.10864903774E+03  0.86408388686E+02  0.31460703743E+03  0.34387295770E+03  0.00000000000E+00 0. -1.
        -14    1    3    3    0    0  0.43693021089E+02  0.74473967247E+02  0.37058871896E+03  0.38051471786E+03  0.00000000000E+00 0.  1.
        -13    1    4    4    0    0 -0.94522446134E+02 -0.73380405477E+02  0.21414184999E+02  0.12156374480E+03  0.00000000000E+00 0. -1.
         13    1    4    4    0    0 -0.33391774687E+02 -0.10377209271E+03 -0.37980990233E+02  0.11543921977E+03  0.00000000000E+00 0.  1.
          2    1    1    2  501    0 -0.24427838004E+02  0.16270142255E+02  0.18021502165E+03  0.18258940502E+03  0.00000000000E+00 0. -1.
<scales pt_clust_5="13000.00000" pt_clust_6="13000.00000" pt_clust_7="13000.00000" pt_clust_8="13000.00000" pt_clust_9="29.35026"></scales>
<clustering>
<clus scale="   29.350">  2  9  1 -1</clus>
<clus scale="   78.441">  5  6 -1 -1</clus>
<clus scale="   90.282">  7  8 -1 -1</clus>
<clus scale="  234.444">  1  5  2 -1</clus>
<clus scale="   29.350">  2  5  1 -1</clus>
</clustering>
</event>
<event>
 9    1  0.9171696E-005  0.1340564E+03  0.7546771E-02  0.1240104E+00
         21   -1    0    0  501  502  0.00000000000E+00  0.00000000000E+00  0.72261030462E+02  0.72261030462E+02  0.00000000000E+00 0. -1.
          1   -1    0    0  502    0 -0.00000000000E+00 -0.00000000000E+00 -0.55512141287E+03  0.55512141287E+03  0.00000000000E+00 0. -1.
         23    2    1    2    0    0 -0.14495631527E+02 -0.49577606105E+01 -0.78590336534E+02  0.12058095244E+03  0.90158872951E+02 0.  0.
        -24    2    1    2    0    0  0.37214720987E+02  0.98256081924E+02 -0.58248055603E+02  0.14770268619E+03  0.85930520962E+02 0.  0.
         13    1    4    4    0    0  0.39630472227E+02  0.14387953942E+02  0.52410224757E+01  0.42485949020E+02  0.00000000000E+00 0. -1.
        -14    1    4    4    0    0 -0.24157512396E+01  0.83868127981E+02 -0.63489078079E+02  0.10521673717E+03  0.00000000000E+00 0.  1.
        -13    1    3    3    0    0 -0.46933221456E+02  0.19426448300E+02 -0.41242021942E+02  0.65429492920E+02  0.00000000000E+00 0. -1.
         13    1    3    3    0    0  0.32437589930E+02 -0.24384208911E+02 -0.37348314592E+02  0.55151459523E+02  0.00000000000E+00 0.  1.
          2    1    1    2  501    0 -0.22719089460E+02 -0.93298321313E+02 -0.34602199027E+03  0.35909880470E+03  0.00000000000E+00 0. -1.
<scales pt_clust_5="13000.00000" pt_clust_6="13000.00000" pt_clust_7="13000.00000" pt_clust_8="13000.00000" pt_clust_9="102.89350"></scales>
<clustering>
<clus scale="   85.931">  5  6 -1 -1</clus>
<clus scale="   90.159">  7  8 -1 -1</clus>
<clus scale="   91.451">  2  7  1 -1</clus>
<clus scale="  102.894">  1  9  2 -1</clus>
<clus scale="  102.894">  1  5  2 -1</clus>
</clustering>
</event>
<event>
 9    1  0.9171696E-005  0.1128185E+03  0.7546771E-02  0.1259706E+00
         21   -1    0    0  501  502  0.00000000000E+00  0.00000000000E+00  0.45633988975E+03  0.45633988975E+03  0.00000000000E+00 0.  1.
         -2   -1    0    0    0  501 -0.00000000000E+00 -0.00000000000E+00 -0.66904439215E+02  0.66904439215E+02  0.00000000000E+00 0.  1.
         23    2    1    2    0    0  0.59161239375E+01  0.68095709914E+02  0.16506130803E+02  0.11608729251E+03  0.92367639876E+02 0.  0.
        -24    2    1    2    0    0  0.47839478961E+02 -0.50982628288E+02  0.24461935498E+03  0.26699295597E+03  0.80986206053E+02 0.  0.
         13    1    4    4    0    0  0.15166173055E+02 -0.62966262141E+02  0.20108465735E+03  0.21125766825E+03  0.00000000000E+00 0. -1.
        -14    1    4    4    0    0  0.32673305906E+02  0.11983633853E+02  0.43534697630E+02  0.55735287717E+02  0.00000000000E+00 0.  1.
        -13    1    3    3    0    0  0.42753089491E+02  0.68029058016E+01  0.38090885158E+01  0.43458202260E+02  0.00000000000E+00 0. -1.
         13    1    3    3    0    0 -0.36836965553E+02  0.61292804112E+02  0.12697042287E+02  0.72629090246E+02  0.00000000000E+00 0.  1.
         -1    1    1    2    0  502 -0.53755602898E+02 -0.17113081625E+02  0.12830996475E+03  0.14016408049E+03  0.00000000000E+00 0.  1.
<scales pt_clust_5="13000.00000" pt_clust_6="13000.00000" pt_clust_7="13000.00000" pt_clust_8="13000.00000" pt_clust_9="56.41385"></scales>
<clustering>
<clus scale="   56.414">  1  9  2 -1</clus>
<clus scale="   80.986">  5  6 -1 -1</clus>
<clus scale="   92.368">  7  8 -1 -1</clus>
<clus scale="  103.706">  1  5  2 -1</clus>
<clus scale="   56.414">  1  5  2 -1</clus>
</clustering>
</event>
<event>
 9    1  0.9171696E-005  0.1032492E+03  0.7546771E-02  0.1277849E+00
         21   -1    0    0  501  502  0.00000000000E+00  0.00000000000E+00  0.14265053184E+03  0.14265053184E+03  0.00000000000E+00 0.  1.
          1   -1    0    0  502    0 -0.00000000000E+00 -0.00000000000E+00 -0.20926804240E+03  0.20926804240E+03  0.00000000000E+00 0. -1.
        -24    2    1    2    0    0 -0.54071824965E+02 -0.57971957380E+02 -0.36195944942E+02  0.11853166433E+03  0.80343630245E+02 0.  0.
         23    2    1    2    0    0 -0.13564611086E+02  0.32133485370E+01  0.59242702035E+02  0.10843542485E+03  0.89745302586E+02 0.  0.
         11    1    3    3    0    0 -0.40635352920E+02 -0.25612710364E+02 -0.59486947955E+02  0.76458745845E+02  0.00000000000E+00 0. -1.
        -12    1    3    3    0    0 -0.13436472045E+02 -0.32359247016E+02  0.23291003013E+02  0.42072918485E+02  0.00000000000E+00 0.  1.
        -11    1    4    4    0    0  0.28299917102E+02  0.29381399110E+02  0.33326984395E+02  0.52676748292E+02  0.00000000000E+00 0. -1.
         11    1    4    4    0    0 -0.41864528189E+02 -0.26168050573E+02  0.25915717639E+02  0.55758676563E+02  0.00000000000E+00 0.  1.
          2    1    1    2  501    0  0.67636436052E+02  0.54758608843E+02 -0.89664267650E+02  0.12495148505E+03  0.00000000000E+00 0. -1.
<scales pt_clust_5="13000.00000" pt_clust_6="13000.00000" pt_clust_7="13000.00000" pt_clust_8="13000.00000" pt_clust_9="87.02414"></scales>
<clustering>
<clus scale="   80.344">  5  6 -1 -1</clus>
<clus scale="   87.024">  1  9  2 -1</clus>
<clus scale="   89.745">  7  8 -1 -1</clus>
<clus scale="   95.191">  2  5  1 -1</clus>
<clus scale="   87.024">  1  5  2 -1</clus>
</clustering>
</event>
<event>
 9    1  0.9171696E-005  0.3751096E+03  0.7546771E-02  0.1100980E+00
         21   -1    0    0  501  502  0.00000000000E+00  0.00000000000E+00  0.13194183424E+04  0.13194183424E+04  0.00000000000E+00 0. -1.
          3   -1    0    0  502    0 -0.00000000000E+00 -0.00000000000E+00 -0.14852794386E+03  0.14852794386E+03  0.00000000000E+00 0. -1.
         23    2    1    2    0    0  0.63896055211E+02  0.79411881607E+01  0.32116202937E+02  0.10643455383E+03  0.78428919517E+02 0.  0.
        -24    2    1    2    0    0 -0.18345413870E+03 -0.33650682170E+03  0.68018043998E+03  0.78483353484E+03  0.80162238156E+02 0.  0.
         13    1    4    4    0    0 -0.10396502296E+03 -0.15597707079E+03  0.40480002131E+03  0.44609486644E+03  0.00000000000E+00 0. -1.
        -14    1    4    4    0    0 -0.79489115738E+02 -0.18052975091E+03  0.27538041867E+03  0.33873866840E+03  0.00000000000E+00 0.  1.
        -13    1    3    3    0    0  0.40413108413E+02 -0.78964173454E+01  0.55913672778E+02  0.69439985182E+02  0.00000000000E+00 0.  1.
         13    1    3    3    0    0  0.23482946798E+02  0.15837605506E+02 -0.23797469841E+02  0.36994568646E+02  0.00000000000E+00 0. -1.
          4    1    1    2  501    0  0.11955808349E+03  0.32856563354E+03  0.45859375559E+03  0.57667819756E+03  0.00000000000E+00 0. -1.
<scales pt_clust_5="13000.00000" pt_clust_6="13000.00000" pt_clust_7="13000.00000" pt_clust_8="13000.00000" pt_clust_9="366.44419"></scales>
<clustering>
<clus scale="   78.429">  7  8 -1 -1</clus>
<clus scale="   80.162">  5  6 -1 -1</clus>
<clus scale="  101.473">  2  7  1 -1</clus>
<clus scale="  366.444">  1  9  2 -1</clus>
<clus scale="  366.444">  1  5  2 -1</clus>
</clustering>
</event>
<event>
 9    1  0.9171696E-005  0.1793615E+03  0.7546771E-02  0.1170119E+00
         -2   -1    0    0    0  501 -0.00000000000E+00  0.00000000000E+00  0.81448708540E+03  0.81448708540E+03  0.00000000000E+00 0.  1.
         21   -1    0    0  501  502  0.00000000000E+00 -0.00000000000E+00 -0.59129633682E+02  0.59129633682E+02  0.00000000000E+00 0.  1.
        -24    2    1    2    0    0  0.12841576894E+03 -0.13667290619E+03  0.41280566826E+03  0.45993842363E+03  0.77231734334E+02 0.  0.
         23    2    1    2    0    0 -0.92552100910E+02  0.70341110134E+02  0.16989541800E+03  0.22527359703E+03  0.91487580049E+02 0.  0.
         13    1    3    3    0    0  0.18382448741E+02 -0.36193957398E+02  0.17226993706E+03  0.17698827133E+03  0.00000000000E+00 0. -1.
        -14    1    3    3    0    0  0.11003332020E+03 -0.10047894879E+03  0.24053573119E+03  0.28295015230E+03  0.00000000000E+00 0.  1.
        -13    1    4    4    0    0 -0.56543846161E+02  0.36925088281E+01  0.25341283560E+02  0.62072713913E+02  0.00000000000E+00 0.  1.
         13    1    4    4    0    0 -0.36008254750E+02  0.66648601306E+02  0.14455413444E+03  0.16320088311E+03  0.00000000000E+00 0. -1.
         -1    1    1    2    0  502 -0.35863668029E+02  0.66331796058E+02  0.17265636546E+03  0.18840469842E+03  0.00000000000E+00 0.  1.
<scales pt_clust_5="13000.00000" pt_clust_6="13000.00000" pt_clust_7="13000.00000" pt_clust_8="13000.00000" pt_clust_9="75.40634"></scales>
<clustering>
<clus scale="   75.406">  2  9  1 -1</clus>
<clus scale="   77.232">  5  6 -1 -1</clus>
<clus scale="   91.488">  7  8 -1 -1</clus>
<clus scale="  172.526">  1  5  2 -1</clus>
<clus scale="   75.406">  2  5  1 -1</clus>
</clustering>
</event>
<event>
 9    1  0.9171696E-005  0.1094131E+03  0.7546771E-02  0.1263840E+00
          3   -1    0    0  502    0 -0.00000000000E+00  0.00000000000E+00  0.11652897515E+03  0.11652897515E+03  0.00000000000E+00 0. -1.
         21   -1    0    0  501  502  0.00000000000E+00 -0.00000000000E+00 -0.16823378863E+03  0.16823378863E+03  0.00000000000E+00 0. -1.
         23    2    1    2    0    0 -0.47379915345E+02  0.30792189810E+02  0.34229068551E+02  0.11017944176E+03  0.88175194473E+02 0.  0.
        -24    2    1    2    0    0  0.73997146235E+02 -0.39537712566E+02 -0.47109779192E+02  0.12670564341E+03  0.82438949598E+02 0.  0.
         11    1    4    4    0    0  0.38851416096E+02 -0.63762040507E+02 -0.25810452911E+02  0.79001327975E+02  0.00000000000E+00 0. -1.
        -12    1    4    4    0    0  0.35145730139E+02  0.24224327941E+02 -0.21299326281E+02  0.47704315436E+02  0.00000000000E+00 0.  1.
        -13    1    3    3    0    0 -0.34156575439E+02 -0.15226131145E+02  0.47537259118E+02  0.60483863301E+02  0.00000000000E+00 0.  1.
         13    1    3    3    0    0 -0.13223339906E+02  0.46018320955E+02 -0.13308190567E+02  0.49695578455E+02  0.00000000000E+00 0. -1.
          4    1    1    2  501    0 -0.26617230890E+02  0.87455227556E+01 -0.38824102834E+02  0.47877678613E+02  0.00000000000E+00 0. -1.
<scales pt_clust_5="13000.00000" pt_clust_6="13000.00000" pt_clust_7="13000.00000" pt_clust_8="13000.00000" pt_clust_9="28.01716"></scales>
<clustering>
<clus scale="   28.017">  2  9  1 -1</clus>
<clus scale="   82.439">  5  6 -1 -1</clus>
<clus scale="   88.175">  7  8 -1 -1</clus>
<clus scale="  104.845">  2  5  1 -1</clus>
<clus scale="   28.017">  2  5  1 -1</clus>
</clustering>
</event>
<event>
 9    1  0.9171696E-005  0.1522968E+03  0.7546771E-02  0.1201149E+00
         21   -1    0    0  501  502  0.00000000000E+00  0.00000000000E+00  0.69405593535E+03  0.69405593535E+03  0.00000000000E+00 0.  1.
         -2   -1    0    0    0  501 -0.00000000000E+00 -0.00000000000E+00 -0.60045032594E+02  0.60045032594E+02  0.00000000000E+00 0.  1.
         23    2    1    2    0    0  0.29230922083E+02 -0.76481135241E+02  0.22246250621E+03  0.25361183430E+03  0.90142026680E+02 0.  0.
        -24    2    1    2    0    0 -0.72657695823E+02  0.13568541607E+03  0.37345788366E+03  0.41777324208E+03  0.10664904139E+03 0.  0.
         13    1    4    4    0    0 -0.72248541357E+02  0.86716881650E+02  0.14303958646E+03  0.18220865124E+03  0.00000000000E+00 0. -1.
        -14    1    4    4    0    0 -0.40915446598E+00  0.48968534420E+02  0.23041829721E+03  0.23556459084E+03  0.00000000000E+00 0.  1.
        -11    1    3    3    0    0  0.59001712506E+02 -0.55175615991E+02  0.11869597043E+03  0.14357675325E+03  0.00000000000E+00 0. -1.
         11    1    3    3    0    0 -0.29770790423E+02 -0.21305519250E+02  0.10376653578E+03  0.11003508105E+03  0.00000000000E+00 0.  1.
         -1    1    1    2    0  502  0.43426773740E+02 -0.59204280829E+02  0.38090512880E+02  0.82715891565E+02  0.00000000000E+00 0.  1.
<scales pt_clust_5="13000.00000" pt_clust_6="13000.00000" pt_clust_7="13000.00000" pt_clust_8="13000.00000" pt_clust_9="73.42368"></scales>
<clustering>
<clus scale="   73.424">  1  9  2 -1</clus>
<clus scale="   90.142">  7  8 -1 -1</clus>
<clus scale="  106.649">  5  6 -1 -1</clus>
<clus scale="  141.230">  2  7  1 -1</clus>
<clus scale="   73.424">  1  5  2 -1</clus>
</clustering>
</event>
<event>
 9    1  0.9171696E-005  0.1429776E+03  0.7546771E-02  0.1211425E+00
         21   -1    0    0  501  502  0.00000000000E+00  0.00000000000E+00  0.14768381111E+03  0.14768381111E+03  0.00000000000E+00 0. -1.
          1   -1    0    0  502    0 -0.00000000000E+00 -0.00000000000E+00 -0.26030731305E+03  0.26030731305E+03  0.00000000000E+00 0. -1.
         23    2    1    2    0    0 -0.10357851037E+03  0.47288789438E+02 -0.11653223856E+03  0.18672140789E+03  0.91216139607E+02 0.  0.
        -24    2    1    2    0    0  0.88007454778E+02 -0.59928359711E+02 -0.65429401012E+02  0.14908942921E+03  0.81301482095E+02 0.  0.
         13    1    4    4    0    0  0.70612455102E+02 -0.27017758860E+02 -0.79112156436E+02  0.10942948143E+03  0.00000000000E+00 0. -1.
        -14    1    4    4    0    0  0.17394999676E+02 -0.32910600851E+02  0.13682755424E+02  0.39659947782E+02  0.00000000000E+00 0.  1.
        -11    1    3    3    0    0 -0.61892920636E+02  0.34831002467E+01 -0.10951871001E+03  0.12584599102E+03  0.00000000000E+00 0.  1.
         11    1    3    3    0    0 -0.41685589735E+02  0.43805689191E+02 -0.70135285453E+01  0.60875416875E+02  0.00000000000E+00 0. -1.
          2    1    1    2  501    0  0.15571055592E+02  0.12639570273E+02  0.69338137631E+02  0.72180287053E+02  0.00000000000E+00 0. -1.
<scales pt_clust_5="13000.00000" pt_clust_6="13000.00000" pt_clust_7="13000.00000" pt_clust_8="13000.00000" pt_clust_9="20.05534"></scales>
<clustering>
<clus scale="   20.055">  1  9  2 -1</clus>
<clus scale="   81.301">  5  6 -1 -1</clus>
<clus scale="   91.216">  7  8 -1 -1</clus>
<clus scale="  136.865">  1  5  2 -1</clus>
<clus scale="   20.055">  1  5  2 -1</clus>
</clustering>
</event>
<event>
 9    1  0.9171696E-005  0.9831750E+02  0.7546771E-02  0.1286299E+00
          1   -1    0    0  502    0 -0.00000000000E+00  0.00000000000E+00  0.90926593440E+02  0.90926593440E+02  0.00000000000E+00 0. -1.
         21   -1    0    0  501  502  0.00000000000E+00 -0.00000000000E+00 -0.44469571665E+03  0.44469571665E+03  0.00000000000E+00 0.  1.
         23    2    1    2    0    0 -0.19926077414E+02  0.34586979651E+02  0.50775426081E+02  0.10988373000E+03  0.88898720472E+02 0.  0.
        -24    2    1    2    0    0  0.28812258890E+02 -0.54480593928E+02 -0.26935151907E+03  0.28880109242E+03  0.84009218429E+02 0.  0.
         13    1    4    4    0    0 -0.12621551142E+02 -0.46647601608E+02 -0.21303469176E+03  0.21844697797E+03  0.00000000000E+00 0. -1.
        -14    1    4    4    0    0  0.41433810032E+02 -0.78329923193E+01 -0.56316827311E+02  0.70354114455E+02  0.00000000000E+00 0.  1.
        -13    1    3    3    0    0  0.24226699789E+02 -0.16380761709E+02  0.21864626571E+02  0.36514712540E+02  0.00000000000E+00 0.  1.
         13    1    3    3    0    0 -0.44152777202E+02  0.50967741359E+02  0.28910799511E+02  0.73369017455E+02  0.00000000000E+00 0. -1.
          2    1    1    2  501    0 -0.88861814766E+01  0.19893614277E+02 -0.13519303022E+03  0.13693748767E+03  0.00000000000E+00 0. -1.
<scales pt_clust_5="13000.00000" pt_clust_6="13000.00000" pt_clust_7="13000.00000" pt_clust_8="13000.00000" pt_clust_9="21.78807"></scales>
<clustering>
<clus scale="   21.788">  2  9  1 -1</clus>
<clus scale="   84.009">  5  6 -1 -1</clus>
<clus scale="   88.899">  7  8 -1 -1</clus>
<clus scale="   93.920">  2  5  1 -1</clus>
<clus scale="   21.788">  2  5  1 -1</clus>
</clustering>
</event>
<event>
 9    1  0.9171696E-005  0.1033845E+03  0.7546771E-02  0.1277945E+00
          1   -1    0    0  502    0 -0.00000000000E+00  0.00000000000E+00  0.16658876517E+03  0.16658876517E+03  0.00000000000E+00 0. -1.
         21   -1    0    0  501  502  0.00000000000E+00 -0.00000000000E+00 -0.21080428787E+03  0.21080428787E+03  0.00000000000E+00 0.  1.
        -24    2    1    2    0    0  0.48994986512E+02  0.17681926549E+02  0.11275121673E+03  0.14847600830E+03  0.81358029345E+02 0.  0.
         23    2    1    2    0    0 -0.23306011639E+02  0.25698068806E+02 -0.14852161542E+03  0.17779887237E+03  0.91379471708E+02 0.  0.
         11    1    3    3    0    0  0.55543755992E+02  0.84865443581E+01  0.27638738678E+02  0.62618129488E+02  0.00000000000E+00 0. -1.
        -12    1    3    3    0    0 -0.65487694798E+01  0.91953821912E+01  0.85112478048E+02  0.85857878816E+02  0.00000000000E+00 0.  1.
        -13    1    4    4    0    0 -0.28778234646E+02 -0.16690608263E+01 -0.14705257375E+03  0.14985136636E+03  0.00000000000E+00 0.  1.
         13    1    4    4    0    0  0.54722230067E+01  0.27367129632E+02 -0.14690416754E+01  0.27947506014E+02  0.00000000000E+00 0. -1.
          2    1    1    2  501    0 -0.25688974873E+02 -0.43379995355E+02 -0.84451240082E+01  0.51118172371E+02  0.00000000000E+00 0. -1.
<scales pt_clust_5="13000.00000" pt_clust_6="13000.00000" pt_clust_7="13000.00000" pt_clust_8="13000.00000" pt_clust_9="50.41575"></scales>
<clustering>
<clus scale="   50.416">  2  9  1 -1</clus>
<clus scale="   81.358">  5  6 -1 -1</clus>
<clus scale="   91.379">  7  8 -1 -1</clus>
<clus scale="   94.643">  1  5  2 -1</clus>
<clus scale="   50.416">  2  5  1 -1</clus>
</clustering>
</event>
<event>
 9    1  0.9171696E-005  0.1184103E+03  0.7546771E-02  0.1248259E+00
          3   -1    0    0  502    0 -0.00000000000E+00  0.00000000000E+00  0.61414850169E+02  0.61414850169E+02  0.00000000000E+00 0. -1.
         21   -1    0    0  501  502  0.00000000000E+00 -0.00000000000E+00 -0.28442868219E+03  0.28442868219E+03  0.00000000000E+00 0.  1.
         23    2    1    2    0    0  0.22453920857E+02  0.63640300816E+02 -0.86319033465E+02  0.14253133620E+03  0.91158871275E+02 0.  0.
        -24    2    1    2    0    0 -0.47474839972E+01 -0.85779124947E+02 -0.94871179436E+02  0.15278635567E+03  0.83441793551E+02 0.  0.
         13    1    4    4    0    0 -0.14564538282E+02 -0.49713639017E+02 -0.10230833549E+03  0.11467592245E+03  0.00000000000E+00 0. -1.
        -14    1    4    4    0    0  0.98170542852E+01 -0.36065485929E+02  0.74371560514E+01  0.38110433221E+02  0.00000000000E+00 0.  1.
        -13    1    3    3    0    0  0.41247712508E+02  0.25072633890E+02 -0.87144719201E+02  0.99620343515E+02  0.00000000000E+00 0.  1.
         13    1    3    3    0    0 -0.18793791651E+02  0.38567666926E+02  0.82568573595E+00  0.42910992690E+02  0.00000000000E+00 0. -1.
          4    1    1    2  501    0 -0.17706436860E+02  0.22138824131E+02 -0.41823619125E+02  0.50525840487E+02  0.00000000000E+00 0. -1.
<scales pt_clust_5="13000.00000" pt_clust_6="13000.00000" pt_clust_7="13000.00000" pt_clust_8="13000.00000" pt_clust_9="28.34864"></scales>
<clustering>
<clus scale="   28.349">  2  9  1 -1</clus>
<clus scale="   83.442">  5  6 -1 -1</clus>
<clus scale="   91.159">  7  8 -1 -1</clus>
<clus scale="  112.577">  2  5  1 -1</clus>
<clus scale="   28.349">  2  5  1 -1</clus>
</clustering>
</event>
<event>
 9    1  0.9171696E-005  0.1341521E+03  0.7546771E-02  0.1223195E+00
         21   -1    0    0  501  502  0.00000000000E+00  0.00000000000E+00  0.20145437038E+03  0.20145437038E+03  0.00000000000E+00 0. -1.
          1   -1    0    0  502    0 -0.00000000000E+00 -0.00000000000E+00 -0.51077394135E+03  0.51077394135E+03  0.00000000000E+00 0. -1.
        -24    2    1    2    0    0  0.57185320106E+02  0.86613905479E+02 -0.44528231246E+03  0.46430358034E+03  0.80804377805E+02 0.  0.
         23    2    1    2    0    0  0.19997914245E+02 -0.81067973793E+02  0.11588747183E+03  0.16798084186E+03  0.88406584340E+02 0.  0.
         11    1    3    3    0    0  0.66016883524E+02  0.32957478833E+02 -0.30629456356E+03  0.31505679486E+03  0.00000000000E+00 0. -1.
        -12    1    3    3    0    0 -0.88315634181E+01  0.53656426646E+02 -0.13898774889E+03  0.14924678548E+03  0.00000000000E+00 0.  1.
        -13    1    4    4    0    0  0.21424091391E+02  0.79294439518E+01  0.12953489754E+01  0.22881121089E+02  0.00000000000E+00 0. -1.
         13    1    4    4    0    0 -0.14261771462E+01 -0.88997417744E+02  0.11459212286E+03  0.14509972077E+03  0.00000000000E+00 0.  1.
          2    1    1    2  501    0 -0.77183234350E+02 -0.55459316869E+01  0.20075269651E+02  0.79943889539E+02  0.00000000000E+00 0. -1.
<scales pt_clust_5="13000.00000" pt_clust_6="13000.00000" pt_clust_7="13000.00000" pt_clust_8="13000.00000" pt_clust_9="77.38223"></scales>
<clustering>
<clus scale="   77.382">  1  9  2 -1</clus>
<clus scale="   80.804">  5  6 -1 -1</clus>
<clus scale="   88.407">  7  8 -1 -1</clus>
<clus scale="  129.269">  2  5  1 -1</clus>
<clus scale="   77.382">  1  5  2 -1</clus>
</clustering>
</event>
<event>
 9    1  0.9171696E-005  0.9275412E+02  0.7546771E-02  0.1305727E+00
         21   -1    0    0  501  502  0.00000000000E+00  0.00000000000E+00  0.47535696071E+02  0.47535696071E+02  0.00000000000E+00 0. -1.
          1   -1    0    0  502    0 -0.00000000000E+00 -0.00000000000E+00 -0.51099039577E+03  0.51099039577E+03  0.00000000000E+00 0. -1.
         23    2    1    2    0    0  0.10050492460E+02 -0.12228121407E+02 -0.35291931959E+03  0.36509338595E+03  0.92144424544E+02 0.  0.
        -24    2    1    2    0    0 -0.72430752804E+01 -0.39525095888E+02 -0.20396765043E+02  0.89455559275E+02  0.77275958205E+02 0.  0.
         13    1    4    4    0    0 -0.23868605941E+02 -0.41364478052E+02  0.15205853491E+02  0.50119341321E+02  0.00000000000E+00 0. -1.
        -14    1    4    4    0    0  0.16625530660E+02  0.18393821634E+01 -0.35602618534E+02  0.39336217954E+02  0.00000000000E+00 0.  1.
        -11    1    3    3    0    0 -0.23828701640E+02  0.28545311821E+02 -0.10027523893E+03  0.10694748894E+03  0.00000000000E+00 0.  1.
         11    1    3    3    0    0  0.33879194100E+02 -0.40773433228E+02 -0.25264408066E+03  0.25814589701E+03  0.00000000000E+00 0. -1.
          2    1    1    2  501    0 -0.28074171794E+01  0.51753217295E+02 -0.90138615068E+02  0.10397714661E+03  0.00000000000E+00 0. -1.
<scales pt_clust_5="13000.00000" pt_clust_6="13000.00000" pt_clust_7="13000.00000" pt_clust_8="13000.00000" pt_clust_9="51.82933"></scales>
<clustering>
<clus scale="   51.829">  1  9  2 -1</clus>
<clus scale="   77.276">  5  6 -1 -1</clus>
<clus scale="   78.002">  1  5  2 -1</clus>
<clus scale="   92.144">  7  8 -1 -1</clus>
<clus scale="   51.829">  1  5  2 -1</clus>
</clustering>
</event>
<event>
 9    1  0.9171696E-005  0.1350558E+03  0.7546771E-02  0.1224108E+00
         21   -1    0    0  501  502  0.00000000000E+00  0.00000000000E+00  0.40451847664E+03  0.40451847664E+03  0.00000000000E+00 0. -1.
         -4   -1    0    0    0  501 -0.00000000000E+00 -0.00000000000E+00 -0.10308686362E+03  0.10308686362E+03  0.00000000000E+00 0.  1.
         23    2    1    2    0    0 -0.60470723124E+02 -0.36225290060E+02  0.57996455753E+01  0.12011518851E+03  0.97082658729E+02 0.  0.
        -24    2    1    2    0    0  0.66058889863E+02  0.64114052629E+02  0.69809089688E+02  0.15988307189E+03  0.11052103419E+03 0.  0.
         13    1    4    4    0    0  0.37921838608E+02  0.57140251236E+02  0.97891186182E+02  0.11952304584E+03  0.00000000000E+00 0. -1.
        -14    1    4    4    0    0  0.28137051255E+02  0.69738013927E+01 -0.28082096494E+02  0.40360026049E+02  0.00000000000E+00 0.  1.
        -11    1    3    3    0    0 -0.55052596971E+02  0.19556671485E+02  0.20938823171E+02  0.62061954116E+02  0.00000000000E+00 0. -1.
         11    1    3    3    0    0 -0.54181261529E+01 -0.55781961546E+02 -0.15139177596E+02  0.58053234390E+02  0.00000000000E+00 0.  1.
         -3    1    1    2    0  502 -0.55881667385E+01 -0.27888762569E+02  0.22582287776E+03  0.22760707987E+03  0.00000000000E+00 0.  1.
<scales pt_clust_5="13000.00000" pt_clust_6="13000.00000" pt_clust_7="13000.00000" pt_clust_8="13000.00000" pt_clust_9="28.44311"></scales>
<clustering>
<clus scale="   28.443">  1  9  2 -1</clus>
<clus scale="   97.083">  7  8 -1 -1</clus>
<clus scale="  110.521">  5  6 -1 -1</clus>
<clus scale="  124.299">  2  7  1 -1</clus>
<clus scale="   28.443">  1  5  2 -1</clus>
</clustering>
</event>
<event>
 9    1  0.9171696E-005  0.1460688E+03  0.7546771E-02  0.1207001E+00
         21   -1    0    0  501  502  0.00000000000E+00  0.00000000000E+00  0.12538634741E+04  0.12538634741E+04  0.00000000000E+00 0. -1.
         -2   -1    0    0    0  501 -0.00000000000E+00 -0.00000000000E+00 -0.31200049704E+02  0.31200049704E+02  0.00000000000E+00 0.  1.
         23    2    1    2    0    0 -0.60629389531E+02  0.10691003251E+03  0.26592572902E+03  0.30617687387E+03  0.89006217850E+02 0.  0.
        -24    2    1    2    0    0  0.67683841290E+02 -0.68080707231E+02  0.90589651520E+03  0.91452589020E+03  0.80579293351E+02 0.  0.
         11    1    4    4    0    0  0.68781821068E+02 -0.35464964854E+02  0.39031971720E+03  0.39791730834E+03  0.00000000000E+00 0. -1.
        -12    1    4    4    0    0 -0.10979797781E+01 -0.32615742377E+02  0.51557679800E+03  0.51660858186E+03  0.00000000000E+00 0.  1.
        -13    1    3    3    0    0 -0.15947299588E+02 -0.14891611637E+02  0.33121621992E+02  0.39662555448E+02  0.00000000000E+00 0. -1.
         13    1    3    3    0    0 -0.44682089943E+02  0.12180164415E+03  0.23280410702E+03  0.26651431842E+03  0.00000000000E+00 0.  1.
         -1    1    1    2    0  502 -0.70544517586E+01 -0.38829325278E+02  0.50841180159E+02  0.64360759715E+02  0.00000000000E+00 0.  1.
<scales pt_clust_5="13000.00000" pt_clust_6="13000.00000" pt_clust_7="13000.00000" pt_clust_8="13000.00000" pt_clust_9="39.46496"></scales>
<clustering>
<clus scale="   39.465">  1  9  2 -1</clus>
<clus scale="   80.579">  5  6 -1 -1</clus>
<clus scale="   89.006">  7  8 -1 -1</clus>
<clus scale="  141.092">  1  5  2 -1</clus>
<clus scale="   39.465">  1  5  2 -1</clus>
</clustering>
</event>
<event>
 9    1  0.9171696E-005  0.9995712E+02  0.7546771E-02  0.1286436E+00
          1   -1    0    0  502    0 -0.00000000000E+00  0.00000000000E+00  0.22263669885E+03  0.22263669885E+03  0.00000000000E+00 0. -1.
         21   -1    0    0  501  502  0.00000000000E+00 -0.00000000000E+00 -0.11754773874E+03  0.11754773874E+03  0.00000000000E+00 0.  1.
        -24    2    1    2    0    0 -0.29715244140E+02  0.22410621550E+02  0.10937057229E+03  0.14036010871E+03  0.79710766786E+02 0.  0.
         23    2    1    2    0    0  0.58201728320E+02 -0.16229081763E+02 -0.68437113302E+02  0.12935717668E+03  0.91645056638E+02 0.  0.
         13    1    3    3    0    0 -0.24059600703E+02 -0.27341982175E+02  0.33684526713E+02  0.49609431715E+02  0.00000000000E+00 0. -1.
        -14    1    3    3    0    0 -0.56556434373E+01  0.49752603725E+02  0.75686045575E+02  0.90750676994E+02  0.00000000000E+00 0.  1.
        -11    1    4    4    0    0  0.65525374060E+02  0.23305214467E+02 -0.44475672987E+02  0.82551760458E+02  0.00000000000E+00 0.  1.
         11    1    4    4    0    0 -0.73236457407E+01 -0.39534296230E+02 -0.23961440315E+02  0.46805416218E+02  0.00000000000E+00 0. -1.
          2    1    1    2  501    0 -0.28486484179E+02 -0.61815397878E+01  0.64155501131E+02  0.70467152208E+02  0.00000000000E+00 0. -1.
<scales pt_clust_5="13000.00000" pt_clust_6="13000.00000" pt_clust_7="13000.00000" pt_clust_8="13000.00000" pt_clust_9="29.14948"></scales>
<clustering>
<clus scale="   29.149">  2  9  1 -1</clus>
<clus scale="   79.711">  5  6 -1 -1</clus>
<clus scale="   89.143">  1  5  2 -1</clus>
<clus scale="   91.645">  7  8 -1 -1</clus>
<clus scale="   29.149">  2  5  1 -1</clus>
</clustering>
</event>
<event>
 9    1  0.9171696E-005  0.1949041E+03  0.7546771E-02  0.1168495E+00
         21   -1    0    0  501  502  0.00000000000E+00  0.00000000000E+00  0.89022702505E+02  0.89022702505E+02  0.00000000000E+00 0. -1.
          1   -1    0    0  502    0 -0.00000000000E+00 -0.00000000000E+00 -0.79981644524E+03  0.79981644524E+03  0.00000000000E+00 0. -1.
         23    2    1    2    0    0 -0.39894772366E+02 -0.96827242177E+02 -0.17060977348E+03  0.22041300553E+03  0.92233890236E+02 0.  0.
        -24    2    1    2    0    0 -0.85690564254E+02  0.19799436989E+03 -0.34411038886E+03  0.41455350991E+03  0.83054256664E+02 0.  0.
         11    1    4    4    0    0 -0.69516897302E+02  0.18412039522E+03 -0.33999908421E+03  0.39285149384E+03  0.00000000000E+00 0. -1.
        -12    1    4    4    0    0 -0.16173666952E+02  0.13873974670E+02 -0.41113046488E+01  0.21702016076E+02  0.00000000000E+00 0.  1.
        -13    1    3    3    0    0  0.22833830573E+02 -0.57135865155E+01 -0.10421208002E+02  0.25741609618E+02  0.00000000000E+00 0. -1.
         13    1    3    3    0    0 -0.62728602939E+02 -0.91113655661E+02 -0.16018856548E+03  0.19467139591E+03  0.00000000000E+00 0.  1.
          2    1    1    2  501    0  0.12558533662E+03 -0.10116712772E+03 -0.19607358039E+03  0.25387263230E+03  0.00000000000E+00 0. -1.
<scales pt_clust_5="13000.00000" pt_clust_6="13000.00000" pt_clust_7="13000.00000" pt_clust_8="13000.00000" pt_clust_9="176.32246"></scales>
<clustering>
<clus scale="   83.054">  5  6 -1 -1</clus>
<clus scale="   92.234">  7  8 -1 -1</clus>
<clus scale="  139.550">  2  7  1 -1</clus>
<clus scale="  176.322">  1  9  2 -1</clus>
<clus scale="  176.322">  1  5  2 -1</clus>
</clustering>
</event>
<event>
 9    1  0.9171696E-005  0.1701122E+03  0.7546771E-02  0.1179327E+00
         21   -1    0    0  501  502  0.00000000000E+00  0.00000000000E+00  0.19964207207E+03  0.19964207207E+03  0.00000000000E+00 0. -1.
         -4   -1    0    0    0  501 -0.00000000000E+00 -0.00000000000E+00 -0.19081580716E+03  0.19081580716E+03  0.00000000000E+00 0.  1.
         23    2    1    2    0    0  0.12742482684E+03 -0.73301133922E+02 -0.40528576893E+02  0.17755365124E+03  0.90953783831E+02 0.  0.
        -24    2    1    2    0    0 -0.10399467276E+03  0.96186299122E+02  0.11248999829E+02  0.16265725694E+03  0.79146365288E+02 0.  0.
         13    1    4    4    0    0 -0.77595099070E+02  0.26956709351E+02 -0.16046929072E+02  0.83696878743E+02  0.00000000000E+00 0. -1.
        -14    1    4    4    0    0 -0.26399573686E+02  0.69229589771E+02  0.27295928901E+02  0.78960378199E+02  0.00000000000E+00 0.  1.
        -13    1    3    3    0    0  0.53009822499E+02 -0.71792620418E+02 -0.50369049538E+02  0.10247566921E+03  0.00000000000E+00 0.  1.
         13    1    3    3    0    0  0.74415004339E+02 -0.15085135042E+01  0.98404726450E+01  0.75077982029E+02  0.00000000000E+00 0. -1.
         -3    1    1    2    0  502 -0.23430154081E+02 -0.22885165200E+02  0.38105841975E+02  0.50246971044E+02  0.00000000000E+00 0.  1.
<scales pt_clust_5="13000.00000" pt_clust_6="13000.00000" pt_clust_7="13000.00000" pt_clust_8="13000.00000" pt_clust_9="32.75214"></scales>
<clustering>
<clus scale="   32.752">  1  9  2 -1</clus>
<clus scale="   79.146">  5  6 -1 -1</clus>
<clus scale="   90.954">  7  8 -1 -1</clus>
<clus scale="  164.103">  1  5  2 -1</clus>
<clus scale="   32.752">  1  5  2 -1</clus>
</clustering>
</event>
<event>
 9    1  0.9171696E-005  0.1504830E+03  0.7546771E-02  0.1227245E+00
         21   -1    0    0  501  502  0.00000000000E+00  0.00000000000E+00  0.39174705983E+02  0.39174705983E+02  0.00000000000E+00 0. -1.
          1   -1    0    0  502    0 -0.00000000000E+00 -0.00000000000E+00 -0.17344270003E+04  0.17344270003E+04  0.00000000000E+00 0. -1.
        -24    2    1    2    0    0  0.24462269606E+02 -0.85158973966E+01 -0.11359948283E+04  0.11391095722E+04  0.80096469918E+02 0.  0.
         23    2    1    2    0    0 -0.63109016905E+02  0.10767318434E+03 -0.16781580913E+03  0.22884165718E+03  0.92898308005E+02 0.  0.
         13    1    3    3    0    0  0.20117847731E+02  0.18334888129E+02 -0.13354161138E+03  0.13628740914E+03  0.00000000000E+00 0. -1.
        -14    1    3    3    0    0  0.43444218755E+01 -0.26850785526E+02 -0.10024532169E+04  0.10028221631E+04  0.00000000000E+00 0.  1.
        -11    1    4    4    0    0 -0.61255529711E+01  0.21178799611E+02 -0.10589598177E+03  0.10816664415E+03  0.00000000000E+00 0.  1.
         11    1    4    4    0    0 -0.56983463934E+02  0.86494384724E+02 -0.61919827361E+02  0.12067501304E+03  0.00000000000E+00 0. -1.
          2    1    1    2  501    0  0.38646747299E+02 -0.99157286939E+02 -0.39144165687E+03  0.40565047684E+03  0.00000000000E+00 0. -1.
<scales pt_clust_5="13000.00000" pt_clust_6="13000.00000" pt_clust_7="13000.00000" pt_clust_8="13000.00000" pt_clust_9="118.38522"></scales>
<clustering>
<clus scale="   80.096">  5  6 -1 -1</clus>
<clus scale="   84.181">  2  5  1 -1</clus>
<clus scale="   92.898">  7  8 -1 -1</clus>
<clus scale="  118.385">  1  9  2 -1</clus>
<clus scale="  118.385">  1  5  2 -1</clus>
</clustering>
</event>
<event>
 9    1  0.9171696E-005  0.1473220E+03  0.7546771E-02  0.1207229E+00
         21   -1    0    0  501  502  0.00000000000E+00  0.00000000000E+00  0.31562087424E+02  0.31562087424E+02  0.00000000000E+00 0.  1.
          1   -1    0    0  502    0 -0.00000000000E+00 -0.00000000000E+00 -0.80131816792E+03  0.80131816792E+03  0.00000000000E+00 0. -1.
         23    2    1    2    0    0  0.85835283769E+02  0.58342323458E+02 -0.45266884231E+03  0.47444237019E+03  0.97030712598E+02 0.  0.
        -24    2    1    2    0    0 -0.96517164216E+02 -0.75806832047E+02 -0.28020708931E+03  0.31625664512E+03  0.80249697234E+02 0.  0.
         11    1    4    4    0    0 -0.35288339055E+02 -0.28238674273E+02 -0.19864577734E+03  0.20372244465E+03  0.00000000000E+00 0. -1.
        -12    1    4    4    0    0 -0.61228825162E+02 -0.47568157773E+02 -0.81561311972E+02  0.11253420047E+03  0.00000000000E+00 0.  1.
        -13    1    3    3    0    0  0.20173068205E+02  0.24744317938E+02 -0.25243816333E+02  0.40699928919E+02  0.00000000000E+00 0.  1.
         13    1    3    3    0    0  0.65662215564E+02  0.33598005519E+02 -0.42742502597E+03  0.43374244127E+03  0.00000000000E+00 0. -1.
          2    1    1    2  501    0  0.10681880448E+02  0.17464508589E+02 -0.36880148882E+02  0.42181240044E+02  0.00000000000E+00 0. -1.
<scales pt_clust_5="13000.00000" pt_clust_6="13000.00000" pt_clust_7="13000.00000" pt_clust_8="13000.00000" pt_clust_9="20.47222"></scales>
<clustering>
<clus scale="   20.472">  1  9  2 -1</clus>
<clus scale="   80.250">  5  6 -1 -1</clus>
<clus scale="   97.031">  7  8 -1 -1</clus>
<clus scale="  136.853">  1  5  2 -1</clus>
<clus scale="   20.472">  1  5  2 -1</clus>
</clustering>
</event>
<event>
 9    1  0.9171696E-005  0.1232006E+03  0.7546771E-02  0.1245403E+00
         21   -1    0    0  501  502  0.00000000000E+00  0.00000000000E+00  0.58443172959E+03  0.58443172959E+03  0.00000000000E+00 0. -1.
          1   -1    0    0  502    0 -0.00000000000E+00 -0.00000000000E+00 -0.57151738682E+02  0.57151738682E+02  0.00000000000E+00 0. -1.
        -24    2    1    2    0    0 -0.17884984482E+02 -0.51881167521E+02  0.96211179122E+02  0.13689333304E+03  0.80446662015E+02 0.  0.
         23    2    1    2    0    0  0.11414261322E+03  0.57609547161E+02  0.30289459291E+03  0.34429382665E+03  0.10220424930E+03 0.  0.
         11    1    3    3    0    0 -0.15865905218E+02  0.16932003986E+02  0.46533990172E+02  0.51998384097E+02  0.00000000000E+00 0. -1.
        -12    1    3    3    0    0 -0.20190792641E+01 -0.68813171507E+02  0.49677188950E+02  0.84894948943E+02  0.00000000000E+00 0.  1.
        -11    1    4    4    0    0  0.94207240813E+02  0.86958936025E+02  0.23731274235E+03  0.26972986200E+03  0.00000000000E+00 0. -1.
         11    1    4    4    0    0  0.19935372409E+02 -0.29349388864E+02  0.65581850562E+02  0.74563964641E+02  0.00000000000E+00 0.  1.
          2    1    1    2  501    0 -0.96257628740E+02 -0.57283796396E+01  0.12817421887E+03  0.16039630858E+03  0.00000000000E+00 0. -1.
<scales pt_clust_5="13000.00000" pt_clust_6="13000.00000" pt_clust_7="13000.00000" pt_clust_8="13000.00000" pt_clust_9="96.42798"></scales>
<clustering>
<clus scale="   80.447">  5  6 -1 -1</clus>
<clus scale="   96.428">  1  9  2 -1</clus>
<clus scale="  102.204">  7  8 -1 -1</clus>
<clus scale="  105.851">  2  5  1 -1</clus>
<clus scale="   96.428">  1  5  2 -1</clus>
</clustering>
</event>
<event>
 9    1  0.9171696E-005  0.1007229E+03  0.7546771E-02  0.1285849E+00
         21   -1    0    0  501  502  0.00000000000E+00  0.00000000000E+00  0.70678605381E+02  0.70678605381E+02  0.00000000000E+00 0. -1.
          3   -1    0    0  502    0 -0.00000000000E+00 -0.00000000000E+00 -0.24695755477E+03  0.24695755477E+03  0.00000000000E+00 0. -1.
         23    2    1    2    0    0  0.24860734147E+02  0.42194345111E+02 -0.14671871475E+03  0.18072957388E+03  0.93479295876E+02 0.  0.
        -24    2    1    2    0    0 -0.18639390699E+02 -0.14423003531E+02 -0.54226174300E+02  0.99245451043E+02  0.79710298313E+02 0.  0.
         11    1    4    4    0    0  0.21540349484E+02  0.12079152242E+01 -0.51743448663E+02  0.56060950711E+02  0.00000000000E+00 0. -1.
        -12    1    4    4    0    0 -0.40179740183E+02 -0.15630918755E+02 -0.24827256363E+01  0.43184500332E+02  0.00000000000E+00 0.  1.
        -13    1    3    3    0    0  0.52484630534E+02  0.37387316134E+02 -0.13639377228E+03  0.15084995514E+03  0.00000000000E+00 0.  1.
         13    1    3    3    0    0 -0.27623896388E+02  0.48070289770E+01 -0.10324942470E+02  0.29879618743E+02  0.00000000000E+00 0. -1.
          4    1    1    2  501    0 -0.62213434476E+01 -0.27771341580E+02  0.24665939656E+02  0.37661135226E+02  0.00000000000E+00 0. -1.
<scales pt_clust_5="13000.00000" pt_clust_6="13000.00000" pt_clust_7="13000.00000" pt_clust_8="13000.00000" pt_clust_9="28.45966"></scales>
<clustering>
<clus scale="   28.460">  1  9  2 -1</clus>
<clus scale="   79.710">  5  6 -1 -1</clus>
<clus scale="   88.093">  1  5  2 -1</clus>
<clus scale="   93.479">  7  8 -1 -1</clus>
<clus scale="   28.460">  1  5  2 -1</clus>
</clustering>
</event>
<event>
 9    1  0.1018859E-004  0.1170480E+03  0.7546771E-02  0.1251456E+00
         -4   -1    0    0    0  501 -0.00000000000E+00  0.00000000000E+00  0.27668460735E+03  0.27668460735E+03  0.00000000000E+00 0.  1.
         21   -1    0    0  501  502  0.00000000000E+00 -0.00000000000E+00 -0.14424584204E+03  0.14424584204E+03  0.00000000000E+00 0. -1.
        -24    2    1    2    0    0 -0.32857671038E+02 -0.42445329238E+02  0.62604408379E+02  0.11535046480E+03  0.80654728695E+02 0.  0.
         23    2    1    2    0    0  0.88469150755E+02  0.11908152568E+03 -0.19957852387E+02  0.17508713368E+03  0.90829445203E+02 0.  0.
         13    1    3    3    0    0 -0.57038373226E+02 -0.36096535783E+02  0.29000251600E+02  0.73466662566E+02  0.00000000000E+00 0. -1.
        -14    1    3    3    0    0  0.24180702188E+02 -0.63487934548E+01  0.33604156780E+02  0.41883802233E+02  0.00000000000E+00 0.  1.
        -13    1    4    4    0    0  0.18922726243E+02 -0.12861444078E+02  0.60980840650E+01  0.23678533348E+02  0.00000000000E+00 0.  1.
         13    1    4    4    0    0  0.69546424512E+02  0.13194296976E+03 -0.26055936452E+02  0.15140860034E+03  0.00000000000E+00 0. -1.
         -3    1    1    2    0  502 -0.55611479717E+02 -0.76636196444E+02  0.89792209316E+02  0.13049285090E+03  0.00000000000E+00 0.  1.
<scales pt_clust_5="13000.00000" pt_clust_6="13000.00000" pt_clust_7="13000.00000" pt_clust_8="13000.00000" pt_clust_9="94.68766"></scales>
<clustering>
<clus scale="   80.655">  5  6 -1 -1</clus>
<clus scale="   90.829">  7  8 -1 -1</clus>
<clus scale="   94.688">  2  9  1 -1</clus>
<clus scale="  109.341">  1  5  2 -1</clus>
<clus scale="   94.688">  2  5  1 -1</clus>
</clustering>
</event>
<event>
 9    1  0.9171696E-005  0.1684980E+03  0.7546771E-02  0.1201457E+00
          1   -1    0    0  502    0 -0.00000000000E+00  0.00000000000E+00  0.87801939742E+03  0.87801939742E+03  0.00000000000E+00 0. -1.
         21   -1    0    0  501  502  0.00000000000E+00 -0.00000000000E+00 -0.25349649715E+03  0.25349649715E+03  0.00000000000E+00 0. -1.
         23    2    1    2    0    0  0.46526961751E+02 -0.11091021888E+02 -0.81054838254E+01  0.10390493419E+03  0.91884533761E+02 0.  0.
        -24    2    1    2    0    0  0.99465901342E+01 -0.12763236999E+03  0.79359838142E+03  0.80773649266E+03  0.79062595815E+02 0.  0.
         11    1    4    4    0    0  0.62360169793E+01 -0.13859916385E+03  0.74140343705E+03  0.75427294304E+03  0.00000000000E+00 0. -1.
        -12    1    4    4    0    0  0.37105731549E+01  0.10966793855E+02  0.52194944367E+02  0.53463549621E+02  0.00000000000E+00 0.  1.
        -11    1    3    3    0    0 -0.93614007790E+01  0.20746820371E+02 -0.28458284705E+02  0.36440915856E+02  0.00000000000E+00 0.  1.
         11    1    3    3    0    0  0.55888362530E+02 -0.31837842260E+02  0.20352800879E+02  0.67464018333E+02  0.00000000000E+00 0. -1.
          2    1    1    2  501    0 -0.56473551885E+02  0.13872339188E+03 -0.16096999733E+03  0.21987446772E+03  0.00000000000E+00 0. -1.
<scales pt_clust_5="13000.00000" pt_clust_6="13000.00000" pt_clust_7="13000.00000" pt_clust_8="13000.00000" pt_clust_9="148.79750"></scales>
<clustering>
<clus scale="   79.063">  5  6 -1 -1</clus>
<clus scale="   91.885">  7  8 -1 -1</clus>
<clus scale="  103.588">  1  7  2 -1</clus>
<clus scale="  148.798">  2  9  1 -1</clus>
<clus scale="  148.798">  2  5  1 -1</clus>
</clustering>
</event>
<event>
 9    1  0.9171696E-005  0.1782205E+03  0.7546771E-02  0.1170773E+00
          1   -1    0    0  502    0 -0.00000000000E+00  0.00000000000E+00  0.78629084362E+03  0.78629084362E+03  0.00000000000E+00 0. -1.
         21   -1    0    0  501  502  0.00000000000E+00 -0.00000000000E+00 -0.82082384739E+02  0.82082384739E+02  0.00000000000E+00 0. -1.
        -24    2    1    2    0    0  0.12934137539E+03 -0.41217655036E+02  0.33817173386E+03  0.37336294707E+03  0.81312251145E+02 0.  0.
         23    2    1    2    0    0 -0.19595825033E+03 -0.31009507199E+02  0.31757430848E+03  0.38545127067E+03  0.91422181373E+02 0.  0.
         11    1    3    3    0    0  0.38743030012E+02 -0.51372940347E+02  0.17494457261E+03  0.18640226624E+03  0.00000000000E+00 0. -1.
        -12    1    3    3    0    0  0.90598345378E+02  0.10155285311E+02  0.16322716125E+03  0.18696068083E+03  0.00000000000E+00 0.  1.
        -13    1    4    4    0    0 -0.43406089449E+02 -0.21073208671E+02  0.15479045065E+03  0.16213652376E+03  0.00000000000E+00 0.  1.
         13    1    4    4    0    0 -0.15255216088E+03 -0.99362985275E+01  0.16278385783E+03  0.22331474691E+03  0.00000000000E+00 0. -1.
          2    1    1    2  501    0  0.66616874938E+02  0.72227162235E+02  0.48462416541E+02  0.10955901062E+03  0.00000000000E+00 0. -1.
<scales pt_clust_5="13000.00000" pt_clust_6="13000.00000" pt_clust_7="13000.00000" pt_clust_8="13000.00000" pt_clust_9="98.25768"></scales>
<clustering>
<clus scale="   81.312">  5  6 -1 -1</clus>
<clus scale="   91.422">  7  8 -1 -1</clus>
<clus scale="   98.258">  2  9  1 -1</clus>
<clus scale="  173.252">  1  5  2 -1</clus>
<clus scale="   98.258">  2  5  1 -1</clus>
</clustering>
</event>
<event>
 9    1  0.9171696E-005  0.1693786E+03  0.7546771E-02  0.1179987E+00
         21   -1    0    0  501  502  0.00000000000E+00  0.00000000000E+00  0.52742063596E+02  0.52742063596E+02  0.00000000000E+00 0. -1.
         -2   -1    0    0    0  501 -0.00000000000E+00 -0.00000000000E+00 -0.81340189722E+03  0.81340189722E+03  0.00000000000E+00 0.  1.
        -24    2    1    2    0    0 -0.93284819022E+02 -0.87870388285E+02 -0.30060732088E+03  0.33636936120E+03  0.79726552591E+02 0.  0.
         23    2    1    2    0    0  0.10180427452E+03  0.13748593743E+03 -0.26412406038E+03  0.32748213243E+03  0.90645101820E+02 0.  0.
         13    1    3    3    0    0  0.59701560549E+01 -0.38819619793E+02 -0.96108039444E+02  0.10382370100E+03  0.00000000000E+00 0. -1.
        -14    1    3    3    0    0 -0.99254975077E+02 -0.49050768493E+02 -0.20449928144E+03  0.23254566020E+03  0.00000000000E+00 0.  1.
        -11    1    4    4    0    0  0.33394032177E+02  0.11741296230E+03 -0.17454285841E+03  0.21299336732E+03  0.00000000000E+00 0. -1.
         11    1    4    4    0    0  0.68410242342E+02  0.20072975123E+02 -0.89581201980E+02  0.11448876511E+03  0.00000000000E+00 0.  1.
         -1    1    1    2    0  502 -0.85194554968E+01 -0.49615549142E+02 -0.19592845236E+03  0.20229246719E+03  0.00000000000E+00 0.  1.
<scales pt_clust_5="13000.00000" pt_clust_6="13000.00000" pt_clust_7="13000.00000" pt_clust_8="13000.00000" pt_clust_9="50.34170"></scales>
<clustering>
<clus scale="   50.342">  1  9  2 -1</clus>
<clus scale="   79.727">  5  6 -1 -1</clus>
<clus scale="   90.645">  7  8 -1 -1</clus>
<clus scale="  163.795">  2  5  1 -1</clus>
<clus scale="   50.342">  1  5  2 -1</clus>
</clustering>
</event>
<event>
 9    1  0.9171696E-005  0.1474140E+03  0.7546771E-02  0.1205559E+00
         21   -1    0    0  501  502  0.00000000000E+00  0.00000000000E+00  0.11281964783E+03  0.11281964783E+03  0.00000000000E+00 0. -1.
          3   -1    0    0  502    0 -0.00000000000E+00 -0.00000000000E+00 -0.40466013732E+03  0.40466013732E+03  0.00000000000E+00 0. -1.
        -24    2    1    2    0    0 -0.57366881511E+02  0.85815223470E+02 -0.88633128795E+02  0.15797722003E+03  0.80285483455E+02 0.  0.
         23    2    1    2    0    0  0.59481619186E+02 -0.13430289372E+03 -0.24213349656E+02  0.17404534023E+03  0.90167421336E+02 0.  0.
         11    1    3    3    0    0 -0.20903971087E+02  0.73337777363E+02 -0.19316005416E+02  0.78667106601E+02  0.00000000000E+00 0. -1.
        -12    1    3    3    0    0 -0.36462910424E+02  0.12477446107E+02 -0.69317123378E+02  0.79310113424E+02  0.00000000000E+00 0.  1.
        -11    1    4    4    0    0  0.33428311718E+02 -0.57667724062E+02  0.33532599473E+02  0.74615371407E+02  0.00000000000E+00 0.  1.
         11    1    4    4    0    0  0.26053307469E+02 -0.76635169657E+02 -0.57745949129E+02  0.99429968818E+02  0.00000000000E+00 0. -1.
          4    1    1    2  501    0 -0.21147376754E+01  0.48487670250E+02 -0.17899401103E+03  0.18545722490E+03  0.00000000000E+00 0. -1.
<scales pt_clust_5="13000.00000" pt_clust_6="13000.00000" pt_clust_7="13000.00000" pt_clust_8="13000.00000" pt_clust_9="48.53379"></scales>
<clustering>
<clus scale="   48.534">  1  9  2 -1</clus>
<clus scale="   80.285">  5  6 -1 -1</clus>
<clus scale="   90.167">  7  8 -1 -1</clus>
<clus scale="  141.586">  2  5  1 -1</clus>
<clus scale="   48.534">  1  5  2 -1</clus>
</clustering>
</event>
<event>
 9    1  0.9171696E-005  0.9716008E+02  0.7546771E-02  0.1290785E+00
         -2   -1    0    0    0  501 -0.00000000000E+00  0.00000000000E+00  0.58735872780E+02  0.58735872780E+02  0.00000000000E+00 0.  1.
         21   -1    0    0  501  502  0.00000000000E+00 -0.00000000000E+00 -0.30576924709E+03  0.30576924709E+03  0.00000000000E+00 0. -1.
         23    2    1    2    0    0  0.27869979112E+02  0.14910407654E+02 -0.16362518838E+02  0.97670134251E+02  0.90954203365E+02 0.  0.
        -24    2    1    2    0    0 -0.30142664760E+02 -0.36475654874E+02 -0.22513029776E+03  0.24445368165E+03  0.82673441093E+02 0.  0.
         11    1    4    4    0    0 -0.25268052503E+02 -0.37075332457E+02 -0.23183830750E+03  0.23613990679E+03  0.00000000000E+00 0. -1.
        -12    1    4    4    0    0 -0.48746122569E+01  0.59967758282E+00  0.67080097328E+01  0.83137748607E+01  0.00000000000E+00 0.  1.
        -13    1    3    3    0    0 -0.28393106057E+02  0.25763935382E+02 -0.12132813141E+02  0.40213853243E+02  0.00000000000E+00 0.  1.
         13    1    3    3    0    0  0.56263085169E+02 -0.10853527728E+02 -0.42297056969E+01  0.57456281007E+02  0.00000000000E+00 0. -1.
         -1    1    1    2    0  502  0.22726856477E+01  0.21565247220E+02 -0.55405577056E+01  0.22381303970E+02  0.00000000000E+00 0.  1.
<scales pt_clust_5="13000.00000" pt_clust_6="13000.00000" pt_clust_7="13000.00000" pt_clust_8="13000.00000" pt_clust_9="21.68468"></scales>
<clustering>
<clus scale="   21.685">  2  9  1 -1</clus>
<clus scale="   82.673">  5  6 -1 -1</clus>
<clus scale="   89.456">  2  5  1 -1</clus>
<clus scale="   90.954">  7  8 -1 -1</clus>
<clus scale="   21.685">  2  5  1 -1</clus>
</clustering>
</event>
<event>
 9    1  0.9171696E-005  0.1003502E+03  0.7546771E-02  0.1281378E+00
          1   -1    0    0  502    0 -0.00000000000E+00  0.00000000000E+00  0.40873295800E+03  0.40873295800E+03  0.00000000000E+00 0. -1.
         21   -1    0    0  501  502  0.00000000000E+00 -0.00000000000E+00 -0.12050389679E+03  0.12050389679E+03  0.00000000000E+00 0. -1.
         23    2    1    2    0    0  0.43700466587E+02 -0.23666124089E+01  0.30452396969E+03  0.32170611987E+03  0.94045987765E+02 0.  0.
        -24    2    1    2    0    0 -0.12195086353E+02 -0.58510211002E+01  0.70107847751E+02  0.11519680416E+03  0.90400435801E+02 0.  0.
         11    1    4    4    0    0  0.12803819218E+02 -0.43240701500E+02  0.25297559621E+02  0.51707471177E+02  0.00000000000E+00 0. -1.
        -12    1    4    4    0    0 -0.24998905571E+02  0.37389680400E+02  0.44810288130E+02  0.63489332981E+02  0.00000000000E+00 0.  1.
        -11    1    3    3    0    0 -0.23440826137E+01  0.39068228509E+02  0.84408538580E+02  0.93040972627E+02  0.00000000000E+00 0.  1.
         11    1    3    3    0    0  0.46044549201E+02 -0.41434840918E+02  0.22011543111E+03  0.22866514725E+03  0.00000000000E+00 0. -1.
          2    1    1    2  501    0 -0.31505380234E+02  0.82176335090E+01 -0.86402756232E+02  0.92333930755E+02  0.00000000000E+00 0. -1.
<scales pt_clust_5="13000.00000" pt_clust_6="13000.00000" pt_clust_7="13000.00000" pt_clust_8="13000.00000" pt_clust_9="32.55946"></scales>
<clustering>
<clus scale="   32.559">  2  9  1 -1</clus>
<clus scale="   90.400">  5  6 -1 -1</clus>
<clus scale="   94.046">  7  8 -1 -1</clus>
<clus scale="   96.942">  2  5  1 -1</clus>
<clus scale="   32.559">  2  5  1 -1</clus>
</clustering>
</event>
<event>
 9    1  0.9171696E-005  0.9479556E+02  0.7546771E-02  0.1299274E+00
          1   -1    0    0  502    0 -0.00000000000E+00  0.00000000000E+00  0.23688099332E+03  0.23688099332E+03  0.00000000000E+00 0. -1.
         21   -1    0    0  501  502  0.00000000000E+00 -0.00000000000E+00 -0.11994657367E+03  0.11994657367E+03  0.00000000000E+00 0. -1.
        -24    2    1    2    0    0 -0.16613879202E+02 -0.16297898469E+02  0.13067943584E+03  0.15493545158E+03  0.79913933244E+02 0.  0.
         23    2    1    2    0    0  0.29367509317E+02 -0.53796832685E+02  0.33836977947E+02  0.11621847546E+03  0.92764449819E+02 0.  0.
         13    1    3    3    0    0  0.89618101292E+01 -0.36498456416E+02  0.11022829268E+03  0.11645912531E+03  0.00000000000E+00 0. -1.
        -14    1    3    3    0    0 -0.25575689331E+02  0.20200557946E+02  0.20451143164E+02  0.38476326265E+02  0.00000000000E+00 0.  1.
        -13    1    4    4    0    0  0.49224861912E+02 -0.69864397946E+02  0.23270971964E+02  0.88575726172E+02  0.00000000000E+00 0. -1.
         13    1    4    4    0    0 -0.19857352596E+02  0.16067565262E+02  0.10566005983E+02  0.27642749284E+02  0.00000000000E+00 0.  1.
          2    1    1    2  501    0 -0.12753630114E+02  0.70094731154E+02 -0.47581994143E+02  0.85673639956E+02  0.00000000000E+00 0. -1.
<scales pt_clust_5="13000.00000" pt_clust_6="13000.00000" pt_clust_7="13000.00000" pt_clust_8="13000.00000" pt_clust_9="71.24554"></scales>
<clustering>
<clus scale="   71.246">  2  9  1 -1</clus>
<clus scale="   79.914">  5  6 -1 -1</clus>
<clus scale="   82.263">  1  5  2 -1</clus>
<clus scale="   92.764">  7  8 -1 -1</clus>
<clus scale="   71.246">  2  5  1 -1</clus>
</clustering>
</event>
<event>
 9    1  0.9171696E-005  0.1083474E+03  0.7546771E-02  0.1268797E+00
          1   -1    0    0  502    0 -0.00000000000E+00  0.00000000000E+00  0.63242910594E+03  0.63242910594E+03  0.00000000000E+00 0. -1.
         21   -1    0    0  501  502  0.00000000000E+00 -0.00000000000E+00 -0.31518181806E+02  0.31518181806E+02  0.00000000000E+00 0.  1.
        -24    2    1    2    0    0  0.12607629397E+02  0.51513571030E+02  0.39769870552E+03  0.40897420347E+03  0.79265619341E+02 0.  0.
         23    2    1    2    0    0 -0.36974315104E+01 -0.71291151506E+02  0.20224801969E+03  0.23325963233E+03  0.91704390987E+02 0.  0.
         13    1    3    3    0    0  0.27550591659E+02  0.65185108197E+02  0.35115186208E+03  0.35821189773E+03  0.00000000000E+00 0. -1.
        -14    1    3    3    0    0 -0.14942962262E+02 -0.13671537167E+02  0.46546843437E+02  0.50762305736E+02  0.00000000000E+00 0.  1.
        -11    1    4    4    0    0  0.41505269601E+02 -0.21029132857E+02  0.61478498100E+02  0.77100697545E+02  0.00000000000E+00 0.  1.
         11    1    4    4    0    0 -0.45202701111E+02 -0.50262018649E+02  0.14076952159E+03  0.15615893479E+03  0.00000000000E+00 0. -1.
          2    1    1    2  501    0 -0.89101978866E+01  0.19777580477E+02  0.96419892727E+00  0.21713451947E+02  0.00000000000E+00 0. -1.
<scales pt_clust_5="13000.00000" pt_clust_6="13000.00000" pt_clust_7="13000.00000" pt_clust_8="13000.00000" pt_clust_9="21.69203"></scales>
<clustering>
<clus scale="   21.692">  2  9  1 -1</clus>
<clus scale="   79.266">  5  6 -1 -1</clus>
<clus scale="   91.704">  7  8 -1 -1</clus>
<clus scale="   98.043">  1  5  2 -1</clus>
<clus scale="   21.692">  2  5  1 -1</clus>
</clustering>
</event>
<event>
 9    1  0.9171696E-005  0.1042914E+03  0.7546771E-02  0.1275878E+00
          3   -1    0    0  502    0 -0.00000000000E+00  0.00000000000E+00  0.26770637318E+03  0.26770637318E+03  0.00000000000E+00 0. -1.
         21   -1    0    0  501  502  0.00000000000E+00 -0.00000000000E+00 -0.20912223553E+03  0.20912223553E+03  0.00000000000E+00 0. -1.
         23    2    1    2    0    0 -0.29838352997E+02  0.42842644191E+02  0.21390899932E+03  0.23889065322E+03  0.92659941375E+02 0.  0.
        -24    2    1    2    0    0  0.16607469687E+02 -0.26176556819E+02 -0.79857907859E+01  0.89070173381E+02  0.83118606553E+02 0.  0.
         11    1    4    4    0    0 -0.27306829888E+02 -0.34513789583E+02 -0.43231697418E+01  0.44221651106E+02  0.00000000000E+00 0. -1.
        -12    1    4    4    0    0  0.43914299575E+02  0.83372327644E+01 -0.36626210441E+01  0.44848522275E+02  0.00000000000E+00 0.  1.
        -13    1    3    3    0    0 -0.34962851485E+02 -0.99806754578E+01  0.28976167637E+02  0.46493366812E+02  0.00000000000E+00 0.  1.
         13    1    3    3    0    0  0.51244984878E+01  0.52823319649E+02  0.18493283168E+03  0.19239728641E+03  0.00000000000E+00 0. -1.
          4    1    1    2  501    0  0.13230883310E+02 -0.16666087373E+02 -0.14733907088E+03  0.14886778211E+03  0.00000000000E+00 0. -1.
<scales pt_clust_5="13000.00000" pt_clust_6="13000.00000" pt_clust_7="13000.00000" pt_clust_8="13000.00000" pt_clust_9="21.27944"></scales>
<clustering>
<clus scale="   21.279">  2  9  1 -1</clus>
<clus scale="   83.119">  5  6 -1 -1</clus>
<clus scale="   92.660">  7  8 -1 -1</clus>
<clus scale="   95.914">  2  5  1 -1</clus>
<clus scale="   21.279">  2  5  1 -1</clus>
</clustering>
</event>
<event>
 9    1  0.9171696E-005  0.1369214E+03  0.7546771E-02  0.1220372E+00
          1   -1    0    0  502    0 -0.00000000000E+00  0.00000000000E+00  0.28348967512E+03  0.28348967512E+03  0.00000000000E+00 0. -1.
         21   -1    0    0  501  502  0.00000000000E+00 -0.00000000000E+00 -0.38546469099E+03  0.38546469099E+03  0.00000000000E+00 0. -1.
         23    2    1    2    0    0  0.52630748709E+01  0.10864537725E+03  0.19445552486E+03  0.24034744405E+03  0.90124495893E+02 0.  0.
        -24    2    1    2    0    0  0.40102188134E+02 -0.87641936874E+02  0.42784601577E+01  0.12377081066E+03  0.77534597173E+02 0.  0.
         11    1    4    4    0    0  0.33107685553E+02 -0.35259620306E-01  0.12750188299E+02  0.35477984547E+02  0.00000000000E+00 0. -1.
        -12    1    4    4    0    0  0.69945025812E+01 -0.87606677254E+02 -0.84717281415E+01  0.88292826116E+02  0.00000000000E+00 0.  1.
        -11    1    3    3    0    0 -0.29874146428E+02  0.31256869180E+02  0.11929764166E+03  0.12689122823E+03  0.00000000000E+00 0. -1.
         11    1    3    3    0    0  0.35137221298E+02  0.77388508073E+02  0.75157883193E+02  0.11345621582E+03  0.00000000000E+00 0.  1.
          2    1    1    2  501    0 -0.45365263005E+02 -0.21003440378E+02 -0.30070900089E+03  0.30483611139E+03  0.00000000000E+00 0. -1.
<scales pt_clust_5="13000.00000" pt_clust_6="13000.00000" pt_clust_7="13000.00000" pt_clust_8="13000.00000" pt_clust_9="49.99152"></scales>
<clustering>
<clus scale="   49.992">  2  9  1 -1</clus>
<clus scale="   77.535">  5  6 -1 -1</clus>
<clus scale="   90.124">  7  8 -1 -1</clus>
<clus scale="  128.983">  2  5  1 -1</clus>
<clus scale="   49.992">  2  5  1 -1</clus>
</clustering>
</event>
<event>
 9    1  0.9171696E-005  0.9970639E+02  0.7546771E-02  0.1284654E+00
         21   -1    0    0  501  502  0.00000000000E+00  0.00000000000E+00  0.48397995035E+02  0.48397995035E+02  0.00000000000E+00 0.  1.
          1   -1    0    0  502    0 -0.00000000000E+00 -0.00000000000E+00 -0.27714808912E+03  0.27714808912E+03  0.00000000000E+00 0. -1.
         23    2    1    2    0    0 -0.44066733962E+02  0.11865180048E+01 -0.14386867647E+03  0.17581344216E+03  0.90933412495E+02 0.  0.
        -24    2    1    2    0    0  0.33398396539E+02  0.22639755730E+02 -0.47433861786E+02  0.10408371888E+03  0.83399267755E+02 0.  0.
         13    1    4    4    0    0  0.16652247647E+02  0.20457667244E+02 -0.70627853922E+02  0.75393018578E+02  0.00000000000E+00 0. -1.
        -14    1    4    4    0    0  0.16746148892E+02  0.21820884864E+01  0.23193992136E+02  0.28690700307E+02  0.00000000000E+00 0.  1.
        -11    1    3    3    0    0  0.17010715620E+00 -0.37880056473E+02 -0.33105105489E+02  0.50307808780E+02  0.00000000000E+00 0.  1.
         11    1    3    3    0    0 -0.44236841118E+02  0.39066574478E+02 -0.11076357098E+03  0.12550563338E+03  0.00000000000E+00 0. -1.
          2    1    1    2  501    0  0.10668337423E+02 -0.23826273735E+02 -0.37447555827E+02  0.45648923108E+02  0.00000000000E+00 0. -1.
<scales pt_clust_5="13000.00000" pt_clust_6="13000.00000" pt_clust_7="13000.00000" pt_clust_8="13000.00000" pt_clust_9="26.10566"></scales>
<clustering>
<clus scale="   26.106">  1  9  2 -1</clus>
<clus scale="   83.399">  5  6 -1 -1</clus>
<clus scale="   90.933">  7  8 -1 -1</clus>
<clus scale="   92.887">  1  5  2 -1</clus>
<clus scale="   26.106">  1  5  2 -1</clus>
</clustering>
</event>
<event>
 9    1  0.9171696E-005  0.9743098E+02  0.7546771E-02  0.1293982E+00
         21   -1    0    0  501  502  0.00000000000E+00  0.00000000000E+00  0.14432916847E+03  0.14432916847E+03  0.00000000000E+00 0.  1.
          1   -1    0    0  502    0 -0.00000000000E+00 -0.00000000000E+00 -0.10035125193E+03  0.10035125193E+03  0.00000000000E+00 0. -1.
         23    2    1    2    0    0  0.17349801804E+02 -0.32183432692E+01 -0.21369845361E+02  0.98047320053E+02  0.94049100595E+02 0.  0.
        -24    2    1    2    0    0 -0.36708734193E+02 -0.29982765460E+02  0.42588380008E+02  0.10196687879E+03  0.79605130913E+02 0.  0.
         13    1    4    4    0    0 -0.32900705120E+02 -0.22587844846E+02 -0.15849245551E+02  0.42940257530E+02  0.00000000000E+00 0. -1.
        -14    1    4    4    0    0 -0.38080290728E+01 -0.73949206135E+01  0.58437625559E+02  0.59026621259E+02  0.00000000000E+00 0.  1.
        -11    1    3    3    0    0  0.27604608538E+02 -0.40531783404E+02 -0.31197884651E+02  0.58121836560E+02  0.00000000000E+00 0.  1.
         11    1    3    3    0    0 -0.10254806735E+02  0.37313440134E+02  0.98280392899E+01  0.39925483493E+02  0.00000000000E+00 0. -1.
          2    1    1    2  501    0  0.19358932390E+02  0.33201108729E+02  0.22759381887E+02  0.44666221555E+02  0.00000000000E+00 0. -1.
<scales pt_clust_5="13000.00000" pt_clust_6="13000.00000" pt_clust_7="13000.00000" pt_clust_8="13000.00000" pt_clust_9="38.43282"></scales>
<clustering>
<clus scale="   38.433">  1  9  2 -1</clus>
<clus scale="   79.605">  5  6 -1 -1</clus>
<clus scale="   83.574">  1  5  2 -1</clus>
<clus scale="   94.049">  7  8 -1 -1</clus>
<clus scale="   38.433">  1  5  2 -1</clus>
</clustering>
</event>
<event>
 9    1  0.9171696E-005  0.2093108E+03  0.7546771E-02  0.1175292E+00
         21   -1    0    0  501  502  0.00000000000E+00  0.00000000000E+00  0.99213985553E+03  0.99213985553E+03  0.00000000000E+00 0.  1.
         -2   -1    0    0    0  501 -0.00000000000E+00 -0.00000000000E+00 -0.12314151730E+03  0.12314151730E+03  0.00000000000E+00 0.  1.
         23    2    1    2    0    0 -0.30786459769E+02  0.98295496774E+01 -0.48315507498E+02  0.10791849034E+03  0.90926267605E+02 0.  0.
        -24    2    1    2    0    0 -0.66677589260E+02  0.17189228973E+03  0.55435669206E+03  0.58991831951E+03  0.81849993777E+02 0.  0.
         13    1    4    4    0    0 -0.45562543011E+02  0.62288814201E+02  0.13050562280E+03  0.15161648750E+03  0.00000000000E+00 0. -1.
        -14    1    4    4    0    0 -0.21115046249E+02  0.10960347553E+03  0.42385106927E+03  0.43830183201E+03  0.00000000000E+00 0.  1.
        -11    1    3    3    0    0 -0.54830188685E+02 -0.14122364930E+02 -0.47604674668E+02  0.73972939868E+02  0.00000000000E+00 0. -1.
         11    1    3    3    0    0  0.24043728916E+02  0.23951914607E+02 -0.71083282980E+00  0.33945550472E+02  0.00000000000E+00 0.  1.
         -1    1    1    2    0  502  0.97464049029E+02 -0.18172183941E+03  0.36295715366E+03  0.41744456298E+03  0.00000000000E+00 0.  1.
<scales pt_clust_5="13000.00000" pt_clust_6="13000.00000" pt_clust_7="13000.00000" pt_clust_8="13000.00000" pt_clust_9="192.64379"></scales>
<clustering>
<clus scale="   81.850">  5  6 -1 -1</clus>
<clus scale="   90.926">  7  8 -1 -1</clus>
<clus scale="   96.499">  2  7  1 -1</clus>
<clus scale="  192.644">  1  9  2 -1</clus>
<clus scale="  192.644">  1  5  2 -1</clus>
</clustering>
</event>
<event>
 9    1  0.9171696E-005  0.9834734E+02  0.7546771E-02  0.1288691E+00
         21   -1    0    0  501  502  0.00000000000E+00  0.00000000000E+00  0.20695342323E+03  0.20695342323E+03  0.00000000000E+00 0. -1.
          1   -1    0    0  502    0 -0.00000000000E+00 -0.00000000000E+00 -0.19439028490E+03  0.19439028490E+03  0.00000000000E+00 0. -1.
         23    2    1    2    0    0  0.24756538067E+02 -0.20178904512E+02 -0.13406290403E+03  0.16472453693E+03  0.90228800656E+02 0.  0.
        -24    2    1    2    0    0 -0.66687605040E+02  0.34617522070E+02  0.33727632890E+02  0.11532309165E+03  0.80723309819E+02 0.  0.
         13    1    4    4    0    0 -0.68693688094E+02  0.38559792265E+02 -0.25103639155E+01  0.78816129634E+02  0.00000000000E+00 0. -1.
        -14    1    4    4    0    0  0.20060830537E+01 -0.39422701948E+01  0.36237996806E+02  0.36506962021E+02  0.00000000000E+00 0.  1.
        -13    1    3    3    0    0 -0.31626304002E+02  0.57506761495E+01 -0.60256415261E+02  0.68294428478E+02  0.00000000000E+00 0. -1.
         13    1    3    3    0    0  0.56382842069E+02 -0.25929580661E+02 -0.73806488765E+02  0.96430108456E+02  0.00000000000E+00 0.  1.
          2    1    1    2  501    0  0.41931066973E+02 -0.14438617558E+02  0.11289840946E+03  0.12129607955E+03  0.00000000000E+00 0. -1.
<scales pt_clust_5="13000.00000" pt_clust_6="13000.00000" pt_clust_7="13000.00000" pt_clust_8="13000.00000" pt_clust_9="44.34736"></scales>
<clustering>
<clus scale="   44.347">  1  9  2 -1</clus>
<clus scale="   80.723">  5  6 -1 -1</clus>
<clus scale="   89.706">  1  5  2 -1</clus>
<clus scale="   90.229">  7  8 -1 -1</clus>
<clus scale="   44.347">  1  5  2 -1</clus>
</clustering>
</event>
<event>
 9    1  0.9171696E-005  0.2682867E+03  0.7546771E-02  0.1102264E+00
         21   -1    0    0  501  502  0.00000000000E+00  0.00000000000E+00  0.12312460163E+03  0.12312460163E+03  0.00000000000E+00 0. -1.
          3   -1    0    0  502    0 -0.00000000000E+00 -0.00000000000E+00 -0.45258989402E+03  0.45258989402E+03  0.00000000000E+00 0. -1.
        -24    2    1    2    0    0 -0.10983625379E+03 -0.43056252419E+02 -0.55294907045E+02  0.15038282798E+03  0.75097434629E+02 0.  0.
         23    2    1    2    0    0 -0.57382885948E+02 -0.68039052425E+02 -0.10037503810E+03  0.15979592587E+03  0.86818669618E+02 0.  0.
         11    1    3    3    0    0 -0.11263548741E+03 -0.56562711726E+02 -0.50481492100E+02  0.13577361461E+03  0.00000000000E+00 0. -1.
        -12    1    3    3    0    0  0.27992336141E+01  0.13506459307E+02 -0.48134149457E+01  0.14609213369E+02  0.00000000000E+00 0.  1.
        -13    1    4    4    0    0 -0.20049206902E+02 -0.46185889894E+01  0.13212623563E+02  0.24451492451E+02  0.00000000000E+00 0.  1.
         13    1    4    4    0    0 -0.37333679047E+02 -0.63420463436E+02 -0.11358766167E+03  0.13534443341E+03  0.00000000000E+00 0. -1.
          4    1    1    2  501    0  0.16721913974E+03  0.11109530484E+03 -0.17379534724E+03  0.26553574180E+03  0.00000000000E+00 0. -1.
<scales pt_clust_5="13000.00000" pt_clust_6="13000.00000" pt_clust_7="13000.00000" pt_clust_8="13000.00000" pt_clust_9="200.75968"></scales>
<clustering>
<clus scale="   75.097">  5  6 -1 -1</clus>
<clus scale="   86.819">  7  8 -1 -1</clus>
<clus scale="  104.753">  5  7 -1 -1</clus>
<clus scale="  200.760">  1  9  2 -1</clus>
<clus scale="  200.760">  1  5  2 -1</clus>
</clustering>
</event>
<event>
 9    1  0.9171696E-005  0.2466320E+03  0.7546771E-02  0.1138711E+00
         21   -1    0    0  501  502  0.00000000000E+00  0.00000000000E+00  0.14472520606E+04  0.14472520606E+04  0.00000000000E+00 0.  1.
         -2   -1    0    0    0  501 -0.00000000000E+00 -0.00000000000E+00 -0.86722440733E+02  0.86722440733E+02  0.00000000000E+00 0.  1.
        -24    2    1    2    0    0  0.52891043397E+01 -0.11409764018E+03  0.24268144532E+03  0.27960905886E+03  0.78998074485E+02 0.  0.
         23    2    1    2    0    0  0.17249599564E+03 -0.11898889637E+03  0.74800145631E+03  0.78242956729E+03  0.93683633358E+02 0.  0.
         11    1    3    3    0    0  0.33353566814E+02 -0.87325727083E+02  0.12766940702E+03  0.15823312080E+03  0.00000000000E+00 0. -1.
        -12    1    3    3    0    0 -0.28064462474E+02 -0.26771913101E+02  0.11501203830E+03  0.12137593806E+03  0.00000000000E+00 0.  1.
        -13    1    4    4    0    0 -0.10058668545E+02 -0.18732451281E+02  0.67452840289E+02  0.70724587004E+02  0.00000000000E+00 0. -1.
         13    1    4    4    0    0  0.18255466418E+03 -0.10025644509E+03  0.68054861602E+03  0.71170498029E+03  0.00000000000E+00 0.  1.
         -1    1    1    2    0  502 -0.17778509998E+03  0.23308653655E+03  0.36984671825E+03  0.47193587519E+03  0.00000000000E+00 0.  1.
<scales pt_clust_5="13000.00000" pt_clust_6="13000.00000" pt_clust_7="13000.00000" pt_clust_8="13000.00000" pt_clust_9="228.14640"></scales>
<clustering>
<clus scale="   78.998">  5  6 -1 -1</clus>
<clus scale="   93.684">  7  8 -1 -1</clus>
<clus scale="  138.877">  2  5  1 -1</clus>
<clus scale="  228.146">  1  9  2 -1</clus>
<clus scale="  228.146">  1  5  2 -1</clus>
</clustering>
</event>
<event>
 9    1  0.9171696E-005  0.2233731E+03  0.7546771E-02  0.1148757E+00
         21   -1    0    0  501  502  0.00000000000E+00  0.00000000000E+00  0.41930830930E+03  0.41930830930E+03  0.00000000000E+00 0. -1.
         -2   -1    0    0    0  501 -0.00000000000E+00 -0.00000000000E+00 -0.25788206386E+03  0.25788206386E+03  0.00000000000E+00 0.  1.
         23    2    1    2    0    0 -0.76340717014E+02 -0.87267864072E+02  0.58470773760E+02  0.15814912063E+03  0.90270304083E+02 0.  0.
        -24    2    1    2    0    0  0.19896251274E+03 -0.87727817645E+02 -0.72458058460E+02  0.24258239490E+03  0.79459402315E+02 0.  0.
         11    1    4    4    0    0  0.17524976470E+03 -0.10301871441E+03 -0.64220737176E+02  0.21318920852E+03  0.00000000000E+00 0. -1.
        -12    1    4    4    0    0  0.23712748042E+02  0.15290896770E+02 -0.82373212844E+01  0.29393186381E+02  0.00000000000E+00 0.  1.
        -11    1    3    3    0    0  0.90571847919E+01 -0.50846626546E+02  0.73570524264E+01  0.52168364436E+02  0.00000000000E+00 0.  1.
         11    1    3    3    0    0 -0.85397901806E+02 -0.36421237526E+02  0.51113721334E+02  0.10598075620E+03  0.00000000000E+00 0. -1.
         -1    1    1    2    0  502 -0.12262179573E+03  0.17499568172E+03  0.17541353013E+03  0.27645885763E+03  0.00000000000E+00 0.  1.
<scales pt_clust_5="13000.00000" pt_clust_6="13000.00000" pt_clust_7="13000.00000" pt_clust_8="13000.00000" pt_clust_9="208.76241"></scales>
<clustering>
<clus scale="   79.459">  5  6 -1 -1</clus>
<clus scale="   90.270">  7  8 -1 -1</clus>
<clus scale="  146.943">  2  7  1 -1</clus>
<clus scale="  208.762">  1  9  2 -1</clus>
<clus scale="  208.762">  1  5  2 -1</clus>
</clustering>
</event>
<event>
 9    1  0.9171696E-005  0.1051299E+03  0.7546771E-02  0.1272205E+00
         21   -1    0    0  501  502  0.00000000000E+00  0.00000000000E+00  0.19973552717E+03  0.19973552717E+03  0.00000000000E+00 0.  1.
          3   -1    0    0  502    0 -0.00000000000E+00 -0.00000000000E+00 -0.99140719000E+02  0.99140719000E+02  0.00000000000E+00 0. -1.
        -24    2    1    2    0    0 -0.53159458786E+02 -0.26847590981E+02 -0.29276257494E+02  0.10846581573E+03  0.85796344495E+02 0.  0.
         23    2    1    2    0    0  0.16803669924E+02  0.26787737236E+02  0.11738125780E+03  0.15196901701E+03  0.91193619617E+02 0.  0.
         13    1    3    3    0    0 -0.43996806945E+02 -0.54324060202E+02 -0.36146639178E+02  0.78698170639E+02  0.00000000000E+00 0. -1.
        -14    1    3    3    0    0 -0.91626518413E+01  0.27476469221E+02  0.68703816839E+01  0.29767645088E+02  0.00000000000E+00 0.  1.
        -11    1    4    4    0    0  0.51715863095E+02 -0.52944672611E+00  0.55673123240E+02  0.75988864058E+02  0.00000000000E+00 0. -1.
         11    1    4    4    0    0 -0.34912193171E+02  0.27317183962E+02  0.61708134564E+02  0.75980152955E+02  0.00000000000E+00 0.  1.
          4    1    1    2  501    0  0.36355788862E+02  0.59853744666E-01  0.12489807862E+02  0.38441413432E+02  0.00000000000E+00 0. -1.
<scales pt_clust_5="13000.00000" pt_clust_6="13000.00000" pt_clust_7="13000.00000" pt_clust_8="13000.00000" pt_clust_9="36.35586"></scales>
<clustering>
<clus scale="   36.356">  1  9  2 -1</clus>
<clus scale="   85.796">  5  6 -1 -1</clus>
<clus scale="   91.194">  7  8 -1 -1</clus>
<clus scale="  100.484">  2  5  1 -1</clus>
<clus scale="   36.356">  1  5  2 -1</clus>
</clustering>
</event>
<event>
 9    1  0.9171696E-005  0.1356532E+03  0.7546771E-02  0.1221517E+00
          1   -1    0    0  502    0 -0.00000000000E+00  0.00000000000E+00  0.53714381714E+03  0.53714381714E+03  0.00000000000E+00 0. -1.
         21   -1    0    0  501  502  0.00000000000E+00 -0.00000000000E+00 -0.57232921624E+02  0.57232921624E+02  0.00000000000E+00 0. -1.
         23    2    1    2    0    0  0.10309284374E+03  0.25915768463E+02  0.33821984109E+03  0.36619744306E+03  0.91695937269E+02 0.  0.
        -24    2    1    2    0    0 -0.75906426190E+02 -0.30564515964E+02  0.39912833832E+02  0.12273016892E+03  0.82302399026E+02 0.  0.
         11    1    4    4    0    0 -0.90539392185E+02 -0.18168758986E+02  0.18857306318E+02  0.94250110567E+02  0.00000000000E+00 0. -1.
        -12    1    4    4    0    0  0.14632965995E+02 -0.12395756978E+02  0.21055527514E+02  0.28480058353E+02  0.00000000000E+00 0.  1.
        -11    1    3    3    0    0  0.43133923209E+02 -0.18951983472E+02  0.51241606219E+02  0.69609016779E+02  0.00000000000E+00 0.  1.
         11    1    3    3    0    0  0.59958920529E+02  0.44867751934E+02  0.28697823487E+03  0.29658842628E+03  0.00000000000E+00 0. -1.
          2    1    1    2  501    0 -0.27186417548E+02  0.46487475011E+01  0.10177822060E+03  0.10544912679E+03  0.00000000000E+00 0. -1.
<scales pt_clust_5="13000.00000" pt_clust_6="13000.00000" pt_clust_7="13000.00000" pt_clust_8="13000.00000" pt_clust_9="27.58102"></scales>
<clustering>
<clus scale="   27.581">  2  9  1 -1</clus>
<clus scale="   82.302">  5  6 -1 -1</clus>
<clus scale="   91.696">  7  8 -1 -1</clus>
<clus scale="  129.489">  2  5  1 -1</clus>
<clus scale="   27.581">  2  5  1 -1</clus>
</clustering>
</event>
<event>
 9    1  0.9171696E-005  0.1007040E+03  0.7546771E-02  0.1285457E+00
         21   -1    0    0  501  502  0.00000000000E+00  0.00000000000E+00  0.12901973493E+03  0.12901973493E+03  0.00000000000E+00 0.  1.
         -2   -1    0    0    0  501 -0.00000000000E+00 -0.00000000000E+00 -0.11121840211E+03  0.11121840211E+03  0.00000000000E+00 0.  1.
         23    2    1    2    0    0  0.26095798756E+02 -0.52406805485E+02 -0.20627934820E+02  0.11133220054E+03  0.92422309042E+02 0.  0.
        -24    2    1    2    0    0 -0.14340998610E+02  0.14408766719E+02  0.16521387354E+02  0.83496890099E+02  0.79281130268E+02 0.  0.
         13    1    4    4    0    0 -0.27205494672E+02  0.16203557866E+02 -0.24775167145E+02  0.40205759972E+02  0.00000000000E+00 0. -1.
        -14    1    4    4    0    0  0.12864496063E+02 -0.17947911473E+01  0.41296554499E+02  0.43291130127E+02  0.00000000000E+00 0.  1.
        -11    1    3    3    0    0  0.60881727485E+01 -0.77206384343E+02 -0.16708100052E+02  0.79227850142E+02  0.00000000000E+00 0.  1.
         11    1    3    3    0    0  0.20007626008E+02  0.24799578858E+02 -0.39198347678E+01  0.32104350400E+02  0.00000000000E+00 0. -1.
         -1    1    1    2    0  502 -0.11754800147E+02  0.37998038766E+02  0.21907880290E+02  0.45409046404E+02  0.00000000000E+00 0.  1.
<scales pt_clust_5="13000.00000" pt_clust_6="13000.00000" pt_clust_7="13000.00000" pt_clust_8="13000.00000" pt_clust_9="39.77469"></scales>
<clustering>
<clus scale="   39.775">  1  9  2 -1</clus>
<clus scale="   79.281">  5  6 -1 -1</clus>
<clus scale="   88.797">  1  5  2 -1</clus>
<clus scale="   92.422">  7  8 -1 -1</clus>
<clus scale="   39.775">  1  5  2 -1</clus>
</clustering>
</event>
<event>
 9    1  0.9171696E-005  0.1146982E+03  0.7546771E-02  0.1254730E+00
         21   -1    0    0  501  502  0.00000000000E+00  0.00000000000E+00  0.89679818215E+02  0.89679818215E+02  0.00000000000E+00 0.  1.
          1   -1    0    0  502    0 -0.00000000000E+00 -0.00000000000E+00 -0.59194071506E+03  0.59194071506E+03  0.00000000000E+00 0. -1.
         23    2    1    2    0    0  0.33586525347E+02  0.50688786761E+02 -0.25644474430E+03  0.27877866832E+03  0.90863806017E+02 0.  0.
        -24    2    1    2    0    0 -0.20063720284E+01 -0.14253308711E+03 -0.32306028685E+02  0.16828002965E+03  0.83395338228E+02 0.  0.
         11    1    4    4    0    0  0.25069160552E+02 -0.76312353021E+02 -0.49957230367E+02  0.94592615464E+02  0.00000000000E+00 0. -1.
        -12    1    4    4    0    0 -0.27075532581E+02 -0.66220734093E+02  0.17651201682E+02  0.73687414184E+02  0.00000000000E+00 0.  1.
        -13    1    3    3    0    0  0.13647517254E+01 -0.24283659504E+02 -0.33728343193E+02  0.41583167277E+02  0.00000000000E+00 0.  1.
         13    1    3    3    0    0  0.32221773622E+02  0.74972446264E+02 -0.22271640110E+03  0.23719550104E+03  0.00000000000E+00 0. -1.
          2    1    1    2  501    0 -0.31580153319E+02  0.91844300353E+02 -0.21351012387E+03  0.23456183531E+03  0.00000000000E+00 0. -1.
<scales pt_clust_5="13000.00000" pt_clust_6="13000.00000" pt_clust_7="13000.00000" pt_clust_8="13000.00000" pt_clust_9="97.12204"></scales>
<clustering>
<clus scale="   83.395">  5  6 -1 -1</clus>
<clus scale="   90.864">  7  8 -1 -1</clus>
<clus scale="   97.122">  1  9  2 -1</clus>
<clus scale="  108.877">  1  5  2 -1</clus>
<clus scale="   97.122">  1  5  2 -1</clus>
</clustering>
</event>
<event>
 9    1  0.9171696E-005  0.1312269E+03  0.7546771E-02  0.1227866E+00
         21   -1    0    0  501  502  0.00000000000E+00  0.00000000000E+00  0.16442446793E+03  0.16442446793E+03  0.00000000000E+00 0. -1.
          3   -1    0    0  502    0 -0.00000000000E+00 -0.00000000000E+00 -0.44368501192E+03  0.44368501192E+03  0.00000000000E+00 0. -1.
         23    2    1    2    0    0  0.91829299506E+02  0.23391089228E+02 -0.27539040066E+03  0.30488945791E+03  0.90210561858E+02 0.  0.
        -24    2    1    2    0    0 -0.56667641969E+02 -0.14016454308E+03  0.34993615622E+02  0.17522481326E+03  0.81374819589E+02 0.  0.
         11    1    4    4    0    0 -0.13552040574E+02 -0.12538049330E+03  0.25149090545E+02  0.12859394488E+03  0.00000000000E+00 0. -1.
        -12    1    4    4    0    0 -0.43115601395E+02 -0.14784049776E+02  0.98445250765E+01  0.46630868375E+02  0.00000000000E+00 0.  1.
        -13    1    3    3    0    0  0.10887051362E+02  0.41496594621E+02 -0.13686530290E+03  0.14343153904E+03  0.00000000000E+00 0.  1.
         13    1    3    3    0    0  0.80942248144E+02 -0.18105505393E+02 -0.13852509776E+03  0.16145791888E+03  0.00000000000E+00 0. -1.
          4    1    1    2  501    0 -0.35161657537E+02  0.11677345385E+03 -0.38863758960E+02  0.12799520868E+03  0.00000000000E+00 0. -1.
<scales pt_clust_5="13000.00000" pt_clust_6="13000.00000" pt_clust_7="13000.00000" pt_clust_8="13000.00000" pt_clust_9="121.95237"></scales>
<clustering>
<clus scale="   81.375">  5  6 -1 -1</clus>
<clus scale="   90.211">  7  8 -1 -1</clus>
<clus scale="  121.952">  1  9  2 -1</clus>
<clus scale="  125.317">  1  5  2 -1</clus>
<clus scale="  121.952">  1  5  2 -1</clus>
</clustering>
</event>
<event>
 9    1  0.9171696E-005  0.1023908E+03  0.7546771E-02  0.1280374E+00
         21   -1    0    0  501  502  0.00000000000E+00  0.00000000000E+00  0.14294025487E+03  0.14294025487E+03  0.00000000000E+00 0. -1.
          1   -1    0    0  502    0 -0.00000000000E+00 -0.00000000000E+00 -0.30202043075E+03  0.30202043075E+03  0.00000000000E+00 0. -1.
         23    2    1    2    0    0  0.37542288056E+02  0.25957371292E+02 -0.23893174052E+03  0.25990839977E+03  0.91546660916E+02 0.  0.
        -24    2    1    2    0    0 -0.62217163497E+02  0.77795249823E+01  0.95902658678E+02  0.14027879741E+03  0.80927897651E+02 0.  0.
         11    1    4    4    0    0 -0.47171128611E+02  0.33087392681E+02  0.94651268091E+02  0.11080953696E+03  0.00000000000E+00 0. -1.
        -12    1    4    4    0    0 -0.15046034886E+02 -0.25307867699E+02  0.12513905868E+01  0.29469260453E+02  0.00000000000E+00 0.  1.
        -11    1    3    3    0    0 -0.85832171831E+01 -0.25207913919E+02 -0.11574428758E+03  0.11876805399E+03  0.00000000000E+00 0.  1.
         11    1    3    3    0    0  0.46125505240E+02  0.51165285210E+02 -0.12318745294E+03  0.14114034578E+03  0.00000000000E+00 0. -1.
          2    1    1    2  501    0  0.24674875441E+02 -0.33736896274E+02 -0.16051094040E+02  0.44773488451E+02  0.00000000000E+00 0. -1.
<scales pt_clust_5="13000.00000" pt_clust_6="13000.00000" pt_clust_7="13000.00000" pt_clust_8="13000.00000" pt_clust_9="41.79748"></scales>
<clustering>
<clus scale="   41.797">  1  9  2 -1</clus>
<clus scale="   80.928">  5  6 -1 -1</clus>
<clus scale="   91.547">  7  8 -1 -1</clus>
<clus scale="   93.018">  1  5  2 -1</clus>
<clus scale="   41.797">  1  5  2 -1</clus>
</clustering>
</event>
<event>
 9    1  0.9171696E-005  0.1462420E+03  0.7546771E-02  0.1207001E+00
          1   -1    0    0  502    0 -0.00000000000E+00  0.00000000000E+00  0.33000773453E+03  0.33000773453E+03  0.00000000000E+00 0. -1.
         21   -1    0    0  501  502  0.00000000000E+00 -0.00000000000E+00 -0.20048233194E+03  0.20048233194E+03  0.00000000000E+00 0. -1.
         23    2    1    2    0    0 -0.13278397264E+02 -0.11006885252E+03  0.22937625824E+03  0.27023757839E+03  0.90129977280E+02 0.  0.
        -24    2    1    2    0    0  0.70734645573E+02  0.12620309205E+03 -0.29909937477E+02  0.16831084251E+03  0.80643194486E+02 0.  0.
         11    1    4    4    0    0  0.57820200529E+02  0.25137715952E+02 -0.18957687047E+02  0.65836724180E+02  0.00000000000E+00 0. -1.
        -12    1    4    4    0    0  0.12914445044E+02  0.10106537610E+03 -0.10952250430E+02  0.10247411833E+03  0.00000000000E+00 0.  1.
        -13    1    3    3    0    0 -0.43829266064E+02 -0.41843544919E+02  0.60847212178E+02  0.85873570119E+02  0.00000000000E+00 0.  1.
         13    1    3    3    0    0  0.30550868800E+02 -0.68225307598E+02  0.16852904606E+03  0.18436400828E+03  0.00000000000E+00 0. -1.
          2    1    1    2  501    0 -0.57456248309E+02 -0.16134239535E+02 -0.69940918170E+02  0.91941645567E+02  0.00000000000E+00 0. -1.
<scales pt_clust_5="13000.00000" pt_clust_6="13000.00000" pt_clust_7="13000.00000" pt_clust_8="13000.00000" pt_clust_9="59.67859"></scales>
<clustering>
<clus scale="   59.679">  2  9  1 -1</clus>
<clus scale="   80.643">  5  6 -1 -1</clus>
<clus scale="   90.130">  7  8 -1 -1</clus>
<clus scale="  140.594">  2  5  1 -1</clus>
<clus scale="   59.679">  2  5  1 -1</clus>
</clustering>
</event>
<event>
 9    1  0.9171696E-005  0.1090177E+03  0.7546771E-02  0.1271079E+00
          1   -1    0    0  502    0 -0.00000000000E+00  0.00000000000E+00  0.48912474325E+03  0.48912474325E+03  0.00000000000E+00 0. -1.
         21   -1    0    0  501  502  0.00000000000E+00 -0.00000000000E+00 -0.37051015007E+03  0.37051015007E+03  0.00000000000E+00 0. -1.
        -24    2    1    2    0    0  0.44706602476E+02 -0.21239978624E+01  0.40053118630E+03  0.41139691264E+03  0.82577217511E+02 0.  0.
         23    2    1    2    0    0 -0.92420176007E+01  0.40477329591E+02  0.44246301186E+02  0.11791851643E+03  0.10110990184E+03 0.  0.
         11    1    3    3    0    0  0.63202248453E+02  0.13891791690E+01  0.19468771109E+03  0.20469430592E+03  0.00000000000E+00 0. -1.
        -12    1    3    3    0    0 -0.18495645977E+02 -0.35131770314E+01  0.20584347522E+03  0.20670260672E+03  0.00000000000E+00 0.  1.
        -11    1    4    4    0    0 -0.43967554296E+02  0.53318015488E+02  0.41905596126E+02  0.80821009601E+02  0.00000000000E+00 0.  1.
         11    1    4    4    0    0  0.34725536695E+02 -0.12840685897E+02  0.23407050599E+01  0.37097506833E+02  0.00000000000E+00 0. -1.
          2    1    1    2  501    0 -0.35464584875E+02 -0.38353331729E+02 -0.32616289431E+03  0.33031946425E+03  0.00000000000E+00 0. -1.
<scales pt_clust_5="13000.00000" pt_clust_6="13000.00000" pt_clust_7="13000.00000" pt_clust_8="13000.00000" pt_clust_9="52.23710"></scales>
<clustering>
<clus scale="   52.237">  2  9  1 -1</clus>
<clus scale="   82.577">  5  6 -1 -1</clus>
<clus scale="   92.090">  1  5  2 -1</clus>
<clus scale="  101.110">  7  8 -1 -1</clus>
<clus scale="   52.237">  2  5  1 -1</clus>
</clustering>
</event>
<event>
 9    1  0.9171696E-005  0.1481729E+03  0.7546771E-02  0.1221653E+00
         -2   -1    0    0    0  501 -0.00000000000E+00  0.00000000000E+00  0.21237872949E+03  0.21237872949E+03  0.00000000000E+00 0.  1.
         21   -1    0    0  501  502  0.00000000000E+00 -0.00000000000E+00 -0.57825858726E+03  0.57825858726E+03  0.00000000000E+00 0. -1.
         23    2    1    2    0    0 -0.10379395152E+02 -0.34294018307E+02 -0.42676179604E+03  0.43811222166E+03  0.92373571291E+02 0.  0.
        -24    2    1    2    0    0  0.33324186737E+02 -0.11341530148E+03 -0.65393605906E+02  0.15684673739E+03  0.79693433266E+02 0.  0.
         11    1    4    4    0    0  0.41787843250E+02 -0.29473846991E+02 -0.49156091400E+02  0.70931324685E+02  0.00000000000E+00 0. -1.
        -12    1    4    4    0    0 -0.84636565132E+01 -0.83941454489E+02 -0.16237514507E+02  0.85915412707E+02  0.00000000000E+00 0.  1.
        -13    1    3    3    0    0  0.37639956972E+02  0.22118151054E+01 -0.13416714728E+03  0.13936456471E+03  0.00000000000E+00 0.  1.
         13    1    3    3    0    0 -0.48019352123E+02 -0.36505833412E+02 -0.29259464877E+03  0.29874765696E+03  0.00000000000E+00 0. -1.
         -1    1    1    2    0  502 -0.22944791585E+02  0.14770931979E+03  0.12627554418E+03  0.19567835770E+03  0.00000000000E+00 0.  1.
<scales pt_clust_5="13000.00000" pt_clust_6="13000.00000" pt_clust_7="13000.00000" pt_clust_8="13000.00000" pt_clust_9="124.91670"></scales>
<clustering>
<clus scale="   79.693">  5  6 -1 -1</clus>
<clus scale="   92.374">  7  8 -1 -1</clus>
<clus scale="   99.079">  1  7  2 -1</clus>
<clus scale="  124.917">  2  9  1 -1</clus>
<clus scale="  124.917">  2  5  1 -1</clus>
</clustering>
</event>
<event>
 9    1  0.9171696E-005  0.1769611E+03  0.7546771E-02  0.1196351E+00
         21   -1    0    0  501  502  0.00000000000E+00  0.00000000000E+00  0.35641590227E+02  0.35641590227E+02  0.00000000000E+00 0.  1.
          1   -1    0    0  502    0 -0.00000000000E+00 -0.00000000000E+00 -0.14172524577E+04  0.14172524577E+04  0.00000000000E+00 0. -1.
        -24    2    1    2    0    0 -0.55561918250E+02  0.19707538589E+02 -0.39429576558E+03  0.40676315368E+03  0.80694476865E+02 0.  0.
         23    2    1    2    0    0 -0.24668539968E+02 -0.15273798530E+03 -0.39361969215E+03  0.43244672000E+03  0.90201300275E+02 0.  0.
         11    1    3    3    0    0 -0.15979618579E+02 -0.31119115651E+02 -0.15941070536E+03  0.16320392322E+03  0.00000000000E+00 0. -1.
        -12    1    3    3    0    0 -0.39582299671E+02  0.50826654241E+02 -0.23488506022E+03  0.24355923046E+03  0.00000000000E+00 0.  1.
        -11    1    4    4    0    0 -0.55001169923E+02 -0.63438130705E+02 -0.16486746980E+03  0.18501569587E+03  0.00000000000E+00 0.  1.
         11    1    4    4    0    0  0.30332629956E+02 -0.89299854593E+02 -0.22875222235E+03  0.24743102413E+03  0.00000000000E+00 0. -1.
          2    1    1    2  501    0  0.80230458218E+02  0.13303044671E+03 -0.59369540970E+03  0.61368417421E+03  0.00000000000E+00 0. -1.
<scales pt_clust_5="13000.00000" pt_clust_6="13000.00000" pt_clust_7="13000.00000" pt_clust_8="13000.00000" pt_clust_9="152.24649"></scales>
<clustering>
<clus scale="   80.694">  5  6 -1 -1</clus>
<clus scale="   90.201">  7  8 -1 -1</clus>
<clus scale="   99.936">  2  5  1 -1</clus>
<clus scale="  152.246">  1  9  2 -1</clus>
<clus scale="  152.246">  1  5  2 -1</clus>
</clustering>
</event>
<event>
 9    1  0.9171696E-005  0.1250346E+03  0.7546771E-02  0.1256977E+00
          1   -1    0    0  502    0 -0.00000000000E+00  0.00000000000E+00  0.40454501299E+03  0.40454501299E+03  0.00000000000E+00 0. -1.
         21   -1    0    0  501  502  0.00000000000E+00 -0.00000000000E+00 -0.91400280762E+02  0.91400280762E+02  0.00000000000E+00 0.  1.
        -24    2    1    2    0    0  0.24183666315E+02  0.13044105278E+02 -0.26257237914E+02  0.84570696929E+02  0.75549730888E+02 0.  0.
         23    2    1    2    0    0  0.66696645071E+02 -0.43428741611E+02  0.11443718202E+03  0.16685136067E+03  0.91700653585E+02 0.  0.
         13    1    3    3    0    0  0.37817809016E+02 -0.19464113530E+02 -0.24916309546E+02  0.49293619016E+02  0.00000000000E+00 0. -1.
        -14    1    3    3    0    0 -0.13634142701E+02  0.32508218807E+02 -0.13409283682E+01  0.35277077913E+02  0.00000000000E+00 0.  1.
        -13    1    4    4    0    0  0.25886241078E+02  0.11632391430E+01 -0.10578623397E+02  0.27988531141E+02  0.00000000000E+00 0. -1.
         13    1    4    4    0    0  0.40810403994E+02 -0.44591980754E+02  0.12501580541E+03  0.13886282953E+03  0.00000000000E+00 0.  1.
          2    1    1    2  501    0 -0.90880311386E+02  0.30384636333E+02  0.22496478812E+03  0.24452323615E+03  0.00000000000E+00 0. -1.
<scales pt_clust_5="13000.00000" pt_clust_6="13000.00000" pt_clust_7="13000.00000" pt_clust_8="13000.00000" pt_clust_9="84.99790"></scales>
<clustering>
<clus scale="   75.550">  5  6 -1 -1</clus>
<clus scale="   80.391">  1  5  2 -1</clus>
<clus scale="   84.998">  2  9  1 -1</clus>
<clus scale="   91.701">  7  8 -1 -1</clus>
<clus scale="   84.998">  2  5  1 -1</clus>
</clustering>
</event>
<event>
 9    1  0.9171696E-005  0.2509982E+03  0.7546771E-02  0.1123469E+00
          1   -1    0    0  502    0 -0.00000000000E+00  0.00000000000E+00  0.16294010838E+04  0.16294010838E+04  0.00000000000E+00 0. -1.
         21   -1    0    0  501  502  0.00000000000E+00 -0.00000000000E+00 -0.22933170109E+03  0.22933170109E+03  0.00000000000E+00 0. -1.
         23    2    1    2    0    0 -0.11268431286E+03  0.12701911046E+03  0.34536934876E+02  0.19452630502E+03  0.88408566833E+02 0.  0.
        -24    2    1    2    0    0  0.28083972675E+03 -0.27803815321E+03  0.13800159902E+04  0.14377274136E+04  0.80248463091E+02 0.  0.
         13    1    4    4    0    0  0.27109078441E+03 -0.23603334838E+03  0.12042981808E+04  0.12567959513E+04  0.00000000000E+00 0. -1.
        -14    1    4    4    0    0  0.97489423453E+01 -0.42004804829E+02  0.17571780940E+03  0.18093146229E+03  0.00000000000E+00 0.  1.
        -11    1    3    3    0    0 -0.18318087777E+02  0.42380834662E+02 -0.27139634370E+02  0.53556019644E+02  0.00000000000E+00 0.  1.
         11    1    3    3    0    0 -0.94366225083E+02  0.84638275796E+02  0.61676569246E+02  0.14097028538E+03  0.00000000000E+00 0. -1.
          2    1    1    2  501    0 -0.16815541389E+03  0.15101904275E+03 -0.14483542299E+02  0.22647906634E+03  0.00000000000E+00 0. -1.
<scales pt_clust_5="13000.00000" pt_clust_6="13000.00000" pt_clust_7="13000.00000" pt_clust_8="13000.00000" pt_clust_9="237.82408"></scales>
<clustering>
<clus scale="   80.248">  5  6 -1 -1</clus>
<clus scale="   88.409">  7  8 -1 -1</clus>
<clus scale="  191.436">  1  7  2 -1</clus>
<clus scale="  237.824">  2  9  1 -1</clus>
<clus scale="  237.824">  2  5  1 -1</clus>
</clustering>
</event>
<event>
 9    1  0.9171696E-005  0.1042868E+03  0.7546771E-02  0.1278449E+00
         21   -1    0    0  501  502  0.00000000000E+00  0.00000000000E+00  0.40574563309E+03  0.40574563309E+03  0.00000000000E+00 0.  1.
          3   -1    0    0  502    0 -0.00000000000E+00 -0.00000000000E+00 -0.79679445652E+02  0.79679445652E+02  0.00000000000E+00 0. -1.
         23    2    1    2    0    0 -0.21406192880E+02 -0.25265216093E+02 -0.27705969480E+02  0.10743560629E+03  0.98378008294E+02 0.  0.
        -24    2    1    2    0    0  0.79690006866E+01  0.47332276501E+02  0.20357796526E+03  0.22558931334E+03  0.84514501618E+02 0.  0.
         13    1    4    4    0    0  0.20454779786E+02 -0.19070025964E+02  0.79992896818E+02  0.84740353125E+02  0.00000000000E+00 0. -1.
        -14    1    4    4    0    0 -0.12485779099E+02  0.66402302465E+02  0.12358506844E+03  0.14084896022E+03  0.00000000000E+00 0.  1.
        -11    1    3    3    0    0  0.39070537883E+02 -0.17396141756E+02 -0.13010360306E+02  0.44703491517E+02  0.00000000000E+00 0.  1.
         11    1    3    3    0    0 -0.60476730764E+02 -0.78690743368E+01 -0.14695609174E+02  0.62732114772E+02  0.00000000000E+00 0. -1.
          4    1    1    2  501    0  0.13437192194E+02 -0.22067060408E+02  0.15019419166E+03  0.15240015911E+03  0.00000000000E+00 0. -1.
<scales pt_clust_5="13000.00000" pt_clust_6="13000.00000" pt_clust_7="13000.00000" pt_clust_8="13000.00000" pt_clust_9="25.83628"></scales>
<clustering>
<clus scale="   25.836">  1  9  2 -1</clus>
<clus scale="   84.515">  5  6 -1 -1</clus>
<clus scale="   91.325">  1  5  2 -1</clus>
<clus scale="   98.378">  7  8 -1 -1</clus>
<clus scale="   25.836">  1  5  2 -1</clus>
</clustering>
</event>
<event>
 9    1  0.9171696E-005  0.9853918E+02  0.7546771E-02  0.1288574E+00
         -2   -1    0    0    0  501 -0.00000000000E+00  0.00000000000E+00  0.28628111318E+03  0.28628111318E+03  0.00000000000E+00 0.  1.
         21   -1    0    0  501  502  0.00000000000E+00 -0.00000000000E+00 -0.10942782765E+03  0.10942782765E+03  0.00000000000E+00 0. -1.
        -24    2    1    2    0    0 -0.42779982488E+02 -0.28368644238E+01  0.24152406858E+03  0.25790464332E+03  0.79641412851E+02 0.  0.
         23    2    1    2    0    0  0.22778363170E+02  0.76177004441E+00 -0.29392022380E+02  0.97196887514E+02  0.89799275279E+02 0.  0.
         11    1    3    3    0    0 -0.12441029024E+02 -0.27584744557E+02  0.29376035803E+02  0.42174030101E+02  0.00000000000E+00 0. -1.
        -12    1    3    3    0    0 -0.30338953463E+02  0.24747880133E+02  0.21214803278E+03  0.21573061322E+03  0.00000000000E+00 0.  1.
        -13    1    4    4    0    0 -0.76960585205E+01 -0.34658442790E+02  0.91090360346E+01  0.36652578503E+02  0.00000000000E+00 0.  1.
         13    1    4    4    0    0  0.30474421691E+02  0.35420212835E+02 -0.38501058415E+02  0.60544309012E+02  0.00000000000E+00 0. -1.
         -1    1    1    2    0  502  0.20001619317E+02  0.20750943794E+01 -0.35278760667E+02  0.40607409991E+02  0.00000000000E+00 0.  1.
<scales pt_clust_5="13000.00000" pt_clust_6="13000.00000" pt_clust_7="13000.00000" pt_clust_8="13000.00000" pt_clust_9="20.10897"></scales>
<clustering>
<clus scale="   20.109">  2  9  1 -1</clus>
<clus scale="   79.641">  5  6 -1 -1</clus>
<clus scale="   89.380">  1  5  2 -1</clus>
<clus scale="   89.799">  7  8 -1 -1</clus>
<clus scale="   20.109">  2  5  1 -1</clus>
</clustering>
</event>
<event>
 9    1  0.9171696E-005  0.9466206E+02  0.7546771E-02  0.1296686E+00
          3   -1    0    0  502    0 -0.00000000000E+00  0.00000000000E+00  0.90479767649E+02  0.90479767649E+02  0.00000000000E+00 0. -1.
         21   -1    0    0  501  502  0.00000000000E+00 -0.00000000000E+00 -0.14479791400E+03  0.14479791400E+03  0.00000000000E+00 0.  1.
        -24    2    1    2    0    0 -0.12171005616E+02  0.29287944510E+02 -0.99104730582E+01  0.88321357280E+02  0.81832313937E+02 0.  0.
         23    2    1    2    0    0  0.37447127298E+02  0.17560428250E+00 -0.16400017725E+02  0.99087630997E+02  0.90261175793E+02 0.  0.
         11    1    3    3    0    0 -0.27194521037E+02 -0.44832126168E+01  0.25197142244E+02  0.37343502073E+02  0.00000000000E+00 0. -1.
        -12    1    3    3    0    0  0.15023515422E+02  0.33771157127E+02 -0.35107615302E+02  0.50977855207E+02  0.00000000000E+00 0.  1.
        -11    1    4    4    0    0  0.22776441509E+02 -0.40734262520E+02  0.10685976221E+02  0.47877306927E+02  0.00000000000E+00 0.  1.
         11    1    4    4    0    0  0.14670685789E+02  0.40909866802E+02 -0.27085993945E+02  0.51210324069E+02  0.00000000000E+00 0. -1.
          4    1    1    2  501    0 -0.25276121682E+02 -0.29463548792E+02 -0.28007655570E+02  0.47868693373E+02  0.00000000000E+00 0. -1.
<scales pt_clust_5="13000.00000" pt_clust_6="13000.00000" pt_clust_7="13000.00000" pt_clust_8="13000.00000" pt_clust_9="38.81988"></scales>
<clustering>
<clus scale="   38.820">  2  9  1 -1</clus>
<clus scale="   81.832">  5  6 -1 -1</clus>
<clus scale="   86.662">  1  5  2 -1</clus>
<clus scale="   90.261">  7  8 -1 -1</clus>
<clus scale="   38.820">  2  5  1 -1</clus>
</clustering>
</event>
<event>
 9    1  0.9171696E-005  0.2108912E+03  0.7546771E-02  0.1161680E+00
         -4   -1    0    0    0  501 -0.00000000000E+00  0.00000000000E+00  0.45448101820E+03  0.45448101820E+03  0.00000000000E+00 0.  1.
         21   -1    0    0  501  502  0.00000000000E+00 -0.00000000000E+00 -0.40538094572E+03  0.40538094572E+03  0.00000000000E+00 0.  1.
        -24    2    1    2    0    0 -0.64762411666E+02  0.76668258984E+02  0.28351297261E+03  0.31144626629E+03  0.80913405868E+02 0.  0.
         23    2    1    2    0    0 -0.11444710169E+03  0.22597586223E+02  0.80915762382E+02  0.17238122700E+03  0.97770838347E+02 0.  0.
         13    1    3    3    0    0 -0.71729426606E+02  0.31579105029E+02  0.21759787628E+03  0.23128161682E+03  0.00000000000E+00 0. -1.
        -14    1    3    3    0    0  0.69670149403E+01  0.45089153954E+02  0.65915096332E+02  0.80164649479E+02  0.00000000000E+00 0.  1.
        -13    1    4    4    0    0 -0.67196208263E+02  0.26009052769E+02  0.98333506779E+02  0.12190684881E+03  0.00000000000E+00 0.  1.
         13    1    4    4    0    0 -0.47250893429E+02 -0.34114665459E+01 -0.17417744397E+02  0.50474378191E+02  0.00000000000E+00 0. -1.
         -3    1    1    2    0  502  0.17920951336E+03 -0.99265845206E+02 -0.31532866250E+03  0.37603447063E+03  0.00000000000E+00 0.  1.
<scales pt_clust_5="13000.00000" pt_clust_6="13000.00000" pt_clust_7="13000.00000" pt_clust_8="13000.00000" pt_clust_9="186.85817"></scales>
<clustering>
<clus scale="   80.913">  5  6 -1 -1</clus>
<clus scale="   97.771">  7  8 -1 -1</clus>
<clus scale="  128.915">  1  5  2 -1</clus>
<clus scale="  186.858">  2  9  1 -1</clus>
<clus scale="  186.858">  2  5  1 -1</clus>
</clustering>
</event>
<event>
 9    1  0.9171696E-005  0.1779342E+03  0.7546771E-02  0.1171100E+00
          3   -1    0    0  502    0 -0.00000000000E+00  0.00000000000E+00  0.37142966341E+03  0.37142966341E+03  0.00000000000E+00 0. -1.
         21   -1    0    0  501  502  0.00000000000E+00 -0.00000000000E+00 -0.16688010756E+03  0.16688010756E+03  0.00000000000E+00 0. -1.
        -24    2    1    2    0    0  0.76362140809E+02 -0.14947836879E+03  0.10028417444E+03  0.21125602547E+03  0.79982706703E+02 0.  0.
         23    2    1    2    0    0 -0.99626759152E+02  0.87057172940E+02 -0.42512818429E+02  0.16586600371E+03  0.90552465209E+02 0.  0.
         13    1    3    3    0    0 -0.86344785104E+00 -0.84515473423E+02  0.53446948532E+02  0.10000093548E+03  0.00000000000E+00 0. -1.
        -14    1    3    3    0    0  0.77225588660E+02 -0.64962895364E+02  0.46837225906E+02  0.11125508999E+03  0.00000000000E+00 0.  1.
        -13    1    4    4    0    0  0.10871985992E+02  0.18203785837E+02 -0.27622583727E+02  0.34822191631E+02  0.00000000000E+00 0.  1.
         13    1    4    4    0    0 -0.11049874514E+03  0.68853387103E+02 -0.14890234702E+02  0.13104381208E+03  0.00000000000E+00 0. -1.
          4    1    1    2  501    0  0.23264618342E+02  0.62421195848E+02  0.14677819983E+03  0.16118774179E+03  0.00000000000E+00 0. -1.
<scales pt_clust_5="13000.00000" pt_clust_6="13000.00000" pt_clust_7="13000.00000" pt_clust_8="13000.00000" pt_clust_9="66.61571"></scales>
<clustering>
<clus scale="   66.616">  2  9  1 -1</clus>
<clus scale="   79.983">  5  6 -1 -1</clus>
<clus scale="   90.552">  7  8 -1 -1</clus>
<clus scale="  172.795">  1  5  2 -1</clus>
<clus scale="   66.616">  2  5  1 -1</clus>
</clustering>
</event>
<event>
 9    1  0.9171696E-005  0.1238464E+03  0.7546771E-02  0.1241217E+00
         21   -1    0    0  501  502  0.00000000000E+00  0.00000000000E+00  0.30782339599E+03  0.30782339599E+03  0.00000000000E+00 0. -1.
          1   -1    0    0  502    0 -0.00000000000E+00 -0.00000000000E+00 -0.62522213318E+02  0.62522213318E+02  0.00000000000E+00 0. -1.
         23    2    1    2    0    0 -0.92841200452E+02 -0.25250555786E+02  0.85987185798E+02  0.15840054456E+03  0.91868696125E+02 0.  0.
        -24    2    1    2    0    0  0.68151534661E+02  0.19101894496E+02  0.89954600571E+02  0.13806603194E+03  0.77206767592E+02 0.  0.
         11    1    4    4    0    0  0.48563088892E+02  0.40425466821E+02  0.26887669673E+02  0.68669780478E+02  0.00000000000E+00 0. -1.
        -12    1    4    4    0    0  0.19588445770E+02 -0.21323572325E+02  0.63066930898E+02  0.69396251464E+02  0.00000000000E+00 0.  1.
        -11    1    3    3    0    0 -0.62776335906E+02  0.14513095753E+02  0.67475124608E+01  0.64784467448E+02  0.00000000000E+00 0.  1.
         11    1    3    3    0    0 -0.30064864545E+02 -0.39763651539E+02  0.79239673337E+02  0.93616077115E+02  0.00000000000E+00 0. -1.
          2    1    1    2  501    0  0.24689665790E+02  0.61486612904E+01  0.69359396302E+02  0.73879032802E+02  0.00000000000E+00 0. -1.
<scales pt_clust_5="13000.00000" pt_clust_6="13000.00000" pt_clust_7="13000.00000" pt_clust_8="13000.00000" pt_clust_9="25.44377"></scales>
<clustering>
<clus scale="   25.444">  1  9  2 -1</clus>
<clus scale="   77.207">  5  6 -1 -1</clus>
<clus scale="   91.869">  7  8 -1 -1</clus>
<clus scale="  113.397">  1  5  2 -1</clus>
<clus scale="   25.444">  1  5  2 -1</clus>
</clustering>
</event>
<event>
 9    1  0.9171696E-005  0.9144430E+02  0.7546771E-02  0.1302963E+00
         21   -1    0    0  501  502  0.00000000000E+00  0.00000000000E+00  0.10421903047E+03  0.10421903047E+03  0.00000000000E+00 0.  1.
          1   -1    0    0  502    0 -0.00000000000E+00 -0.00000000000E+00 -0.22871194801E+03  0.22871194801E+03  0.00000000000E+00 0. -1.
         23    2    1    2    0    0  0.10686902644E+02 -0.15103381173E+01 -0.47051998576E+02  0.10178617093E+03  0.89610507270E+02 0.  0.
        -24    2    1    2    0    0 -0.25460100671E+02 -0.43001342990E+02  0.39495484515E+02  0.10515409522E+03  0.83666948191E+02 0.  0.
         11    1    4    4    0    0 -0.53963512076E+02 -0.31109844930E+02  0.40423035305E+02  0.74255672312E+02  0.00000000000E+00 0. -1.
        -12    1    4    4    0    0  0.28503411405E+02 -0.11891498061E+02 -0.92755079041E+00  0.30898422910E+02  0.00000000000E+00 0.  1.
        -11    1    3    3    0    0 -0.38931343359E+02  0.76080960371E+01 -0.17894660012E+02  0.43517254946E+02  0.00000000000E+00 0. -1.
         11    1    3    3    0    0  0.49618246003E+02 -0.91184341544E+01 -0.29157338564E+02  0.58268915984E+02  0.00000000000E+00 0.  1.
          2    1    1    2  501    0  0.14773198027E+02  0.44511681108E+02 -0.11693640348E+03  0.12599071233E+03  0.00000000000E+00 0. -1.
<scales pt_clust_5="13000.00000" pt_clust_6="13000.00000" pt_clust_7="13000.00000" pt_clust_8="13000.00000" pt_clust_9="46.89925"></scales>
<clustering>
<clus scale="   46.899">  1  9  2 -1</clus>
<clus scale="   83.667">  5  6 -1 -1</clus>
<clus scale="   85.628">  1  5  2 -1</clus>
<clus scale="   89.611">  7  8 -1 -1</clus>
<clus scale="   46.899">  1  5  2 -1</clus>
</clustering>
</event>
<event>
 9    1  0.9171696E-005  0.9979856E+02  0.7546771E-02  0.1286124E+00
          1   -1    0    0  502    0 -0.00000000000E+00  0.00000000000E+00  0.30102479612E+03  0.30102479612E+03  0.00000000000E+00 0. -1.
         21   -1    0    0  501  502  0.00000000000E+00 -0.00000000000E+00 -0.36276244946E+03  0.36276244946E+03  0.00000000000E+00 0. -1.
         23    2    1    2    0    0  0.25872787549E+02 -0.31062770686E+02  0.23929274324E+03  0.25910651064E+03  0.90779237876E+02 0.  0.
        -24    2    1    2    0    0 -0.66426512187E+02 -0.39213216185E+00 -0.48524042892E+01  0.10408895426E+03  0.79989557333E+02 0.  0.
         13    1    4    4    0    0 -0.79889694666E+02 -0.14564668885E+02  0.65301114030E+01  0.81468615113E+02  0.00000000000E+00 0. -1.
        -14    1    4    4    0    0  0.13463182478E+02  0.14172536723E+02 -0.11382515692E+02  0.22620339146E+02  0.00000000000E+00 0.  1.
        -13    1    3    3    0    0  0.48206703809E+02 -0.85016475370E+01  0.21093138799E+03  0.21653686694E+03  0.00000000000E+00 0. -1.
         13    1    3    3    0    0 -0.22333916261E+02 -0.22561123149E+02  0.28361355249E+02  0.42569643701E+02  0.00000000000E+00 0.  1.
          2    1    1    2  501    0  0.40553724639E+02  0.31454902847E+02 -0.29617799230E+03  0.30059178068E+03  0.00000000000E+00 0. -1.
<scales pt_clust_5="13000.00000" pt_clust_6="13000.00000" pt_clust_7="13000.00000" pt_clust_8="13000.00000" pt_clust_9="51.32266"></scales>
<clustering>
<clus scale="   51.323">  2  9  1 -1</clus>
<clus scale="   79.990">  5  6 -1 -1</clus>
<clus scale="   90.096">  2  5  1 -1</clus>
<clus scale="   90.779">  7  8 -1 -1</clus>
<clus scale="   51.323">  2  5  1 -1</clus>
</clustering>
</event>
<event>
 9    1  0.9171696E-005  0.9586339E+02  0.7546771E-02  0.1295423E+00
          1   -1    0    0  502    0 -0.00000000000E+00  0.00000000000E+00  0.21704047716E+03  0.21704047716E+03  0.00000000000E+00 0. -1.
         21   -1    0    0  501  502  0.00000000000E+00 -0.00000000000E+00 -0.10109931011E+03  0.10109931011E+03  0.00000000000E+00 0. -1.
        -24    2    1    2    0    0 -0.12411729942E+02  0.46269308088E+02  0.10527896817E+03  0.14078324755E+03  0.80258094543E+02 0.  0.
         23    2    1    2    0    0  0.27209813225E+01  0.30235638005E+02 -0.12065276013E+02  0.96960921058E+02  0.91292123330E+02 0.  0.
         13    1    3    3    0    0  0.31086385114E+02  0.16689848944E+01  0.36958257764E+02  0.48322475796E+02  0.00000000000E+00 0. -1.
        -14    1    3    3    0    0 -0.43498115056E+02  0.44600323194E+02  0.68320710409E+02  0.92460771754E+02  0.00000000000E+00 0.  1.
        -13    1    4    4    0    0  0.17273468303E+01  0.59101952928E+02  0.10821247681E+02  0.60109266909E+02  0.00000000000E+00 0.  1.
         13    1    4    4    0    0  0.99363449216E+00 -0.28866314922E+02 -0.22886523694E+02  0.36851654149E+02  0.00000000000E+00 0. -1.
          2    1    1    2  501    0  0.96907486192E+01 -0.76504946093E+02  0.22727474895E+02  0.80395618666E+02  0.00000000000E+00 0. -1.
<scales pt_clust_5="13000.00000" pt_clust_6="13000.00000" pt_clust_7="13000.00000" pt_clust_8="13000.00000" pt_clust_9="77.11626"></scales>
<clustering>
<clus scale="   77.116">  2  9  1 -1</clus>
<clus scale="   80.258">  5  6 -1 -1</clus>
<clus scale="   85.422">  1  5  2 -1</clus>
<clus scale="   91.292">  7  8 -1 -1</clus>
<clus scale="   77.116">  2  5  1 -1</clus>
</clustering>
</event>
<event>
 9    1  0.9171696E-005  0.1303716E+03  0.7546771E-02  0.1228347E+00
         21   -1    0    0  501  502  0.00000000000E+00  0.00000000000E+00  0.20650367374E+03  0.20650367374E+03  0.00000000000E+00 0. -1.
          1   -1    0    0  502    0 -0.00000000000E+00 -0.00000000000E+00 -0.15922309330E+03  0.15922309330E+03  0.00000000000E+00 0. -1.
         23    2    1    2    0    0 -0.82611304853E+02 -0.30055360036E+02 -0.31212947737E+01  0.12365285884E+03  0.86904169414E+02 0.  0.
        -24    2    1    2    0    0  0.12197154895E+03  0.34727962037E+01  0.96883577099E+02  0.17561783155E+03  0.81031328383E+02 0.  0.
         11    1    4    4    0    0  0.81649342501E+02 -0.15599528590E+02  0.18085592051E+02  0.85070847315E+02  0.00000000000E+00 0. -1.
        -12    1    4    4    0    0  0.40322206446E+02  0.19072324794E+02  0.78797985048E+02  0.90546984231E+02  0.00000000000E+00 0.  1.
        -13    1    3    3    0    0 -0.21363179005E+02 -0.39301718148E+02 -0.32306984347E+02  0.55179268790E+02  0.00000000000E+00 0.  1.
         13    1    3    3    0    0 -0.61248125849E+02  0.92463581121E+01  0.29185689574E+02  0.68473590049E+02  0.00000000000E+00 0. -1.
          2    1    1    2  501    0 -0.39360244093E+02  0.26582563832E+02 -0.46481701885E+02  0.66456076660E+02  0.00000000000E+00 0. -1.
<scales pt_clust_5="13000.00000" pt_clust_6="13000.00000" pt_clust_7="13000.00000" pt_clust_8="13000.00000" pt_clust_9="47.49593"></scales>
<clustering>
<clus scale="   47.496">  1  9  2 -1</clus>
<clus scale="   81.031">  5  6 -1 -1</clus>
<clus scale="   86.904">  7  8 -1 -1</clus>
<clus scale="  126.533">  1  5  2 -1</clus>
<clus scale="   47.496">  1  5  2 -1</clus>
</clustering>
</event>
<event>
 9    1  0.9171696E-005  0.1194687E+03  0.7546771E-02  0.1247827E+00
         21   -1    0    0  501  502  0.00000000000E+00  0.00000000000E+00  0.62704406515E+03  0.62704406515E+03  0.00000000000E+00 0.  1.
         -2   -1    0    0    0  501 -0.00000000000E+00 -0.00000000000E+00 -0.36984201882E+02  0.36984201882E+02  0.00000000000E+00 0.  1.
        -24    2    1    2    0    0 -0.43260923100E+02  0.55436319703E+02  0.95983295940E+02  0.14348869846E+03  0.80196761018E+02 0.  0.
         23    2    1    2    0    0  0.49570355629E+02 -0.83992323478E+02  0.42001925288E+03  0.44091708359E+03  0.92085673447E+02 0.  0.
         11    1    3    3    0    0  0.13578274248E+02  0.23396509763E+02  0.66689183814E+02  0.71966752312E+02  0.00000000000E+00 0. -1.
        -12    1    3    3    0    0 -0.56839197347E+02  0.32039809940E+02  0.29294112126E+02  0.71521946152E+02  0.00000000000E+00 0.  1.
        -13    1    4    4    0    0 -0.58014975841E+01 -0.71084241855E+02  0.29623619295E+03  0.30470068728E+03  0.00000000000E+00 0.  1.
         13    1    4    4    0    0  0.55371853213E+02 -0.12908081623E+02  0.12378305993E+03  0.13621639631E+03  0.00000000000E+00 0. -1.
         -1    1    1    2    0  502 -0.63094325292E+01  0.28556003776E+02  0.74057314452E+02  0.79622484979E+02  0.00000000000E+00 0.  1.
<scales pt_clust_5="13000.00000" pt_clust_6="13000.00000" pt_clust_7="13000.00000" pt_clust_8="13000.00000" pt_clust_9="29.24473"></scales>
<clustering>
<clus scale="   29.245">  1  9  2 -1</clus>
<clus scale="   80.197">  5  6 -1 -1</clus>
<clus scale="   92.086">  7  8 -1 -1</clus>
<clus scale="  110.565">  2  5  1 -1</clus>
<clus scale="   29.245">  1  5  2 -1</clus>
</clustering>
</event>
<event>
 9    1  0.9171696E-005  0.1014780E+03  0.7546771E-02  0.1285444E+00
         21   -1    0    0  501  502  0.00000000000E+00  0.00000000000E+00  0.40523303379E+02  0.40523303379E+02  0.00000000000E+00 0. -1.
          1   -1    0    0  502    0 -0.00000000000E+00 -0.00000000000E+00 -0.59483133611E+03  0.59483133611E+03  0.00000000000E+00 0. -1.
        -24    2    1    2    0    0 -0.31561118154E+02 -0.48369732965E+02 -0.36318116024E+03  0.37516538770E+03  0.74248082322E+02 0.  0.
         23    2    1    2    0    0 -0.60991702241E+01  0.27666412842E+02 -0.19500578960E+03  0.21703869231E+03  0.90972005067E+02 0.  0.
         13    1    3    3    0    0 -0.53246471390E+02 -0.21412709575E+02 -0.26267219963E+03  0.26886869529E+03  0.00000000000E+00 0. -1.
        -14    1    3    3    0    0  0.21685353236E+02 -0.26957023390E+02 -0.10050896061E+03  0.10629669241E+03  0.00000000000E+00 0.  1.
        -13    1    4    4    0    0 -0.46505147325E+02  0.50356866164E+01 -0.12111331135E+03  0.12983266559E+03  0.00000000000E+00 0. -1.
         13    1    4    4    0    0  0.40405977101E+02  0.22630726225E+02 -0.73892478245E+02  0.87206026720E+02  0.00000000000E+00 0.  1.
          2    1    1    2  501    0  0.37660288378E+02  0.20703320124E+02  0.38789171146E+01  0.43150559473E+02  0.00000000000E+00 0. -1.
<scales pt_clust_5="13000.00000" pt_clust_6="13000.00000" pt_clust_7="13000.00000" pt_clust_8="13000.00000" pt_clust_9="42.97586"></scales>
<clustering>
<clus scale="   42.976">  1  9  2 -1</clus>
<clus scale="   74.248">  5  6 -1 -1</clus>
<clus scale="   86.802">  2  5  1 -1</clus>
<clus scale="   90.972">  7  8 -1 -1</clus>
<clus scale="   42.976">  1  5  2 -1</clus>
</clustering>
</event>
<event>
 9    1  0.9171696E-005  0.1431322E+03  0.7546771E-02  0.1218221E+00
         -2   -1    0    0    0  501 -0.00000000000E+00  0.00000000000E+00  0.15189518166E+03  0.15189518166E+03  0.00000000000E+00 0.  1.
         21   -1    0    0  501  502  0.00000000000E+00 -0.00000000000E+00 -0.25404472293E+03  0.25404472293E+03  0.00000000000E+00 0.  1.
        -24    2    1    2    0    0  0.88837278223E+00 -0.86111213275E+02 -0.62399635199E+02  0.13359992202E+03  0.80865904021E+02 0.  0.
         23    2    1    2    0    0 -0.11124949618E+03  0.30168573554E+02 -0.20366971179E+02  0.14710079277E+03  0.89091169533E+02 0.  0.
         11    1    3    3    0    0 -0.23186695068E+02 -0.12507073591E+02 -0.48110325670E+02  0.54851191000E+02  0.00000000000E+00 0. -1.
        -12    1    3    3    0    0  0.24075067850E+02 -0.73604139684E+02 -0.14289309528E+02  0.78748731021E+02  0.00000000000E+00 0.  1.
        -11    1    4    4    0    0 -0.90186924298E+02  0.60598100469E+01  0.22930484960E+02  0.93253470459E+02  0.00000000000E+00 0.  1.
         11    1    4    4    0    0 -0.21062571879E+02  0.24108763507E+02 -0.43297456139E+02  0.53847322311E+02  0.00000000000E+00 0. -1.
         -1    1    1    2    0  502  0.11036112340E+03  0.55942639722E+02 -0.19382934897E+02  0.12523918980E+03  0.00000000000E+00 0.  1.
<scales pt_clust_5="13000.00000" pt_clust_6="13000.00000" pt_clust_7="13000.00000" pt_clust_8="13000.00000" pt_clust_9="112.02507"></scales>
<clustering>
<clus scale="   80.866">  5  6 -1 -1</clus>
<clus scale="   89.091">  7  8 -1 -1</clus>
<clus scale="  118.132">  1  5  2 -1</clus>
<clus scale="  112.025">  2  9  1 -1</clus>
<clus scale="  112.025">  2  5  1 -1</clus>
</clustering>
</event>
<event>
 9    1  0.9171696E-005  0.1578188E+03  0.7546771E-02  0.1192781E+00
         21   -1    0    0  501  502  0.00000000000E+00  0.00000000000E+00  0.77694075754E+03  0.77694075754E+03  0.00000000000E+00 0. -1.
          1   -1    0    0  502    0 -0.00000000000E+00 -0.00000000000E+00 -0.67057289583E+02  0.67057289583E+02  0.00000000000E+00 0. -1.
         23    2    1    2    0    0  0.90504713123E+02  0.66935770624E+02  0.15151673442E+03  0.20876139122E+03  0.89176774836E+02 0.  0.
        -24    2    1    2    0    0 -0.17014259881E+03 -0.69965406830E+02  0.49314801216E+03  0.53225678821E+03  0.79111722343E+02 0.  0.
         13    1    4    4    0    0 -0.88228962677E+02 -0.60906318509E+02  0.19057846225E+03  0.21866430839E+03  0.00000000000E+00 0. -1.
        -14    1    4    4    0    0 -0.81913636130E+02 -0.90590883209E+01  0.30256954991E+03  0.31359247982E+03  0.00000000000E+00 0.  1.
        -11    1    3    3    0    0  0.39296114608E+02  0.59362419769E+02  0.13796781530E+03  0.15525205172E+03  0.00000000000E+00 0. -1.
         11    1    3    3    0    0  0.51208598515E+02  0.75733508550E+01  0.13548919120E+02  0.53509339506E+02  0.00000000000E+00 0.  1.
          2    1    1    2  501    0  0.79637885684E+02  0.30296362057E+01  0.65218721375E+02  0.10297986769E+03  0.00000000000E+00 0. -1.
<scales pt_clust_5="13000.00000" pt_clust_6="13000.00000" pt_clust_7="13000.00000" pt_clust_8="13000.00000" pt_clust_9="79.69553"></scales>
<clustering>
<clus scale="   79.112">  5  6 -1 -1</clus>
<clus scale="   79.696">  1  9  2 -1</clus>
<clus scale="   89.177">  7  8 -1 -1</clus>
<clus scale="  152.358">  1  5  2 -1</clus>
<clus scale="   79.696">  1  5  2 -1</clus>
</clustering>
</event>
<event>
 9    1  0.9171696E-005  0.1216916E+03  0.7546771E-02  0.1250265E+00
          1   -1    0    0  502    0 -0.00000000000E+00  0.00000000000E+00  0.46720759379E+02  0.46720759379E+02  0.00000000000E+00 0. -1.
         21   -1    0    0  501  502  0.00000000000E+00 -0.00000000000E+00 -0.46163733000E+03  0.46163733000E+03  0.00000000000E+00 0. -1.
        -24    2    1    2    0    0  0.36601640893E+02  0.55041240885E+02 -0.11914845405E+03  0.14850221410E+03  0.59053663520E+02 0.  0.
         23    2    1    2    0    0 -0.77321426357E+02 -0.80370421511E+02 -0.26823088734E+03  0.30455698457E+03  0.91483005548E+02 0.  0.
         11    1    3    3    0    0  0.15543085691E+02  0.37337027775E+02 -0.11340028046E+03  0.12039628219E+03  0.00000000000E+00 0. -1.
        -12    1    3    3    0    0  0.21058555201E+02  0.17704213110E+02 -0.57481735911E+01  0.28105931912E+02  0.00000000000E+00 0.  1.
        -11    1    4    4    0    0 -0.17609352365E+02  0.19450627159E+02 -0.69505762780E+02  0.74293117092E+02  0.00000000000E+00 0.  1.
         11    1    4    4    0    0 -0.59712073992E+02 -0.99821048670E+02 -0.19872512456E+03  0.23026386748E+03  0.00000000000E+00 0. -1.
          2    1    1    2  501    0  0.40719785464E+02  0.25329180625E+02 -0.27537229230E+02  0.55298890704E+02  0.00000000000E+00 0. -1.
<scales pt_clust_5="13000.00000" pt_clust_6="13000.00000" pt_clust_7="13000.00000" pt_clust_8="13000.00000" pt_clust_9="47.95488"></scales>
<clustering>
<clus scale="   47.955">  2  9  1 -1</clus>
<clus scale="   59.054">  5  6 -1 -1</clus>
<clus scale="   91.483">  7  8 -1 -1</clus>
<clus scale="   99.635">  1  5  2 -1</clus>
<clus scale="   47.955">  2  5  1 -1</clus>
</clustering>
</event>
<event>
 9    1  0.9171696E-005  0.1008645E+03  0.7546771E-02  0.1279784E+00
          1   -1    0    0  502    0 -0.00000000000E+00  0.00000000000E+00  0.35266667041E+03  0.35266667041E+03  0.00000000000E+00 0. -1.
         21   -1    0    0  501  502  0.00000000000E+00 -0.00000000000E+00 -0.19675441855E+03  0.19675441855E+03  0.00000000000E+00 0. -1.
         23    2    1    2    0    0 -0.21350004870E+02  0.60569450357E+02  0.26404089257E+03  0.28473544866E+03  0.85042352693E+02 0.  0.
        -24    2    1    2    0    0 -0.73229240513E+01 -0.32661979745E+02  0.49847744482E+02  0.10172091391E+03  0.82109174633E+02 0.  0.
         11    1    4    4    0    0 -0.30694973284E+02 -0.32798139248E+02 -0.18775047256E+01  0.44960252969E+02  0.00000000000E+00 0. -1.
        -12    1    4    4    0    0  0.23372049232E+02  0.13615950320E+00  0.51725249208E+02  0.56760660940E+02  0.00000000000E+00 0.  1.
        -11    1    3    3    0    0 -0.49830026747E+02  0.33434108827E+02  0.20643416194E+03  0.21497891621E+03  0.00000000000E+00 0. -1.
         11    1    3    3    0    0  0.28480021877E+02  0.27135341530E+02  0.57606730631E+02  0.69756532455E+02  0.00000000000E+00 0.  1.
          2    1    1    2  501    0  0.28672928921E+02 -0.27907470612E+02 -0.15797638519E+03  0.16296472639E+03  0.00000000000E+00 0. -1.
<scales pt_clust_5="13000.00000" pt_clust_6="13000.00000" pt_clust_7="13000.00000" pt_clust_8="13000.00000" pt_clust_9="40.01205"></scales>
<clustering>
<clus scale="   40.012">  2  9  1 -1</clus>
<clus scale="   82.109">  5  6 -1 -1</clus>
<clus scale="   85.042">  7  8 -1 -1</clus>
<clus scale="   98.404">  2  5  1 -1</clus>
<clus scale="   40.012">  2  5  1 -1</clus>
</clustering>
</event>
<event>
 9    1  0.9171696E-005  0.3256328E+03  0.7546771E-02  0.1073278E+00
         -4   -1    0    0    0  501 -0.00000000000E+00  0.00000000000E+00  0.11377618552E+04  0.11377618552E+04  0.00000000000E+00 0.  1.
         21   -1    0    0  501  502  0.00000000000E+00 -0.00000000000E+00 -0.20222487103E+03  0.20222487103E+03  0.00000000000E+00 0.  1.
         23    2    1    2    0    0  0.32247791072E+03 -0.18951302511E+02  0.44324451566E+03  0.55536425565E+03  0.87250220766E+02 0.  0.
        -24    2    1    2    0    0 -0.27598532922E+03 -0.22128495562E+03  0.33430962624E+03  0.49336039216E+03  0.80663602862E+02 0.  0.
         13    1    4    4    0    0 -0.18670912918E+02 -0.17363897996E+02  0.10193822244E+01  0.25517583798E+02  0.00000000000E+00 0. -1.
        -14    1    4    4    0    0 -0.25731441631E+03 -0.20392105763E+03  0.33329024401E+03  0.46784280836E+03  0.00000000000E+00 0.  1.
        -11    1    3    3    0    0  0.26113700152E+03 -0.47001074138E+02  0.32860413635E+03  0.42235330348E+03  0.00000000000E+00 0.  1.
         11    1    3    3    0    0  0.61340909203E+02  0.28049771627E+02  0.11464037931E+03  0.13301095217E+03  0.00000000000E+00 0. -1.
         -3    1    1    2    0  502 -0.46492581497E+02  0.24023625813E+03  0.15798284223E+03  0.29126207837E+03  0.00000000000E+00 0.  1.
<scales pt_clust_5="13000.00000" pt_clust_6="13000.00000" pt_clust_7="13000.00000" pt_clust_8="13000.00000" pt_clust_9="244.69373"></scales>
<clustering>
<clus scale="   80.664">  5  6 -1 -1</clus>
<clus scale="   87.250">  7  8 -1 -1</clus>
<clus scale="  244.694">  2  9  1 -1</clus>
<clus scale="  323.930">  2  5  1 -1</clus>
<clus scale="  244.694">  2  5  1 -1</clus>
</clustering>
</event>
<event>
 9    1  0.9171696E-005  0.9650635E+02  0.7546771E-02  0.1310886E+00
          1   -1    0    0  502    0 -0.00000000000E+00  0.00000000000E+00  0.16597586320E+03  0.16597586320E+03  0.00000000000E+00 0. -1.
         21   -1    0    0  501  502  0.00000000000E+00 -0.00000000000E+00 -0.10532970387E+03  0.10532970387E+03  0.00000000000E+00 0. -1.
         23    2    1    2    0    0 -0.19999004262E+02  0.24264663086E+02  0.97441117147E+02  0.13758679331E+03  0.91905496768E+02 0.  0.
        -24    2    1    2    0    0  0.45698257875E+02  0.21473340592E+02 -0.29303098868E+02  0.80723070472E+02  0.55750402457E+02 0.  0.
         13    1    4    4    0    0  0.46697193023E+02  0.32832936147E+01 -0.38226677598E+02  0.60437461341E+02  0.00000000000E+00 0. -1.
        -14    1    4    4    0    0 -0.99893514773E+00  0.18190046977E+02  0.89235787304E+01  0.20285609131E+02  0.00000000000E+00 0.  1.
        -11    1    3    3    0    0  0.26499164939E+02  0.17285391057E+02  0.26183465070E+01  0.31746593910E+02  0.00000000000E+00 0. -1.
         11    1    3    3    0    0 -0.46498169201E+02  0.69792720293E+01  0.94822770640E+02  0.10584019940E+03  0.00000000000E+00 0.  1.
          2    1    1    2  501    0 -0.25699253613E+02 -0.45738003678E+02 -0.74918589427E+01  0.52995703289E+02  0.00000000000E+00 0. -1.
<scales pt_clust_5="13000.00000" pt_clust_6="13000.00000" pt_clust_7="13000.00000" pt_clust_8="13000.00000" pt_clust_9="52.46348"></scales>
<clustering>
<clus scale="   52.463">  2  9  1 -1</clus>
<clus scale="   55.750">  5  6 -1 -1</clus>
<clus scale="   63.047">  2  5  1 -1</clus>
<clus scale="   91.905">  7  8 -1 -1</clus>
<clus scale="   52.463">  2  5  1 -1</clus>
</clustering>
</event>
<event>
 9    1  0.9171696E-005  0.1413229E+03  0.7546771E-02  0.1218892E+00
          1   -1    0    0  502    0 -0.00000000000E+00  0.00000000000E+00  0.24523301157E+03  0.24523301157E+03  0.00000000000E+00 0. -1.
         21   -1    0    0  501  502  0.00000000000E+00 -0.00000000000E+00 -0.16841149338E+03  0.16841149338E+03  0.00000000000E+00 0. -1.
         23    2    1    2    0    0 -0.81754773762E+02  0.76356067194E+02  0.16513218468E+03  0.22537441272E+03  0.10493281404E+03 0.  0.
        -24    2    1    2    0    0  0.19073324513E+02 -0.58985487686E+02 -0.33409358374E+02  0.10315337974E+03  0.75374764081E+02 0.  0.
         13    1    4    4    0    0  0.23334320271E+02 -0.12600334999E+02 -0.47574758993E+02  0.54466656202E+02  0.00000000000E+00 0. -1.
        -14    1    4    4    0    0 -0.42609957586E+01 -0.46385152687E+02  0.14165400618E+02  0.48686723543E+02  0.00000000000E+00 0.  1.
        -11    1    3    3    0    0 -0.95565745955E+02  0.91889843309E+02  0.14161114339E+03  0.19398523407E+03  0.00000000000E+00 0. -1.
         11    1    3    3    0    0  0.13810972193E+02 -0.15533776115E+02  0.23521041283E+02  0.31389178650E+02  0.00000000000E+00 0.  1.
          2    1    1    2  501    0  0.62681449249E+02 -0.17370579508E+02 -0.54901308108E+02  0.85116712486E+02  0.00000000000E+00 0. -1.
<scales pt_clust_5="13000.00000" pt_clust_6="13000.00000" pt_clust_7="13000.00000" pt_clust_8="13000.00000" pt_clust_9="65.04384"></scales>
<clustering>
<clus scale="   65.044">  2  9  1 -1</clus>
<clus scale="   75.375">  5  6 -1 -1</clus>
<clus scale="  104.933">  7  8 -1 -1</clus>
<clus scale="  121.007">  2  5  1 -1</clus>
<clus scale="   65.044">  2  5  1 -1</clus>
</clustering>
</event>
<event>
 9    1  0.9171696E-005  0.1011125E+03  0.7546771E-02  0.1282476E+00
         21   -1    0    0  501  502  0.00000000000E+00  0.00000000000E+00  0.33074742029E+02  0.33074742029E+02  0.00000000000E+00 0. -1.
          1   -1    0    0  502    0 -0.00000000000E+00 -0.00000000000E+00 -0.90477373540E+03  0.90477373540E+03  0.00000000000E+00 0. -1.
         23    2    1    2    0    0  0.39754516881E+02  0.28622351320E+02 -0.57044205950E+03  0.57973384451E+03  0.91035853445E+02 0.  0.
        -24    2    1    2    0    0 -0.47916796934E+02  0.20772037527E+02 -0.29136667728E+03  0.30708282283E+03  0.81717944634E+02 0.  0.
         11    1    4    4    0    0 -0.63039184029E+02  0.27836872342E+02 -0.15411823507E+03  0.16882316360E+03  0.00000000000E+00 0. -1.
        -12    1    4    4    0    0  0.15122387095E+02 -0.70648348142E+01 -0.13724844221E+03  0.13825965923E+03  0.00000000000E+00 0.  1.
        -11    1    3    3    0    0 -0.27704367447E+02 -0.30663555603E+01 -0.12227827469E+03  0.12541495514E+03  0.00000000000E+00 0.  1.
         11    1    3    3    0    0  0.67458884328E+02  0.31688706880E+02 -0.44816378481E+03  0.45431888937E+03  0.00000000000E+00 0. -1.
          2    1    1    2  501    0  0.81622800536E+01 -0.49394388847E+02 -0.98902565810E+01  0.51031810084E+02  0.00000000000E+00 0. -1.
<scales pt_clust_5="13000.00000" pt_clust_6="13000.00000" pt_clust_7="13000.00000" pt_clust_8="13000.00000" pt_clust_9="50.06424"></scales>
<clustering>
<clus scale="   50.064">  1  9  2 -1</clus>
<clus scale="   81.718">  5  6 -1 -1</clus>
<clus scale="   91.036">  7  8 -1 -1</clus>
<clus scale="   92.812">  1  5  2 -1</clus>
<clus scale="   50.064">  1  5  2 -1</clus>
</clustering>
</event>
<event>
 9    1  0.9171696E-005  0.1106734E+03  0.7546771E-02  0.1262874E+00
         21   -1    0    0  501  502  0.00000000000E+00  0.00000000000E+00  0.12957526756E+03  0.12957526756E+03  0.00000000000E+00 0. -1.
          1   -1    0    0  502    0 -0.00000000000E+00 -0.00000000000E+00 -0.23882505110E+03  0.23882505110E+03  0.00000000000E+00 0. -1.
         23    2    1    2    0    0  0.11157676279E+02  0.57040752045E+02 -0.12240581223E+03  0.16283761046E+03  0.90303728482E+02 0.  0.
        -24    2    1    2    0    0 -0.31412781524E+02 -0.67527688917E+02 -0.62490587312E+02  0.12655223013E+03  0.81016305974E+02 0.  0.
         11    1    4    4    0    0  0.15939260206E+02 -0.59746705319E+02 -0.31167654322E+02  0.69247032343E+02  0.00000000000E+00 0. -1.
        -12    1    4    4    0    0 -0.47352041731E+02 -0.77809835983E+01 -0.31322932990E+02  0.57305197783E+02  0.00000000000E+00 0.  1.
        -11    1    3    3    0    0 -0.97107920589E+00  0.79581521648E+02 -0.77144223967E+02  0.11083949149E+03  0.00000000000E+00 0.  1.
         11    1    3    3    0    0  0.12128755485E+02 -0.22540769603E+02 -0.45261588261E+02  0.51998118964E+02  0.00000000000E+00 0. -1.
          2    1    1    2  501    0  0.20255105245E+02  0.10486936872E+02  0.75646616007E+02  0.79010478082E+02  0.00000000000E+00 0. -1.
<scales pt_clust_5="13000.00000" pt_clust_6="13000.00000" pt_clust_7="13000.00000" pt_clust_8="13000.00000" pt_clust_9="22.80888"></scales>
<clustering>
<clus scale="   22.809">  1  9  2 -1</clus>
<clus scale="   81.016">  5  6 -1 -1</clus>
<clus scale="   90.304">  7  8 -1 -1</clus>
<clus scale="  103.235">  1  5  2 -1</clus>
<clus scale="   22.809">  1  5  2 -1</clus>
</clustering>
</event>
<event>
 9    1  0.9171696E-005  0.1247161E+03  0.7546771E-02  0.1257106E+00
         -4   -1    0    0    0  501 -0.00000000000E+00  0.00000000000E+00  0.22742237995E+03  0.22742237995E+03  0.00000000000E+00 0.  1.
         21   -1    0    0  501  502  0.00000000000E+00 -0.00000000000E+00 -0.14524372332E+03  0.14524372332E+03  0.00000000000E+00 0.  1.
        -24    2    1    2    0    0  0.10551942471E+02  0.10554848418E+02  0.12828621251E+03  0.15161320863E+03  0.79413250766E+02 0.  0.
         23    2    1    2    0    0  0.71048694464E+01  0.78872324730E+02 -0.47180008653E+02  0.12989296670E+03  0.91514516903E+02 0.  0.
         13    1    3    3    0    0 -0.25676092726E+01 -0.30756605527E+02  0.25407235429E+02  0.39976105527E+02  0.00000000000E+00 0. -1.
        -14    1    3    3    0    0  0.13119551743E+02  0.41311453946E+02  0.10287897708E+03  0.11163710311E+03  0.00000000000E+00 0.  1.
        -13    1    4    4    0    0 -0.17181268083E+02  0.72751416376E+02 -0.65076320806E+02  0.99110504425E+02  0.00000000000E+00 0.  1.
         13    1    4    4    0    0  0.24286137530E+02  0.61209083539E+01  0.17896312153E+02  0.30782462277E+02  0.00000000000E+00 0. -1.
         -3    1    1    2    0  502 -0.17656811917E+02 -0.89427173148E+02  0.10724527735E+01  0.91159927925E+02  0.00000000000E+00 0.  1.
<scales pt_clust_5="13000.00000" pt_clust_6="13000.00000" pt_clust_7="13000.00000" pt_clust_8="13000.00000" pt_clust_9="84.73016"></scales>
<clustering>
<clus scale="   79.413">  5  6 -1 -1</clus>
<clus scale="   80.804">  1  5  2 -1</clus>
<clus scale="   84.730">  2  9  1 -1</clus>
<clus scale="   91.515">  7  8 -1 -1</clus>
<clus scale="   84.730">  2  5  1 -1</clus>
</clustering>
</event>
<event>
 9    1  0.9171696E-005  0.2028259E+03  0.7546771E-02  0.1149007E+00
         21   -1    0    0  501  502  0.00000000000E+00  0.00000000000E+00  0.71304745033E+02  0.71304745033E+02  0.00000000000E+00 0. -1.
          1   -1    0    0  502    0 -0.00000000000E+00 -0.00000000000E+00 -0.15321554308E+04  0.15321554308E+04  0.00000000000E+00 0. -1.
        -24    2    1    2    0    0  0.21870304354E+03  0.48486571026E+02 -0.53729137002E+03  0.58693582528E+03  0.75031179369E+02 0.  0.
         23    2    1    2    0    0 -0.12568850099E+03  0.12210451860E+03 -0.27281278844E+03  0.33738955701E+03  0.93261904897E+02 0.  0.
         11    1    3    3    0    0  0.12495243246E+03  0.32894049087E+02 -0.39688923128E+03  0.41739213068E+03  0.00000000000E+00 0. -1.
        -12    1    3    3    0    0  0.93750611078E+02  0.15592521939E+02 -0.14040213874E+03  0.16954369460E+03  0.00000000000E+00 0.  1.
        -13    1    4    4    0    0 -0.63353736046E+02  0.23861035847E+01 -0.93024613165E+02  0.11257427777E+03  0.00000000000E+00 0.  1.
         13    1    4    4    0    0 -0.62334764947E+02  0.11971841501E+03 -0.17978817527E+03  0.22481527924E+03  0.00000000000E+00 0. -1.
          2    1    1    2  501    0 -0.93014542545E+02 -0.17059108962E+03 -0.65074652729E+03  0.67913479351E+03  0.00000000000E+00 0. -1.
<scales pt_clust_5="13000.00000" pt_clust_6="13000.00000" pt_clust_7="13000.00000" pt_clust_8="13000.00000" pt_clust_9="194.30147"></scales>
<clustering>
<clus scale="   75.031">  5  6 -1 -1</clus>
<clus scale="   93.262">  7  8 -1 -1</clus>
<clus scale="  194.301">  1  9  2 -1</clus>
<clus scale="  195.116">  2  5  1 -1</clus>
<clus scale="  194.301">  1  5  2 -1</clus>
</clustering>
</event>
<event>
 9    1  0.9171696E-005  0.1130435E+03  0.7546771E-02  0.1259436E+00
         21   -1    0    0  501  502  0.00000000000E+00  0.00000000000E+00  0.13456252365E+03  0.13456252365E+03  0.00000000000E+00 0. -1.
          1   -1    0    0  502    0 -0.00000000000E+00 -0.00000000000E+00 -0.15222515088E+03  0.15222515088E+03  0.00000000000E+00 0. -1.
         23    2    1    2    0    0 -0.50555772132E+02  0.17245364355E+02 -0.45016928025E+02  0.11414583808E+03  0.90274358793E+02 0.  0.
        -24    2    1    2    0    0  0.89060164303E+02 -0.39888760732E+02  0.12936599797E+02  0.12570377388E+03  0.78174529449E+02 0.  0.
         11    1    4    4    0    0  0.66672603399E+02  0.27652230168E+01 -0.17162083156E+02  0.68901521033E+02  0.00000000000E+00 0. -1.
        -12    1    4    4    0    0  0.22387560903E+02 -0.42653983749E+02  0.30098682953E+02  0.56802252846E+02  0.00000000000E+00 0.  1.
        -13    1    3    3    0    0 -0.23458473269E+01 -0.25726001200E+02  0.11546904232E+02  0.28295956156E+02  0.00000000000E+00 0.  1.
         13    1    3    3    0    0 -0.48209924805E+02  0.42971365555E+02 -0.56563832257E+02  0.85849881928E+02  0.00000000000E+00 0. -1.
          2    1    1    2  501    0 -0.38504392170E+02  0.22643396376E+02  0.14417700993E+02  0.46938062570E+02  0.00000000000E+00 0. -1.
<scales pt_clust_5="13000.00000" pt_clust_6="13000.00000" pt_clust_7="13000.00000" pt_clust_8="13000.00000" pt_clust_9="44.66891"></scales>
<clustering>
<clus scale="   44.669">  1  9  2 -1</clus>
<clus scale="   78.175">  5  6 -1 -1</clus>
<clus scale="   90.274">  7  8 -1 -1</clus>
<clus scale="  103.637">  1  5  2 -1</clus>
<clus scale="   44.669">  1  5  2 -1</clus>
</clustering>
</event>
<event>
 9    1  0.9171696E-005  0.1026614E+03  0.7546771E-02  0.1279220E+00
         21   -1    0    0  501  502  0.00000000000E+00  0.00000000000E+00  0.20306946174E+03  0.20306946174E+03  0.00000000000E+00 0.  1.
          1   -1    0    0  502    0 -0.00000000000E+00 -0.00000000000E+00 -0.99112703407E+02  0.99112703407E+02  0.00000000000E+00 0. -1.
         23    2    1    2    0    0  0.27513603306E+02 -0.41164903526E+02  0.71679189415E+02  0.12524031612E+03  0.89976013124E+02 0.  0.
        -24    2    1    2    0    0 -0.57535853155E+02  0.88099931647E+01  0.67898376001E+02  0.12022309016E+03  0.80345575893E+02 0.  0.
         13    1    4    4    0    0 -0.76887579573E+02  0.98891923624E+00  0.61282866349E+02  0.98327349002E+02  0.00000000000E+00 0. -1.
        -14    1    4    4    0    0  0.19351726418E+02  0.78210739285E+01  0.66155096513E+01  0.21895741155E+02  0.00000000000E+00 0.  1.
        -11    1    3    3    0    0  0.29160173894E+02 -0.10139201459E+02 -0.14149917544E+02  0.33960849729E+02  0.00000000000E+00 0. -1.
         11    1    3    3    0    0 -0.16465705880E+01 -0.31025702067E+02  0.85829106960E+02  0.91279466393E+02  0.00000000000E+00 0.  1.
          2    1    1    2  501    0  0.30022249848E+02  0.32354910362E+02 -0.35620807082E+02  0.56718758869E+02  0.00000000000E+00 0. -1.
<scales pt_clust_5="13000.00000" pt_clust_6="13000.00000" pt_clust_7="13000.00000" pt_clust_8="13000.00000" pt_clust_9="44.13817"></scales>
<clustering>
<clus scale="   44.138">  1  9  2 -1</clus>
<clus scale="   80.346">  5  6 -1 -1</clus>
<clus scale="   89.976">  7  8 -1 -1</clus>
<clus scale="   94.335">  1  5  2 -1</clus>
<clus scale="   44.138">  1  5  2 -1</clus>
</clustering>
</event>
<event>
 9    1  0.9171696E-005  0.1669468E+03  0.7546771E-02  0.1209219E+00
         21   -1    0    0  501  502  0.00000000000E+00  0.00000000000E+00  0.22583682033E+03  0.22583682033E+03  0.00000000000E+00 0. -1.
          1   -1    0    0  502    0 -0.00000000000E+00 -0.00000000000E+00 -0.18367109648E+03  0.18367109648E+03  0.00000000000E+00 0. -1.
        -24    2    1    2    0    0  0.15934358272E+01 -0.37461579789E+02  0.44214373354E+01  0.90225458366E+02  0.81946172768E+02 0.  0.
         23    2    1    2    0    0 -0.87995061022E+02 -0.93507552450E+02  0.40694026277E+02  0.16235299849E+03  0.90640494344E+02 0.  0.
         11    1    3    3    0    0  0.60442379276E+01 -0.55998447378E+02  0.25480586849E+02  0.61819246412E+02  0.00000000000E+00 0. -1.
        -12    1    3    3    0    0 -0.44508021004E+01  0.18536867589E+02 -0.21059149513E+02  0.28406211954E+02  0.00000000000E+00 0.  1.
        -13    1    4    4    0    0 -0.48820452081E+02 -0.57344887217E+02  0.68868086021E+02  0.10205236844E+03  0.00000000000E+00 0.  1.
         13    1    4    4    0    0 -0.39174608942E+02 -0.36162665233E+02 -0.28174059744E+02  0.60300630054E+02  0.00000000000E+00 0. -1.
          2    1    1    2  501    0  0.86401625195E+02  0.13096913224E+03 -0.29497397698E+01  0.15692945995E+03  0.00000000000E+00 0. -1.
<scales pt_clust_5="13000.00000" pt_clust_6="13000.00000" pt_clust_7="13000.00000" pt_clust_8="13000.00000" pt_clust_9="140.19828"></scales>
<clustering>
<clus scale="   81.946">  5  6 -1 -1</clus>
<clus scale="   90.117">  2  5  1 -1</clus>
<clus scale="   90.640">  7  8 -1 -1</clus>
<clus scale="  140.198">  1  9  2 -1</clus>
<clus scale="  140.198">  1  5  2 -1</clus>
</clustering>
</event>
<event>
 9    1  0.9171696E-005  0.9932502E+02  0.7546771E-02  0.1284165E+00
          3   -1    0    0  502    0 -0.00000000000E+00  0.00000000000E+00  0.30307713206E+03  0.30307713206E+03  0.00000000000E+00 0. -1.
         21   -1    0    0  501  502  0.00000000000E+00 -0.00000000000E+00 -0.12381847720E+03  0.12381847720E+03  0.00000000000E+00 0.  1.
        -24    2    1    2    0    0  0.38730250903E+02 -0.87872956307E+01  0.25542098528E+03  0.27227118640E+03  0.85524676698E+02 0.  0.
         23    2    1    2    0    0 -0.57199201281E+02 -0.10040157515E+02 -0.54737301403E+02  0.12064491449E+03  0.90479112712E+02 0.  0.
         13    1    3    3    0    0  0.58669626619E+02  0.15490959581E+02  0.13863489497E+03  0.15133317224E+03  0.00000000000E+00 0. -1.
        -14    1    3    3    0    0 -0.19939375717E+02 -0.24278255212E+02  0.11678609031E+03  0.12093801416E+03  0.00000000000E+00 0.  1.
        -13    1    4    4    0    0 -0.71446866165E+02 -0.31284616259E+02 -0.26100877204E+02  0.82247417528E+02  0.00000000000E+00 0.  1.
         13    1    4    4    0    0  0.14247664884E+02  0.21244458745E+02 -0.28636424199E+02  0.38397496961E+02  0.00000000000E+00 0. -1.
          4    1    1    2  501    0  0.18468950379E+02  0.18827453145E+02 -0.21425029026E+02  0.33979508366E+02  0.00000000000E+00 0. -1.
<scales pt_clust_5="13000.00000" pt_clust_6="13000.00000" pt_clust_7="13000.00000" pt_clust_8="13000.00000" pt_clust_9="26.37376"></scales>
<clustering>
<clus scale="   26.374">  2  9  1 -1</clus>
<clus scale="   85.525">  5  6 -1 -1</clus>
<clus scale="   90.479">  7  8 -1 -1</clus>
<clus scale="   94.834">  1  5  2 -1</clus>
<clus scale="   26.374">  2  5  1 -1</clus>
</clustering>
</event>
<event>
 9    1  0.9171696E-005  0.1054792E+03  0.7546771E-02  0.1275061E+00
          1   -1    0    0  502    0 -0.00000000000E+00  0.00000000000E+00  0.87467728518E+03  0.87467728518E+03  0.00000000000E+00 0. -1.
         21   -1    0    0  501  502  0.00000000000E+00 -0.00000000000E+00 -0.24307688519E+02  0.24307688519E+02  0.00000000000E+00 0.  1.
         23    2    1    2    0    0  0.40063538323E+02 -0.11626636752E+02  0.31975072715E+03  0.33515531148E+03  0.91368974568E+02 0.  0.
        -24    2    1    2    0    0 -0.67987024660E+02 -0.52519823543E+02  0.26804120110E+03  0.29209169762E+03  0.78044262722E+02 0.  0.
         11    1    4    4    0    0 -0.72127618483E+02 -0.16449556281E+02  0.21840327735E+03  0.23059265558E+03  0.00000000000E+00 0. -1.
        -12    1    4    4    0    0  0.41405938235E+01 -0.36070267263E+02  0.49637923750E+02  0.61499042040E+02  0.00000000000E+00 0.  1.
        -13    1    3    3    0    0 -0.79036810246E+01 -0.37110319331E+02  0.20130100975E+03  0.20484565043E+03  0.00000000000E+00 0.  1.
         13    1    3    3    0    0  0.47967219348E+02  0.25483682578E+02  0.11844971740E+03  0.13030966105E+03  0.00000000000E+00 0. -1.
          2    1    1    2  501    0  0.27923486336E+02  0.64146460296E+02  0.26257766841E+03  0.27173796460E+03  0.00000000000E+00 0. -1.
<scales pt_clust_5="13000.00000" pt_clust_6="13000.00000" pt_clust_7="13000.00000" pt_clust_8="13000.00000" pt_clust_9="69.96066"></scales>
<clustering>
<clus scale="   69.961">  2  9  1 -1</clus>
<clus scale="   78.044">  5  6 -1 -1</clus>
<clus scale="   91.369">  7  8 -1 -1</clus>
<clus scale="   94.173">  2  5  1 -1</clus>
<clus scale="   69.961">  2  5  1 -1</clus>
</clustering>
</event>
<event>
 9    1  0.9171696E-005  0.1055240E+03  0.7546771E-02  0.1272350E+00
         21   -1    0    0  501  502  0.00000000000E+00  0.00000000000E+00  0.25338835814E+03  0.25338835814E+03  0.00000000000E+00 0.  1.
          1   -1    0    0  502    0 -0.00000000000E+00 -0.00000000000E+00 -0.13100288052E+03  0.13100288052E+03  0.00000000000E+00 0. -1.
        -24    2    1    2    0    0  0.54694254196E+02 -0.11572973268E+01 -0.63121125099E+02  0.11508485171E+03  0.79167202051E+02 0.  0.
         23    2    1    2    0    0 -0.97174361386E+02 -0.18672321028E+02  0.17851087427E+03  0.22190687758E+03  0.87092008836E+02 0.  0.
         13    1    3    3    0    0  0.33149123360E+02 -0.39756119598E+02 -0.38265720636E+02  0.64371412916E+02  0.00000000000E+00 0. -1.
        -14    1    3    3    0    0  0.21545130836E+02  0.38598822271E+02 -0.24855404462E+02  0.50713438795E+02  0.00000000000E+00 0.  1.
        -11    1    4    4    0    0 -0.76163822349E+02 -0.49893378102E+02  0.10256818989E+03  0.13715141483E+03  0.00000000000E+00 0.  1.
         11    1    4    4    0    0 -0.21010539037E+02  0.31221057074E+02  0.75942684379E+02  0.84755462751E+02  0.00000000000E+00 0. -1.
          2    1    1    2  501    0  0.42480107190E+02  0.19829618355E+02  0.69957284483E+01  0.47399509359E+02  0.00000000000E+00 0. -1.
<scales pt_clust_5="13000.00000" pt_clust_6="13000.00000" pt_clust_7="13000.00000" pt_clust_8="13000.00000" pt_clust_9="46.88044"></scales>
<clustering>
<clus scale="   46.880">  1  9  2 -1</clus>
<clus scale="   79.167">  5  6 -1 -1</clus>
<clus scale="   87.092">  7  8 -1 -1</clus>
<clus scale="   99.085">  2  5  1 -1</clus>
<clus scale="   46.880">  1  5  2 -1</clus>
</clustering>
</event>
<event>
 9    1  0.9171696E-005  0.1325079E+03  0.7546771E-02  0.1226497E+00
          3   -1    0    0  502    0 -0.00000000000E+00  0.00000000000E+00  0.11808364080E+04  0.11808364080E+04  0.00000000000E+00 0. -1.
         21   -1    0    0  501  502  0.00000000000E+00 -0.00000000000E+00 -0.19776389052E+02  0.19776389052E+02  0.00000000000E+00 0. -1.
         23    2    1    2    0    0  0.59606474888E+02 -0.62197095587E+02  0.67067567082E+03  0.68273394580E+03  0.94331197271E+02 0.  0.
        -24    2    1    2    0    0 -0.55266117188E+02  0.92105100429E+02  0.40593398761E+03  0.42818386337E+03  0.83793348911E+02 0.  0.
         11    1    4    4    0    0 -0.74712635043E+02  0.89288652780E+02  0.33971252375E+03  0.35910867456E+03  0.00000000000E+00 0. -1.
        -12    1    4    4    0    0  0.19446517854E+02  0.28164476490E+01  0.66221463863E+02  0.69075188818E+02  0.00000000000E+00 0.  1.
        -13    1    3    3    0    0  0.57392501131E+02 -0.86150816460E+02  0.52962412612E+03  0.53964578876E+03  0.00000000000E+00 0. -1.
         13    1    3    3    0    0  0.22139737569E+01  0.23953720873E+02  0.14105154470E+03  0.14308815704E+03  0.00000000000E+00 0.  1.
          4    1    1    2  501    0 -0.43403576992E+01 -0.29908004841E+02  0.84450360567E+02  0.89694987922E+02  0.00000000000E+00 0. -1.
<scales pt_clust_5="13000.00000" pt_clust_6="13000.00000" pt_clust_7="13000.00000" pt_clust_8="13000.00000" pt_clust_9="30.22131"></scales>
<clustering>
<clus scale="   30.221">  2  9  1 -1</clus>
<clus scale="   83.793">  5  6 -1 -1</clus>
<clus scale="   94.331">  7  8 -1 -1</clus>
<clus scale="  125.225">  2  5  1 -1</clus>
<clus scale="   30.221">  2  5  1 -1</clus>
</clustering>
</event>
<event>
 9    1  0.9171696E-005  0.1576976E+03  0.7546771E-02  0.1194099E+00
          1   -1    0    0  502    0 -0.00000000000E+00  0.00000000000E+00  0.76032611068E+03  0.76032611068E+03  0.00000000000E+00 0. -1.
         21   -1    0    0  501  502  0.00000000000E+00 -0.00000000000E+00 -0.63940034165E+02  0.63940034165E+02  0.00000000000E+00 0.  1.
         23    2    1    2    0    0 -0.44949331792E+02  0.12713203404E+03  0.52620061497E+03  0.55125135778E+03  0.93850816448E+02 0.  0.
        -24    2    1    2    0    0  0.32513264007E+02 -0.10810163116E+03  0.19577520171E+03  0.23878546021E+03  0.77119980608E+02 0.  0.
         13    1    4    4    0    0  0.28392255027E+02 -0.11234901090E+03  0.20025263903E+03  0.23136451723E+03  0.00000000000E+00 0. -1.
        -14    1    4    4    0    0  0.41210089801E+01  0.42473797431E+01 -0.44774373226E+01  0.74209429774E+01  0.00000000000E+00 0.  1.
        -13    1    3    3    0    0 -0.67881753369E+02  0.12202896877E+03  0.47088657998E+03  0.49115493774E+03  0.00000000000E+00 0.  1.
         13    1    3    3    0    0  0.22932421577E+02  0.51030652668E+01  0.55314034997E+02  0.60096420045E+02  0.00000000000E+00 0. -1.
          2    1    1    2  501    0  0.12436067785E+02 -0.19030402875E+02 -0.25589740162E+02  0.34229326857E+02  0.00000000000E+00 0. -1.
<scales pt_clust_5="13000.00000" pt_clust_6="13000.00000" pt_clust_7="13000.00000" pt_clust_8="13000.00000" pt_clust_9="22.73350"></scales>
<clustering>
<clus scale="   22.733">  2  9  1 -1</clus>
<clus scale="   77.120">  5  6 -1 -1</clus>
<clus scale="   93.851">  7  8 -1 -1</clus>
<clus scale="  148.351">  2  5  1 -1</clus>
<clus scale="   22.733">  2  5  1 -1</clus>
</clustering>
</event>
<event>
 9    1  0.9171696E-005  0.9199789E+02  0.7546771E-02  0.1306495E+00
         21   -1    0    0  501  502  0.00000000000E+00  0.00000000000E+00  0.43950937514E+02  0.43950937514E+02  0.00000000000E+00 0.  1.
          1   -1    0    0  502    0 -0.00000000000E+00 -0.00000000000E+00 -0.37636813977E+03  0.37636813977E+03  0.00000000000E+00 0. -1.
         23    2    1    2    0    0  0.51906862630E+01  0.16637253102E+02 -0.25073022255E+03  0.26744520094E+03  0.91419634615E+02 0.  0.
        -24    2    1    2    0    0 -0.12421637226E+02  0.22874351097E+02 -0.30567705745E+02  0.87861310720E+02  0.78151726004E+02 0.  0.
         13    1    4    4    0    0  0.17228236264E+02 -0.22290532438E+02 -0.77982026706E+01  0.29231693862E+02  0.00000000000E+00 0. -1.
        -14    1    4    4    0    0 -0.29649873490E+02  0.45164883535E+02 -0.22769503074E+02  0.58629616858E+02  0.00000000000E+00 0.  1.
        -11    1    3    3    0    0  0.24017968422E+02 -0.28084688152E+02 -0.16352998329E+03  0.16765341616E+03  0.00000000000E+00 0.  1.
         11    1    3    3    0    0 -0.18827282159E+02  0.44721941254E+02 -0.87200239261E+02  0.99791784783E+02  0.00000000000E+00 0. -1.
          2    1    1    2  501    0  0.72309509628E+01 -0.39511604199E+02 -0.51119273957E+02  0.65012565617E+02  0.00000000000E+00 0. -1.
<scales pt_clust_5="13000.00000" pt_clust_6="13000.00000" pt_clust_7="13000.00000" pt_clust_8="13000.00000" pt_clust_9="40.16782"></scales>
<clustering>
<clus scale="   40.168">  1  9  2 -1</clus>
<clus scale="   78.152">  5  6 -1 -1</clus>
<clus scale="   78.827">  1  5  2 -1</clus>
<clus scale="   91.420">  7  8 -1 -1</clus>
<clus scale="   40.168">  1  5  2 -1</clus>
</clustering>
</event>
<event>
 9    1  0.9171696E-005  0.1045064E+03  0.7546771E-02  0.1276718E+00
         -2   -1    0    0    0  501 -0.00000000000E+00  0.00000000000E+00  0.38654697091E+03  0.38654697091E+03  0.00000000000E+00 0.  1.
         21   -1    0    0  501  502  0.00000000000E+00 -0.00000000000E+00 -0.20021189277E+03  0.20021189277E+03  0.00000000000E+00 0.  1.
        -24    2    1    2    0    0  0.31196727661E+02 -0.81048610814E+01  0.15601990423E+03  0.17780246473E+03  0.78946699484E+02 0.  0.
         23    2    1    2    0    0 -0.63263162304E+02  0.57080529229E+02  0.19644038952E+03  0.23281878353E+03  0.91407575240E+02 0.  0.
         11    1    3    3    0    0 -0.48811742952E+01 -0.23801288319E+02  0.94931989980E+01  0.26085398509E+02  0.00000000000E+00 0. -1.
        -12    1    3    3    0    0  0.36077901957E+02  0.15696427238E+02  0.14652670523E+03  0.15171706623E+03  0.00000000000E+00 0.  1.
        -11    1    4    4    0    0  0.22570076282E+02  0.13402795899E+01  0.36633920552E+02  0.43049376625E+02  0.00000000000E+00 0.  1.
         11    1    4    4    0    0 -0.85833238586E+02  0.55740249639E+02  0.15980646896E+03  0.18976940691E+03  0.00000000000E+00 0. -1.
         -1    1    1    2    0  502  0.32066434643E+02 -0.48975668147E+02 -0.16612521561E+03  0.17613761541E+03  0.00000000000E+00 0.  1.
<scales pt_clust_5="13000.00000" pt_clust_6="13000.00000" pt_clust_7="13000.00000" pt_clust_8="13000.00000" pt_clust_9="58.53949"></scales>
<clustering>
<clus scale="   58.539">  2  9  1 -1</clus>
<clus scale="   78.947">  5  6 -1 -1</clus>
<clus scale="   91.408">  7  8 -1 -1</clus>
<clus scale="   93.802">  1  5  2 -1</clus>
<clus scale="   58.539">  2  5  1 -1</clus>
</clustering>
</event>
<event>
 9    1  0.9171696E-005  0.1182930E+03  0.7546771E-02  0.1249588E+00
         21   -1    0    0  501  502  0.00000000000E+00  0.00000000000E+00  0.11999098454E+03  0.11999098454E+03  0.00000000000E+00 0.  1.
          1   -1    0    0  502    0 -0.00000000000E+00 -0.00000000000E+00 -0.26345601217E+03  0.26345601217E+03  0.00000000000E+00 0. -1.
         23    2    1    2    0    0  0.69629503017E+02 -0.17591835459E+02 -0.19201398093E+03  0.22488077241E+03  0.92435126238E+02 0.  0.
        -24    2    1    2    0    0 -0.86643065453E+02 -0.76437297207E+01  0.29927476890E+02  0.12288633584E+03  0.81485889999E+02 0.  0.
         11    1    4    4    0    0 -0.59958867346E+02  0.19645016415E+02 -0.14066205819E+02  0.64644029805E+02  0.00000000000E+00 0. -1.
        -12    1    4    4    0    0 -0.26684198107E+02 -0.27288746136E+02  0.43993682709E+02  0.58242306038E+02  0.00000000000E+00 0.  1.
        -13    1    3    3    0    0 -0.14644422130E+02  0.15690630011E+02 -0.67903917747E+02  0.71215145966E+02  0.00000000000E+00 0.  1.
         13    1    3    3    0    0  0.84273925147E+02 -0.33282465470E+02 -0.12411006319E+03  0.15366562645E+03  0.00000000000E+00 0. -1.
          2    1    1    2  501    0  0.17013562436E+02  0.25235565180E+02  0.18621476411E+02  0.35679888459E+02  0.00000000000E+00 0. -1.
<scales pt_clust_5="13000.00000" pt_clust_6="13000.00000" pt_clust_7="13000.00000" pt_clust_8="13000.00000" pt_clust_9="30.43510"></scales>
<clustering>
<clus scale="   30.435">  1  9  2 -1</clus>
<clus scale="   81.486">  5  6 -1 -1</clus>
<clus scale="   92.435">  7  8 -1 -1</clus>
<clus scale="  109.950">  1  5  2 -1</clus>
<clus scale="   30.435">  1  5  2 -1</clus>
</clustering>
</event>
<event>
 9    1  0.9171696E-005  0.1427848E+03  0.7546771E-02  0.1211813E+00
         21   -1    0    0  501  502  0.00000000000E+00  0.00000000000E+00  0.28464000823E+02  0.28464000823E+02  0.00000000000E+00 0. -1.
          1   -1    0    0  502    0 -0.00000000000E+00 -0.00000000000E+00 -0.10375944024E+04  0.10375944024E+04  0.00000000000E+00 0. -1.
         23    2    1    2    0    0 -0.87447954038E+02 -0.76127855246E+02 -0.73176965768E+03  0.74645721300E+03  0.90933733693E+02 0.  0.
        -24    2    1    2    0    0  0.63846090972E+02  0.70195528254E+02 -0.17683834726E+03  0.21617492340E+03  0.80349616843E+02 0.  0.
         13    1    4    4    0    0  0.38095362798E+02  0.58290267192E+02 -0.48801933271E+02  0.85033173568E+02  0.00000000000E+00 0. -1.
        -14    1    4    4    0    0  0.25750728174E+02  0.11905261062E+02 -0.12803641399E+03  0.13114174983E+03  0.00000000000E+00 0.  1.
        -11    1    3    3    0    0 -0.10838526370E+02 -0.66670064844E+02 -0.27254451738E+03  0.28078975258E+03  0.00000000000E+00 0.  1.
         11    1    3    3    0    0 -0.76609427668E+02 -0.94577904027E+01 -0.45922514030E+03  0.46566746041E+03  0.00000000000E+00 0. -1.
          2    1    1    2  501    0  0.23601863066E+02  0.59323269927E+01 -0.10052239669E+03  0.10342626688E+03  0.00000000000E+00 0. -1.
<scales pt_clust_5="13000.00000" pt_clust_6="13000.00000" pt_clust_7="13000.00000" pt_clust_8="13000.00000" pt_clust_9="24.33600"></scales>
<clustering>
<clus scale="   24.336">  1  9  2 -1</clus>
<clus scale="   80.350">  5  6 -1 -1</clus>
<clus scale="   90.934">  7  8 -1 -1</clus>
<clus scale="  136.289">  1  5  2 -1</clus>
<clus scale="   24.336">  1  5  2 -1</clus>
</clustering>
</event>
<event>
 9    1  0.9171696E-005  0.9744850E+02  0.7546771E-02  0.1292272E+00
         21   -1    0    0  501  502  0.00000000000E+00  0.00000000000E+00  0.41328806421E+02  0.41328806421E+02  0.00000000000E+00 0.  1.
          3   -1    0    0  502    0 -0.00000000000E+00 -0.00000000000E+00 -0.68238295504E+03  0.68238295504E+03  0.00000000000E+00 0. -1.
         23    2    1    2    0    0 -0.11787382250E+01  0.33416701747E+02 -0.45743941973E+03  0.46752414631E+03  0.90608715235E+02 0.  0.
        -24    2    1    2    0    0 -0.40022476939E+01 -0.53126827525E+02 -0.27454962015E+02  0.98703633546E+02  0.78422921053E+02 0.  0.
         13    1    4    4    0    0 -0.41087138422E+02 -0.32356228703E+02 -0.14638880939E+02  0.54308151458E+02  0.00000000000E+00 0. -1.
        -14    1    4    4    0    0  0.37084890728E+02 -0.20770598821E+02 -0.12816081076E+02  0.44395482088E+02  0.00000000000E+00 0.  1.
        -13    1    3    3    0    0  0.59660058692E+01 -0.30935899202E+02 -0.16832831798E+03  0.17125141085E+03  0.00000000000E+00 0.  1.
         13    1    3    3    0    0 -0.71447440941E+01  0.64352600949E+02 -0.28911110176E+03  0.29627273546E+03  0.00000000000E+00 0. -1.
          4    1    1    2  501    0  0.51809859189E+01  0.19710125777E+02 -0.15615976687E+03  0.15748398160E+03  0.00000000000E+00 0. -1.
<scales pt_clust_5="13000.00000" pt_clust_6="13000.00000" pt_clust_7="13000.00000" pt_clust_8="13000.00000" pt_clust_9="20.37970"></scales>
<clustering>
<clus scale="   20.380">  1  9  2 -1</clus>
<clus scale="   78.423">  5  6 -1 -1</clus>
<clus scale="   86.235">  1  5  2 -1</clus>
<clus scale="   90.609">  7  8 -1 -1</clus>
<clus scale="   20.380">  1  5  2 -1</clus>
</clustering>
</event>
<event>
 9    1  0.9171696E-005  0.1091438E+03  0.7546771E-02  0.1269683E+00
         21   -1    0    0  501  502  0.00000000000E+00  0.00000000000E+00  0.70523017923E+02  0.70523017923E+02  0.00000000000E+00 0. -1.
          1   -1    0    0  502    0 -0.00000000000E+00 -0.00000000000E+00 -0.30698672160E+03  0.30698672160E+03  0.00000000000E+00 0. -1.
         23    2    1    2    0    0 -0.71443151430E+02 -0.17768805404E+02 -0.19605063843E+03  0.22857036098E+03  0.91589861640E+02 0.  0.
        -24    2    1    2    0    0  0.17002308432E+02  0.25098725678E+02  0.23742587291E+01  0.79309728177E+02  0.73248695254E+02 0.  0.
         11    1    4    4    0    0  0.45750980951E+02  0.10344391381E+02 -0.41037507286E-01  0.46905867172E+02  0.00000000000E+00 0. -1.
        -12    1    4    4    0    0 -0.28748672519E+02  0.14754334297E+02  0.24152962364E+01  0.32403861006E+02  0.00000000000E+00 0.  1.
        -11    1    3    3    0    0 -0.21848582255E+02 -0.51919032280E+02 -0.80195825503E+02  0.98001616759E+02  0.00000000000E+00 0. -1.
         11    1    3    3    0    0 -0.49594569175E+02  0.34150226876E+02 -0.11585481293E+03  0.13056874422E+03  0.00000000000E+00 0.  1.
          2    1    1    2  501    0  0.54440842998E+02 -0.73299202738E+01 -0.42787323971E+02  0.69629650366E+02  0.00000000000E+00 0. -1.
<scales pt_clust_5="13000.00000" pt_clust_6="13000.00000" pt_clust_7="13000.00000" pt_clust_8="13000.00000" pt_clust_9="54.93208"></scales>
<clustering>
<clus scale="   54.932">  1  9  2 -1</clus>
<clus scale="   73.249">  5  6 -1 -1</clus>
<clus scale="   91.590">  7  8 -1 -1</clus>
<clus scale="   94.282">  1  5  2 -1</clus>
<clus scale="   54.932">  1  5  2 -1</clus>
</clustering>
</event>
<event>
 9    1  0.9171696E-005  0.1361661E+03  0.7546771E-02  0.1238791E+00
         21   -1    0    0  501  502  0.00000000000E+00  0.00000000000E+00  0.51780861478E+03  0.51780861478E+03  0.00000000000E+00 0. -1.
          1   -1    0    0  502    0 -0.00000000000E+00 -0.00000000000E+00 -0.11727747167E+03  0.11727747167E+03  0.00000000000E+00 0. -1.
        -24    2    1    2    0    0  0.39587425867E+02  0.96083476003E+01 -0.40676487456E+02  0.98425222205E+02  0.79833972117E+02 0.  0.
         23    2    1    2    0    0  0.27143321934E+02  0.73329064770E+02  0.47290685640E+02  0.12861409416E+03  0.90505605360E+02 0.  0.
         11    1    3    3    0    0  0.49344768508E+02  0.12207418038E+02 -0.58770770193E+02  0.77704122564E+02  0.00000000000E+00 0. -1.
        -12    1    3    3    0    0 -0.97573426408E+01 -0.25990704382E+01  0.18094282738E+02  0.20721099641E+02  0.00000000000E+00 0.  1.
        -13    1    4    4    0    0 -0.31413794642E+02  0.36334137508E+02  0.71544321915E+01  0.48561115537E+02  0.00000000000E+00 0.  1.
         13    1    4    4    0    0  0.58557116576E+02  0.36994927263E+02  0.40136253448E+02  0.80052978619E+02  0.00000000000E+00 0. -1.
          2    1    1    2  501    0 -0.66730747801E+02 -0.82937412371E+02  0.39391694493E+03  0.40804677008E+03  0.00000000000E+00 0. -1.
<scales pt_clust_5="13000.00000" pt_clust_6="13000.00000" pt_clust_7="13000.00000" pt_clust_8="13000.00000" pt_clust_9="101.73470"></scales>
<clustering>
<clus scale="   79.834">  5  6 -1 -1</clus>
<clus scale="   89.627">  2  5  1 -1</clus>
<clus scale="   90.506">  7  8 -1 -1</clus>
<clus scale="  101.735">  1  9  2 -1</clus>
<clus scale="  101.735">  1  5  2 -1</clus>
</clustering>
</event>
<event>
 9    1  0.9171696E-005  0.1657193E+03  0.7546771E-02  0.1206185E+00
         21   -1    0    0  501  502  0.00000000000E+00  0.00000000000E+00  0.49431280030E+02  0.49431280030E+02  0.00000000000E+00 0.  1.
          3   -1    0    0  502    0 -0.00000000000E+00 -0.00000000000E+00 -0.11821593532E+04  0.11821593532E+04  0.00000000000E+00 0. -1.
         23    2    1    2    0    0 -0.58969979113E+01 -0.36886434941E+02 -0.65865753828E+02  0.11834846139E+03  0.90954258394E+02 0.  0.
        -24    2    1    2    0    0  0.38673463471E+02 -0.11797219970E+03 -0.66770415040E+03  0.68384406140E+03  0.80004944619E+02 0.  0.
         11    1    4    4    0    0 -0.81436824664E+00 -0.10540139799E+03 -0.51062505493E+03  0.52139051067E+03  0.00000000000E+00 0. -1.
        -12    1    4    4    0    0  0.39487831718E+02 -0.12570801711E+02 -0.15707909547E+03  0.16245355073E+03  0.00000000000E+00 0.  1.
        -11    1    3    3    0    0  0.15843549715E+02 -0.26908871246E+02  0.14550181157E+02  0.34450155167E+02  0.00000000000E+00 0.  1.
         11    1    3    3    0    0 -0.21740547627E+02 -0.99775636952E+01 -0.80415934984E+02  0.83898306227E+02  0.00000000000E+00 0. -1.
          4    1    1    2  501    0 -0.32776465560E+02  0.15485863464E+03 -0.39915816892E+03  0.42939811042E+03  0.00000000000E+00 0. -1.
<scales pt_clust_5="13000.00000" pt_clust_6="13000.00000" pt_clust_7="13000.00000" pt_clust_8="13000.00000" pt_clust_9="145.12784"></scales>
<clustering>
<clus scale="   80.005">  5  6 -1 -1</clus>
<clus scale="   90.954">  7  8 -1 -1</clus>
<clus scale="   98.326">  2  7  1 -1</clus>
<clus scale="  145.128">  1  9  2 -1</clus>
<clus scale="  145.128">  1  5  2 -1</clus>
</clustering>
</event>
<event>
 9    1  0.9171696E-005  0.1043652E+03  0.7546771E-02  0.1275782E+00
         -4   -1    0    0    0  501 -0.00000000000E+00  0.00000000000E+00  0.27897981494E+03  0.27897981494E+03  0.00000000000E+00 0.  1.
         21   -1    0    0  501  502  0.00000000000E+00 -0.00000000000E+00 -0.19582116455E+03  0.19582116455E+03  0.00000000000E+00 0.  1.
         23    2    1    2    0    0 -0.39243761079E+02  0.36930435822E+02  0.24179888601E+03  0.26364418090E+03  0.90208774386E+02 0.  0.
        -24    2    1    2    0    0  0.50728483872E+02 -0.21644835522E+01 -0.79088965797E+02  0.12358411549E+03  0.80249018848E+02 0.  0.
         13    1    4    4    0    0  0.76691556399E+00 -0.29752931759E+02 -0.51897790276E+01  0.30211900206E+02  0.00000000000E+00 0. -1.
        -14    1    4    4    0    0  0.49961568308E+02  0.27588448206E+02 -0.73899186769E+02  0.93372215286E+02  0.00000000000E+00 0.  1.
        -11    1    3    3    0    0 -0.49780864556E+02  0.67541944574E+01  0.21821272338E+03  0.22392084821E+03  0.00000000000E+00 0. -1.
         11    1    3    3    0    0  0.10537103477E+02  0.30176241364E+02  0.23586162623E+02  0.39723332688E+02  0.00000000000E+00 0.  1.
         -3    1    1    2    0  502 -0.11484722793E+02 -0.34765952269E+02 -0.79551269818E+02  0.87572683095E+02  0.00000000000E+00 0.  1.
<scales pt_clust_5="13000.00000" pt_clust_6="13000.00000" pt_clust_7="13000.00000" pt_clust_8="13000.00000" pt_clust_9="36.61380"></scales>
<clustering>
<clus scale="   36.614">  2  9  1 -1</clus>
<clus scale="   80.249">  5  6 -1 -1</clus>
<clus scale="   90.209">  7  8 -1 -1</clus>
<clus scale="   95.887">  2  5  1 -1</clus>
<clus scale="   36.614">  2  5  1 -1</clus>
</clustering>
</event>
<event>
 9    1  0.9171696E-005  0.1879423E+03  0.7546771E-02  0.1183483E+00
         21   -1    0    0  501  502  0.00000000000E+00  0.00000000000E+00  0.18075345299E+03  0.18075345299E+03  0.00000000000E+00 0. -1.
         -2   -1    0    0    0  501 -0.00000000000E+00 -0.00000000000E+00 -0.32131421526E+03  0.32131421526E+03  0.00000000000E+00 0.  1.
         23    2    1    2    0    0  0.41165212228E+02  0.40157401784E+02  0.66909741061E+00  0.11086141216E+03  0.94776650067E+02 0.  0.
        -24    2    1    2    0    0  0.14511275341E+03 -0.61578219657E+02 -0.60892134287E+02  0.18721487872E+03  0.80572764985E+02 0.  0.
         11    1    4    4    0    0  0.10561539665E+03 -0.17740753617E+02 -0.70360103753E+01  0.10732591388E+03  0.00000000000E+00 0. -1.
        -12    1    4    4    0    0  0.39497356756E+02 -0.43837466040E+02 -0.53856123911E+02  0.79888964834E+02  0.00000000000E+00 0.  1.
        -11    1    3    3    0    0  0.19995282457E+02 -0.86029811917E+00 -0.42930843382E+02  0.47366747269E+02  0.00000000000E+00 0.  1.
         11    1    3    3    0    0  0.21169929771E+02  0.41017699903E+02  0.43599940793E+02  0.63494664886E+02  0.00000000000E+00 0. -1.
         -1    1    1    2    0  502 -0.18627796563E+03  0.21420817873E+02 -0.80337725395E+02  0.20399137737E+03  0.00000000000E+00 0.  1.
<scales pt_clust_5="13000.00000" pt_clust_6="13000.00000" pt_clust_7="13000.00000" pt_clust_8="13000.00000" pt_clust_9="169.79506"></scales>
<clustering>
<clus scale="   80.573">  5  6 -1 -1</clus>
<clus scale="   94.777">  7  8 -1 -1</clus>
<clus scale="  110.859">  2  7  1 -1</clus>
<clus scale="  169.795">  1  9  2 -1</clus>
<clus scale="  169.795">  1  5  2 -1</clus>
</clustering>
</event>
<event>
 9    1  0.9171696E-005  0.1985360E+03  0.7546771E-02  0.1152205E+00
          1   -1    0    0  502    0 -0.00000000000E+00  0.00000000000E+00  0.22353302402E+03  0.22353302402E+03  0.00000000000E+00 0. -1.
         21   -1    0    0  501  502  0.00000000000E+00 -0.00000000000E+00 -0.74531400350E+03  0.74531400350E+03  0.00000000000E+00 0. -1.
         23    2    1    2    0    0  0.37189233857E+02  0.18340421592E+03  0.96829579571E+02  0.23061140430E+03  0.93731034245E+02 0.  0.
        -24    2    1    2    0    0 -0.16510465951E+03 -0.50272730053E+02 -0.44784542082E+03  0.48674589961E+03  0.81050316866E+02 0.  0.
         13    1    4    4    0    0 -0.14184580335E+03 -0.57653397427E+02 -0.29911168549E+03  0.33602372916E+03  0.00000000000E+00 0. -1.
        -14    1    4    4    0    0 -0.23258856155E+02  0.73806673735E+01 -0.14873373533E+03  0.15072217046E+03  0.00000000000E+00 0.  1.
        -11    1    3    3    0    0  0.42142733152E+02  0.40698304079E+02  0.90944564858E+00  0.58593421166E+02  0.00000000000E+00 0.  1.
         11    1    3    3    0    0 -0.49534992958E+01  0.14270591184E+03  0.95920133922E+02  0.17201798313E+03  0.00000000000E+00 0. -1.
          2    1    1    2  501    0  0.12791542565E+03 -0.13313148586E+03 -0.17076513823E+03  0.25148972361E+03  0.00000000000E+00 0. -1.
<scales pt_clust_5="13000.00000" pt_clust_6="13000.00000" pt_clust_7="13000.00000" pt_clust_8="13000.00000" pt_clust_9="184.62489"></scales>
<clustering>
<clus scale="   81.050">  5  6 -1 -1</clus>
<clus scale="   93.731">  7  8 -1 -1</clus>
<clus scale="  184.625">  2  9  1 -1</clus>
<clus scale="  192.873">  2  5  1 -1</clus>
<clus scale="  184.625">  2  5  1 -1</clus>
</clustering>
</event>
<event>
 9    1  0.9171696E-005  0.1580356E+03  0.7546771E-02  0.1192659E+00
         21   -1    0    0  501  502  0.00000000000E+00  0.00000000000E+00  0.46330741839E+02  0.46330741839E+02  0.00000000000E+00 0. -1.
          1   -1    0    0  502    0 -0.00000000000E+00 -0.00000000000E+00 -0.11984313360E+04  0.11984313360E+04  0.00000000000E+00 0. -1.
        -24    2    1    2    0    0 -0.43193606915E+02 -0.17397091712E+03 -0.77084081764E+03  0.79533007104E+03  0.78884650492E+02 0.  0.
         23    2    1    2    0    0 -0.18861022007E+02  0.75859908744E+02 -0.22776584716E+03  0.25698218663E+03  0.89733489881E+02 0.  0.
         13    1    3    3    0    0 -0.30594289269E+02 -0.16508040458E+03 -0.57844622751E+03  0.60231851095E+03  0.00000000000E+00 0. -1.
        -14    1    3    3    0    0 -0.12599317647E+02 -0.88905125398E+01 -0.19239459012E+03  0.19301156009E+03  0.00000000000E+00 0.  1.
        -13    1    4    4    0    0  0.14900247595E+02  0.43921221097E+02 -0.19417942862E+03  0.19964153260E+03  0.00000000000E+00 0. -1.
         13    1    4    4    0    0 -0.33761269602E+02  0.31938687647E+02 -0.33586418540E+02  0.57340654025E+02  0.00000000000E+00 0.  1.
          2    1    1    2  501    0  0.62054628922E+02  0.98111008374E+02 -0.15349392940E+03  0.19244982020E+03  0.00000000000E+00 0. -1.
<scales pt_clust_5="13000.00000" pt_clust_6="13000.00000" pt_clust_7="13000.00000" pt_clust_8="13000.00000" pt_clust_9="116.08853"></scales>
<clustering>
<clus scale="   78.885">  5  6 -1 -1</clus>
<clus scale="   89.733">  7  8 -1 -1</clus>
<clus scale="  116.089">  1  9  2 -1</clus>
<clus scale="  152.138">  2  5  1 -1</clus>
<clus scale="  116.089">  1  5  2 -1</clus>
</clustering>
</event>
<event>
 9    1  0.9171696E-005  0.9208360E+02  0.7546771E-02  0.1305763E+00
         21   -1    0    0  501  502  0.00000000000E+00  0.00000000000E+00  0.38398352395E+03  0.38398352395E+03  0.00000000000E+00 0.  1.
         -2   -1    0    0    0  501 -0.00000000000E+00 -0.00000000000E+00 -0.10478426500E+03  0.10478426500E+03  0.00000000000E+00 0.  1.
        -24    2    1    2    0    0  0.56235696499E+00  0.48422703711E+01 -0.54798703092E+02  0.96459896198E+02  0.79232883870E+02 0.  0.
         23    2    1    2    0    0 -0.53121078378E+02 -0.43374467918E+02  0.29479232481E+03  0.31625375786E+03  0.91710038461E+02 0.  0.
         11    1    3    3    0    0 -0.16849533061E+02  0.25748667293E+02 -0.61207820678E+02  0.68507648798E+02  0.00000000000E+00 0. -1.
        -12    1    3    3    0    0  0.17411890026E+02 -0.20906396921E+02  0.64091175857E+01  0.27952247401E+02  0.00000000000E+00 0.  1.
        -13    1    4    4    0    0 -0.75245846004E+02 -0.36429204976E+02  0.26841347881E+03  0.28113132149E+03  0.00000000000E+00 0.  1.
         13    1    4    4    0    0  0.22124767625E+02 -0.69452629411E+01  0.26378846000E+02  0.35122436363E+02  0.00000000000E+00 0. -1.
         -1    1    1    2    0  502  0.52558721413E+02  0.38532197547E+02  0.39205637221E+02  0.76054134893E+02  0.00000000000E+00 0.  1.
<scales pt_clust_5="13000.00000" pt_clust_6="13000.00000" pt_clust_7="13000.00000" pt_clust_8="13000.00000" pt_clust_9="65.17019"></scales>
<clustering>
<clus scale="   65.170">  1  9  2 -1</clus>
<clus scale="   79.233">  5  6 -1 -1</clus>
<clus scale="   79.665">  2  5  1 -1</clus>
<clus scale="   91.710">  7  8 -1 -1</clus>
<clus scale="   65.170">  1  5  2 -1</clus>
</clustering>
</event>
<event>
 9    1  0.9171696E-005  0.1043536E+03  0.7546771E-02  0.1273663E+00
         21   -1    0    0  501  502  0.00000000000E+00  0.00000000000E+00  0.11852821088E+03  0.11852821088E+03  0.00000000000E+00 0.  1.
         -2   -1    0    0    0  501 -0.00000000000E+00 -0.00000000000E+00 -0.23574360282E+03  0.23574360282E+03  0.00000000000E+00 0.  1.
        -24    2    1    2    0    0 -0.25073970124E+02 -0.48926645185E+02 -0.17051007395E+03  0.19920885640E+03  0.87108912074E+02 0.  0.
         23    2    1    2    0    0  0.57273207261E+01  0.28384150265E+02  0.21471563438E+01  0.96647579846E+02  0.92182873793E+02 0.  0.
         13    1    3    3    0    0 -0.14907081519E+02  0.21143562353E+02 -0.81293711032E+02  0.85310836134E+02  0.00000000000E+00 0. -1.
        -14    1    3    3    0    0 -0.10166888604E+02 -0.70070207538E+02 -0.89216362923E+02  0.11389802027E+03  0.00000000000E+00 0.  1.
        -11    1    4    4    0    0 -0.35521047731E+02  0.26001370058E+02 -0.21555000113E+02  0.49014631558E+02  0.00000000000E+00 0.  1.
         11    1    4    4    0    0  0.41248368458E+02  0.23827802067E+01  0.23702156457E+02  0.47632948288E+02  0.00000000000E+00 0. -1.
         -1    1    1    2    0  502  0.19346649398E+02  0.20542494920E+02  0.51147525671E+02  0.58415377451E+02  0.00000000000E+00 0.  1.
<scales pt_clust_5="13000.00000" pt_clust_6="13000.00000" pt_clust_7="13000.00000" pt_clust_8="13000.00000" pt_clust_9="28.21856"></scales>
<clustering>
<clus scale="   28.219">  1  9  2 -1</clus>
<clus scale="   87.109">  5  6 -1 -1</clus>
<clus scale="   92.183">  7  8 -1 -1</clus>
<clus scale="   99.900">  2  5  1 -1</clus>
<clus scale="   28.219">  1  5  2 -1</clus>
</clustering>
</event>
<event>
 9    1  0.9171696E-005  0.2893569E+03  0.7546771E-02  0.1091123E+00
         21   -1    0    0  501  502  0.00000000000E+00  0.00000000000E+00  0.90348190442E+02  0.90348190442E+02  0.00000000000E+00 0. -1.
          1   -1    0    0  502    0 -0.00000000000E+00 -0.00000000000E+00 -0.11391043172E+04  0.11391043172E+04  0.00000000000E+00 0. -1.
         23    2    1    2    0    0 -0.12827286295E+03  0.23490439159E+03 -0.64509251412E+03  0.70433017255E+03  0.91118821532E+02 0.  0.
        -24    2    1    2    0    0  0.15231461282E+03 -0.24532482450E+03 -0.32421468710E+03  0.44146396475E+03  0.79945344098E+02 0.  0.
         13    1    4    4    0    0  0.15345666293E+03 -0.23314413052E+03 -0.27909092846E+03  0.39471113405E+03  0.00000000000E+00 0. -1.
        -14    1    4    4    0    0 -0.11420501167E+01 -0.12180693987E+02 -0.45123758640E+02  0.46752830698E+02  0.00000000000E+00 0.  1.
        -13    1    3    3    0    0 -0.12656382483E+03  0.20304957167E+03 -0.61720343705E+03  0.66195741028E+03  0.00000000000E+00 0. -1.
         13    1    3    3    0    0 -0.17090381254E+01  0.31854819917E+02 -0.27889077067E+02  0.42372762276E+02  0.00000000000E+00 0.  1.
          2    1    1    2  501    0 -0.24041749864E+02  0.10420432914E+02 -0.79448925511E+02  0.83658370314E+02  0.00000000000E+00 0. -1.
<scales pt_clust_5="13000.00000" pt_clust_6="13000.00000" pt_clust_7="13000.00000" pt_clust_8="13000.00000" pt_clust_9="26.20290"></scales>
<clustering>
<clus scale="   26.203">  1  9  2 -1</clus>
<clus scale="   79.945">  5  6 -1 -1</clus>
<clus scale="   91.119">  7  8 -1 -1</clus>
<clus scale="  286.035">  1  5  2 -1</clus>
<clus scale="   26.203">  1  5  2 -1</clus>
</clustering>
</event>
<event>
 9    1  0.9171696E-005  0.1288288E+03  0.7546771E-02  0.1232006E+00
         21   -1    0    0  501  502  0.00000000000E+00  0.00000000000E+00  0.65769007626E+02  0.65769007626E+02  0.00000000000E+00 0.  1.
         -2   -1    0    0    0  501 -0.00000000000E+00 -0.00000000000E+00 -0.54424069782E+03  0.54424069782E+03  0.00000000000E+00 0.  1.
        -24    2    1    2    0    0  0.93533692486E+02 -0.29477179185E+02 -0.19180720581E+03  0.23004122993E+03  0.80693912672E+02 0.  0.
         23    2    1    2    0    0 -0.54646193036E+02  0.63859503692E+02 -0.43696121448E+02  0.13151725850E+03  0.91231549522E+02 0.  0.
         11    1    3    3    0    0  0.25983832791E+02  0.64119062079E+01 -0.12699185985E+03  0.12978137222E+03  0.00000000000E+00 0. -1.
        -12    1    3    3    0    0  0.67549859695E+02 -0.35889085393E+02 -0.64815345964E+02  0.10025985771E+03  0.00000000000E+00 0.  1.
        -13    1    4    4    0    0 -0.74890282346E+02  0.28966021851E+02 -0.14198817210E+02  0.81542573064E+02  0.00000000000E+00 0.  1.
         13    1    4    4    0    0  0.20244089310E+02  0.34893481841E+02 -0.29497304237E+02  0.49974685434E+02  0.00000000000E+00 0. -1.
         -1    1    1    2    0  502 -0.38887499450E+02 -0.34382324507E+02 -0.24296836294E+03  0.24845121702E+03  0.00000000000E+00 0.  1.
<scales pt_clust_5="13000.00000" pt_clust_6="13000.00000" pt_clust_7="13000.00000" pt_clust_8="13000.00000" pt_clust_9="51.90746"></scales>
<clustering>
<clus scale="   51.907">  1  9  2 -1</clus>
<clus scale="   80.694">  5  6 -1 -1</clus>
<clus scale="   91.232">  7  8 -1 -1</clus>
<clus scale="  121.594">  2  5  1 -1</clus>
<clus scale="   51.907">  1  5  2 -1</clus>
</clustering>
</event>
<event>
 9    1  0.9171696E-005  0.1051606E+03  0.7546771E-02  0.1275471E+00
         21   -1    0    0  501  502  0.00000000000E+00  0.00000000000E+00  0.12739009723E+03  0.12739009723E+03  0.00000000000E+00 0. -1.
          1   -1    0    0  502    0 -0.00000000000E+00 -0.00000000000E+00 -0.17294734387E+03  0.17294734387E+03  0.00000000000E+00 0. -1.
        -24    2    1    2    0    0  0.18296528945E+02 -0.69547526853E+02 -0.61592230514E+02  0.12238358239E+03  0.77540421183E+02 0.  0.
         23    2    1    2    0    0 -0.51200545974E+01  0.58805931478E+01  0.51003176145E+02  0.10413060766E+03  0.90449229627E+02 0.  0.
         13    1    3    3    0    0  0.22207896758E+02 -0.36329013698E+02 -0.75084160941E+02  0.86316969009E+02  0.00000000000E+00 0. -1.
        -14    1    3    3    0    0 -0.39113678128E+01 -0.33218513155E+02  0.13491930427E+02  0.36066613385E+02  0.00000000000E+00 0.  1.
        -13    1    4    4    0    0  0.55975012125E+00  0.42094234366E+02  0.97352831874E+00  0.42109210921E+02  0.00000000000E+00 0.  1.
         13    1    4    4    0    0 -0.56798047186E+01 -0.36213641218E+02  0.50029647826E+02  0.62021396740E+02  0.00000000000E+00 0. -1.
          2    1    1    2  501    0 -0.13176474348E+02  0.63666933705E+02 -0.34968192274E+02  0.73823251043E+02  0.00000000000E+00 0. -1.
<scales pt_clust_5="13000.00000" pt_clust_6="13000.00000" pt_clust_7="13000.00000" pt_clust_8="13000.00000" pt_clust_9="65.01617"></scales>
<clustering>
<clus scale="   65.016">  1  9  2 -1</clus>
<clus scale="   77.540">  5  6 -1 -1</clus>
<clus scale="   90.449">  7  8 -1 -1</clus>
<clus scale="   94.288">  2  5  1 -1</clus>
<clus scale="   65.016">  1  5  2 -1</clus>
</clustering>
</event>
<event>
 9    1  0.9171696E-005  0.9311432E+02  0.7546771E-02  0.1299994E+00
          3   -1    0    0  502    0 -0.00000000000E+00  0.00000000000E+00  0.74365113734E+02  0.74365113734E+02  0.00000000000E+00 0. -1.
         21   -1    0    0  501  502  0.00000000000E+00 -0.00000000000E+00 -0.24026121993E+03  0.24026121993E+03  0.00000000000E+00 0. -1.
         23    2    1    2    0    0 -0.23257565536E+01  0.16707733547E+02 -0.20662300996E+02  0.94099550667E+02  0.90239887242E+02 0.  0.
        -24    2    1    2    0    0 -0.20179618785E+02 -0.40727169816E+02 -0.15902676514E+03  0.18483825569E+03  0.82521205516E+02 0.  0.
         11    1    4    4    0    0  0.10981809490E+02 -0.42093669541E+02 -0.14359156961E+03  0.15003671557E+03  0.00000000000E+00 0. -1.
        -12    1    4    4    0    0 -0.31161428275E+02  0.13664997247E+01 -0.15435195525E+02  0.34801540118E+02  0.00000000000E+00 0.  1.
        -13    1    3    3    0    0 -0.40891072343E+02 -0.11671860077E+02 -0.15751572573E+01  0.42553416260E+02  0.00000000000E+00 0. -1.
         13    1    3    3    0    0  0.38565315790E+02  0.28379593624E+02 -0.19087143738E+02  0.51546134407E+02  0.00000000000E+00 0.  1.
          4    1    1    2  501    0  0.22505375339E+02  0.24019436269E+02  0.13792959936E+02  0.35688527311E+02  0.00000000000E+00 0. -1.
<scales pt_clust_5="13000.00000" pt_clust_6="13000.00000" pt_clust_7="13000.00000" pt_clust_8="13000.00000" pt_clust_9="32.91544"></scales>
<clustering>
<clus scale="   32.915">  2  9  1 -1</clus>
<clus scale="   82.521">  5  6 -1 -1</clus>
<clus scale="   85.655">  2  5  1 -1</clus>
<clus scale="   90.240">  7  8 -1 -1</clus>
<clus scale="   32.915">  2  5  1 -1</clus>
</clustering>
</event>
<event>
 9    1  0.9171696E-005  0.1184123E+03  0.7546771E-02  0.1249765E+00
          1   -1    0    0  502    0 -0.00000000000E+00  0.00000000000E+00  0.24766863976E+03  0.24766863976E+03  0.00000000000E+00 0. -1.
         21   -1    0    0  501  502  0.00000000000E+00 -0.00000000000E+00 -0.12720188905E+03  0.12720188905E+03  0.00000000000E+00 0.  1.
        -24    2    1    2    0    0  0.81371073697E+02  0.10759498138E+02  0.10887533669E+03  0.15830008587E+03  0.80424248912E+02 0.  0.
         23    2    1    2    0    0 -0.44512661111E+02  0.21307217125E+02 -0.66712238626E+02  0.12427592077E+03  0.92512740744E+02 0.  0.
         11    1    3    3    0    0  0.94769244644E+02  0.21051113652E+02  0.99348100167E+02  0.13890429843E+03  0.00000000000E+00 0. -1.
        -12    1    3    3    0    0 -0.13398170947E+02 -0.10291615514E+02  0.95272365233E+01  0.19395787439E+02  0.00000000000E+00 0.  1.
        -11    1    4    4    0    0 -0.66548448233E+02 -0.50086425866E+01 -0.59043447011E+02  0.89106178785E+02  0.00000000000E+00 0.  1.
         11    1    4    4    0    0  0.22035787122E+02  0.26315859712E+02 -0.76687916145E+01  0.35169741985E+02  0.00000000000E+00 0. -1.
          2    1    1    2  501    0 -0.36858412586E+02 -0.32066715263E+02  0.78303652641E+02  0.92294522173E+02  0.00000000000E+00 0. -1.
<scales pt_clust_5="13000.00000" pt_clust_6="13000.00000" pt_clust_7="13000.00000" pt_clust_8="13000.00000" pt_clust_9="48.85508"></scales>
<clustering>
<clus scale="   48.855">  2  9  1 -1</clus>
<clus scale="   80.424">  5  6 -1 -1</clus>
<clus scale="   92.513">  7  8 -1 -1</clus>
<clus scale="  109.229">  1  5  2 -1</clus>
<clus scale="   48.855">  2  5  1 -1</clus>
</clustering>
</event>
<event>
 9    1  0.9171696E-005  0.1096780E+03  0.7546771E-02  0.1266249E+00
          1   -1    0    0  502    0 -0.00000000000E+00  0.00000000000E+00  0.53476141768E+03  0.53476141768E+03  0.00000000000E+00 0. -1.
         21   -1    0    0  501  502  0.00000000000E+00 -0.00000000000E+00 -0.89369161312E+02  0.89369161312E+02  0.00000000000E+00 0.  1.
         23    2    1    2    0    0 -0.26352252845E+02 -0.50847214161E+02  0.21794044462E+03  0.24365590171E+03  0.92683766744E+02 0.  0.
        -24    2    1    2    0    0 -0.53320814811E+02  0.89774553428E+02 -0.49566613790E+01  0.13172413189E+03  0.80150475326E+02 0.  0.
         11    1    4    4    0    0 -0.45902583244E+01  0.22656016297E+02  0.33175946824E+02  0.40435244448E+02  0.00000000000E+00 0. -1.
        -12    1    4    4    0    0 -0.48730556486E+02  0.67118537131E+02 -0.38132608203E+02  0.91288887442E+02  0.00000000000E+00 0.  1.
        -13    1    3    3    0    0  0.34573015671E+02 -0.12735033341E+02  0.66330518930E+02  0.75876295562E+02  0.00000000000E+00 0. -1.
         13    1    3    3    0    0 -0.60925268515E+02 -0.38112180820E+02  0.15160992569E+03  0.16777960615E+03  0.00000000000E+00 0.  1.
          2    1    1    2  501    0  0.79673067655E+02 -0.38927339267E+02  0.23240847312E+03  0.24875054539E+03  0.00000000000E+00 0. -1.
<scales pt_clust_5="13000.00000" pt_clust_6="13000.00000" pt_clust_7="13000.00000" pt_clust_8="13000.00000" pt_clust_9="88.67437"></scales>
<clustering>
<clus scale="   80.150">  5  6 -1 -1</clus>
<clus scale="   88.674">  2  9  1 -1</clus>
<clus scale="   92.684">  7  8 -1 -1</clus>
<clus scale="   99.313">  2  5  1 -1</clus>
<clus scale="   88.674">  2  5  1 -1</clus>
</clustering>
</event>
<event>
 9    1  0.9171696E-005  0.1184847E+03  0.7546771E-02  0.1246223E+00
         -2   -1    0    0    0  501 -0.00000000000E+00  0.00000000000E+00  0.21197204901E+03  0.21197204901E+03  0.00000000000E+00 0.  1.
         21   -1    0    0  501  502  0.00000000000E+00 -0.00000000000E+00 -0.11200425726E+03  0.11200425726E+03  0.00000000000E+00 0. -1.
         23    2    1    2    0    0  0.59587447056E+02 -0.41606847056E+02  0.80124720677E+02  0.13580449572E+03  0.82104181533E+02 0.  0.
        -24    2    1    2    0    0 -0.90559025945E+02  0.56326510524E+02  0.50106753063E+02  0.14243563625E+03  0.80022564348E+02 0.  0.
         11    1    4    4    0    0 -0.28038618928E+02  0.29373203991E+02 -0.19518944559E+02  0.45054838373E+02  0.00000000000E+00 0. -1.
        -12    1    4    4    0    0 -0.62520407016E+02  0.26953306533E+02  0.69625697622E+02  0.97380797881E+02  0.00000000000E+00 0.  1.
        -13    1    3    3    0    0 -0.17984450677E+02 -0.24182671932E+02  0.22719040899E+02  0.37741183173E+02  0.00000000000E+00 0.  1.
         13    1    3    3    0    0  0.77571897733E+02 -0.17424175125E+02  0.57405679778E+02  0.98063312546E+02  0.00000000000E+00 0. -1.
         -1    1    1    2    0  502  0.30971578888E+02 -0.14719663468E+02 -0.30263681988E+02  0.45736174292E+02  0.00000000000E+00 0.  1.
<scales pt_clust_5="13000.00000" pt_clust_6="13000.00000" pt_clust_7="13000.00000" pt_clust_8="13000.00000" pt_clust_9="34.29150"></scales>
<clustering>
<clus scale="   34.292">  2  9  1 -1</clus>
<clus scale="   80.023">  5  6 -1 -1</clus>
<clus scale="   82.104">  7  8 -1 -1</clus>
<clus scale="  117.052">  2  5  1 -1</clus>
<clus scale="   34.292">  2  5  1 -1</clus>
</clustering>
</event>
<event>
 9    1  0.9171696E-005  0.1494998E+03  0.7546771E-02  0.1225188E+00
         21   -1    0    0  501  502  0.00000000000E+00  0.00000000000E+00  0.95506912907E+02  0.95506912907E+02  0.00000000000E+00 0. -1.
          1   -1    0    0  502    0 -0.00000000000E+00 -0.00000000000E+00 -0.67369265153E+03  0.67369265153E+03  0.00000000000E+00 0. -1.
         23    2    1    2    0    0  0.39320384706E+01 -0.52692327364E+01 -0.82438860673E+02  0.12175618324E+03  0.89359815730E+02 0.  0.
        -24    2    1    2    0    0  0.91722139919E+01  0.12962632226E+03 -0.49937204459E+03  0.52234522382E+03  0.81147895819E+02 0.  0.
         13    1    4    4    0    0 -0.20923587922E+02  0.11211071696E+03 -0.42796319817E+03  0.44289853057E+03  0.00000000000E+00 0. -1.
        -14    1    4    4    0    0  0.30095801914E+02  0.17515605298E+02 -0.71408846421E+02  0.79446693254E+02  0.00000000000E+00 0.  1.
        -11    1    3    3    0    0 -0.18481204512E+02 -0.14087022592E+02 -0.92705752959E+02  0.95573823600E+02  0.00000000000E+00 0.  1.
         11    1    3    3    0    0  0.22413242983E+02  0.88177898556E+01  0.10266892287E+02  0.26182359637E+02  0.00000000000E+00 0. -1.
          2    1    1    2  501    0 -0.13104252462E+02 -0.12435708952E+03  0.36251666417E+01  0.12509815738E+03  0.00000000000E+00 0. -1.
<scales pt_clust_5="13000.00000" pt_clust_6="13000.00000" pt_clust_7="13000.00000" pt_clust_8="13000.00000" pt_clust_9="125.55955"></scales>
<clustering>
<clus scale="   81.148">  5  6 -1 -1</clus>
<clus scale="   89.360">  7  8 -1 -1</clus>
<clus scale="   89.601">  2  7  1 -1</clus>
<clus scale="  125.560">  1  9  2 -1</clus>
<clus scale="  125.560">  1  5  2 -1</clus>
</clustering>
</event>
<event>
 9    1  0.9171696E-005  0.1663964E+03  0.7546771E-02  0.1206057E+00
          1   -1    0    0  502    0 -0.00000000000E+00  0.00000000000E+00  0.37259366045E+03  0.37259366045E+03  0.00000000000E+00 0. -1.
         21   -1    0    0  501  502  0.00000000000E+00 -0.00000000000E+00 -0.40079158606E+03  0.40079158606E+03  0.00000000000E+00 0.  1.
         23    2    1    2    0    0  0.37751729955E+02 -0.16557049288E+01  0.68353106840E+02  0.11899105490E+03  0.89770760599E+02 0.  0.
        -24    2    1    2    0    0  0.54425323061E+02 -0.13219122274E+03 -0.33047244567E+03  0.36955943826E+03  0.83219624510E+02 0.  0.
         13    1    4    4    0    0  0.42232076957E+02 -0.11120611437E+02 -0.91736972536E+02  0.10160161639E+03  0.00000000000E+00 0. -1.
        -14    1    4    4    0    0  0.12193246105E+02 -0.12107061130E+03 -0.23873547313E+03  0.26795782188E+03  0.00000000000E+00 0.  1.
        -11    1    3    3    0    0 -0.17331916380E+02  0.13790811430E+02 -0.80297630942E+01  0.23559688042E+02  0.00000000000E+00 0.  1.
         11    1    3    3    0    0  0.55083646335E+02 -0.15446516359E+02  0.76382869934E+02  0.95431366859E+02  0.00000000000E+00 0. -1.
          2    1    1    2  501    0 -0.92177053016E+02  0.13384692767E+03  0.23392141322E+03  0.28483475335E+03  0.00000000000E+00 0. -1.
<scales pt_clust_5="13000.00000" pt_clust_6="13000.00000" pt_clust_7="13000.00000" pt_clust_8="13000.00000" pt_clust_9="144.09118"></scales>
<clustering>
<clus scale="   83.220">  5  6 -1 -1</clus>
<clus scale="   89.771">  7  8 -1 -1</clus>
<clus scale="   97.400">  1  7  2 -1</clus>
<clus scale="  144.091">  2  9  1 -1</clus>
<clus scale="  144.091">  2  5  1 -1</clus>
</clustering>
</event>
<event>
 9    1  0.9171696E-005  0.1407083E+03  0.7546771E-02  0.1214114E+00
         21   -1    0    0  501  502  0.00000000000E+00  0.00000000000E+00  0.42693038654E+02  0.42693038654E+02  0.00000000000E+00 0. -1.
          1   -1    0    0  502    0 -0.00000000000E+00 -0.00000000000E+00 -0.53656063135E+03  0.53656063135E+03  0.00000000000E+00 0. -1.
         23    2    1    2    0    0  0.11137223589E+03 -0.22786499735E+02 -0.24296351905E+03  0.28265690109E+03  0.89110339712E+02 0.  0.
        -24    2    1    2    0    0 -0.10548359486E+03 -0.17164328282E+01 -0.20779624685E+03  0.24666326786E+03  0.80831631056E+02 0.  0.
         11    1    4    4    0    0 -0.10128910948E+03 -0.19798190361E+02 -0.20262470149E+03  0.22739441879E+03  0.00000000000E+00 0. -1.
        -12    1    4    4    0    0 -0.41944853798E+01  0.18081757533E+02 -0.51715453563E+01  0.19268849069E+02  0.00000000000E+00 0.  1.
        -13    1    3    3    0    0  0.18023018354E+02  0.31054168065E+02 -0.48694673525E+02  0.60500923749E+02  0.00000000000E+00 0.  1.
         13    1    3    3    0    0  0.93349217535E+02 -0.53840667800E+02 -0.19426884553E+03  0.22215597734E+03  0.00000000000E+00 0. -1.
          2    1    1    2  501    0 -0.58886410315E+01  0.24502932563E+02 -0.43107826797E+02  0.49933501065E+02  0.00000000000E+00 0. -1.
<scales pt_clust_5="13000.00000" pt_clust_6="13000.00000" pt_clust_7="13000.00000" pt_clust_8="13000.00000" pt_clust_9="25.20060"></scales>
<clustering>
<clus scale="   25.201">  1  9  2 -1</clus>
<clus scale="   80.832">  5  6 -1 -1</clus>
<clus scale="   89.110">  7  8 -1 -1</clus>
<clus scale="  135.617">  1  5  2 -1</clus>
<clus scale="   25.201">  1  5  2 -1</clus>
</clustering>
</event>
<event>
 9    1  0.9171696E-005  0.1495198E+03  0.7546771E-02  0.1203745E+00
         -4   -1    0    0    0  501 -0.00000000000E+00  0.00000000000E+00  0.66717492639E+02  0.66717492639E+02  0.00000000000E+00 0.  1.
         21   -1    0    0  501  502  0.00000000000E+00 -0.00000000000E+00 -0.76523399508E+03  0.76523399508E+03  0.00000000000E+00 0.  1.
        -24    2    1    2    0    0  0.47013926969E+02 -0.11161659644E+03 -0.47039460808E+02  0.15339671673E+03  0.81543043236E+02 0.  0.
         23    2    1    2    0    0 -0.61295013186E+02  0.62462266230E+02 -0.54837223885E+03  0.56344309496E+03  0.95380268234E+02 0.  0.
         13    1    3    3    0    0  0.14112899210E+02 -0.23220912958E+02  0.23253258034E+02  0.35764489818E+02  0.00000000000E+00 0. -1.
        -14    1    3    3    0    0  0.32901027758E+02 -0.88395683484E+02 -0.70292718842E+02  0.11763222691E+03  0.00000000000E+00 0.  1.
        -11    1    4    4    0    0 -0.85378075718E+02  0.61432672640E+02 -0.43488998086E+03  0.44742897150E+03  0.00000000000E+00 0.  1.
         11    1    4    4    0    0  0.24083062532E+02  0.10295935903E+01 -0.11348225799E+03  0.11601412346E+03  0.00000000000E+00 0. -1.
         -3    1    1    2    0  502  0.14281086217E+02  0.49154330212E+02 -0.10310480278E+03  0.11511167603E+03  0.00000000000E+00 0.  1.
<scales pt_clust_5="13000.00000" pt_clust_6="13000.00000" pt_clust_7="13000.00000" pt_clust_8="13000.00000" pt_clust_9="51.18689"></scales>
<clustering>
<clus scale="   51.187">  2  9  1 -1</clus>
<clus scale="   81.543">  5  6 -1 -1</clus>
<clus scale="   95.380">  7  8 -1 -1</clus>
<clus scale="  141.096">  1  5  2 -1</clus>
<clus scale="   51.187">  2  5  1 -1</clus>
</clustering>
</event>
<event>
 9    1  0.9171696E-005  0.1851998E+03  0.7546771E-02  0.1192516E+00
          1   -1    0    0  502    0 -0.00000000000E+00  0.00000000000E+00  0.54419414495E+02  0.54419414495E+02  0.00000000000E+00 0. -1.
         21   -1    0    0  501  502  0.00000000000E+00 -0.00000000000E+00 -0.11630866093E+04  0.11630866093E+04  0.00000000000E+00 0. -1.
        -24    2    1    2    0    0  0.20184283924E+02 -0.46752830154E+02 -0.27571003076E+03  0.29156307913E+03  0.79998597539E+02 0.  0.
         23    2    1    2    0    0 -0.17052596413E+03  0.90895538128E+02 -0.27675323573E+03  0.34809001411E+03  0.85048228333E+02 0.  0.
         13    1    3    3    0    0 -0.19533821077E+02 -0.30466532868E+02 -0.49517989630E+02  0.61333604883E+02  0.00000000000E+00 0. -1.
        -14    1    3    3    0    0  0.39718105002E+02 -0.16286297286E+02 -0.22619204113E+03  0.23022947425E+03  0.00000000000E+00 0.  1.
        -11    1    4    4    0    0 -0.46338358130E+02  0.56260708639E+02 -0.53980245144E+02  0.90699380575E+02  0.00000000000E+00 0.  1.
         11    1    4    4    0    0 -0.12418760600E+03  0.34634829489E+02 -0.22277299058E+03  0.25739063353E+03  0.00000000000E+00 0. -1.
          2    1    1    2  501    0  0.15034168020E+03 -0.44142707975E+02 -0.55620392835E+03  0.57785293059E+03  0.00000000000E+00 0. -1.
<scales pt_clust_5="13000.00000" pt_clust_6="13000.00000" pt_clust_7="13000.00000" pt_clust_8="13000.00000" pt_clust_9="164.51675"></scales>
<clustering>
<clus scale="   79.999">  5  6 -1 -1</clus>
<clus scale="   85.048">  7  8 -1 -1</clus>
<clus scale="   94.832">  1  5  2 -1</clus>
<clus scale="  164.517">  2  9  1 -1</clus>
<clus scale="  164.517">  2  5  1 -1</clus>
</clustering>
</event>
<event>
 9    1  0.9171696E-005  0.1183901E+03  0.7546771E-02  0.1250172E+00
          1   -1    0    0  502    0 -0.00000000000E+00  0.00000000000E+00  0.47666536019E+03  0.47666536019E+03  0.00000000000E+00 0. -1.
         21   -1    0    0  501  502  0.00000000000E+00 -0.00000000000E+00 -0.69697457931E+02  0.69697457931E+02  0.00000000000E+00 0. -1.
         23    2    1    2    0    0  0.17110682954E+02  0.75320874683E+02  0.35240120640E+03  0.37258590017E+03  0.93100124061E+02 0.  0.
        -24    2    1    2    0    0 -0.39937701018E+02 -0.53843542019E+02  0.81511607653E+02  0.13244440238E+03  0.80020188457E+02 0.  0.
         13    1    4    4    0    0 -0.46395681376E+02 -0.47056892751E+02  0.95181481751E+02  0.11587245088E+03  0.00000000000E+00 0. -1.
        -14    1    4    4    0    0  0.64579803580E+01 -0.67866492683E+01 -0.13669874098E+02  0.16571951498E+02  0.00000000000E+00 0.  1.
        -13    1    3    3    0    0  0.37569180542E+02 -0.39173120290E+01  0.86797284744E+02  0.94660220257E+02  0.00000000000E+00 0.  1.
         13    1    3    3    0    0 -0.20458497588E+02  0.79238186712E+02  0.26560392165E+03  0.27792567991E+03  0.00000000000E+00 0. -1.
          2    1    1    2  501    0  0.22827018063E+02 -0.21477332664E+02 -0.26944911790E+02  0.41332515571E+02  0.00000000000E+00 0. -1.
<scales pt_clust_5="13000.00000" pt_clust_6="13000.00000" pt_clust_7="13000.00000" pt_clust_8="13000.00000" pt_clust_9="31.34244"></scales>
<clustering>
<clus scale="   31.342">  2  9  1 -1</clus>
<clus scale="   80.020">  5  6 -1 -1</clus>
<clus scale="   93.100">  7  8 -1 -1</clus>
<clus scale="  108.406">  2  5  1 -1</clus>
<clus scale="   31.342">  2  5  1 -1</clus>
</clustering>
</event>
<event>
 9    1  0.9171696E-005  0.1931146E+03  0.7546771E-02  0.1180553E+00
         21   -1    0    0  501  502  0.00000000000E+00  0.00000000000E+00  0.13839595996E+03  0.13839595996E+03  0.00000000000E+00 0.  1.
          1   -1    0    0  502    0 -0.00000000000E+00 -0.00000000000E+00 -0.57558938286E+03  0.57558938286E+03  0.00000000000E+00 0. -1.
         23    2    1    2    0    0  0.21246066778E+02  0.58742954328E+02 -0.13330086884E+03  0.17226751628E+03  0.89469802131E+02 0.  0.
        -24    2    1    2    0    0 -0.49842536520E+02 -0.18295303877E+03  0.59614646181E+01  0.20667243254E+03  0.81986965250E+02 0.  0.
         11    1    4    4    0    0 -0.22108604482E+02 -0.32102870098E+02 -0.29937142475E+02  0.49148928373E+02  0.00000000000E+00 0. -1.
        -12    1    4    4    0    0 -0.27733932038E+02 -0.15085016867E+03  0.35898607093E+02  0.15752350417E+03  0.00000000000E+00 0.  1.
        -13    1    3    3    0    0  0.53334851938E+02  0.48220185132E+02 -0.10933165092E+03  0.13085565551E+03  0.00000000000E+00 0.  1.
         13    1    3    3    0    0 -0.32088785159E+02  0.10522769196E+02 -0.23969217921E+02  0.41411860769E+02  0.00000000000E+00 0. -1.
          2    1    1    2  501    0  0.28596469742E+02  0.12421008444E+03 -0.30985401867E+03  0.33504539401E+03  0.00000000000E+00 0. -1.
<scales pt_clust_5="13000.00000" pt_clust_6="13000.00000" pt_clust_7="13000.00000" pt_clust_8="13000.00000" pt_clust_9="174.84687"></scales>
<clustering>
<clus scale="   81.987">  5  6 -1 -1</clus>
<clus scale="   89.470">  7  8 -1 -1</clus>
<clus scale="  109.119">  2  7  1 -1</clus>
<clus scale="  174.847">  1  9  2 -1</clus>
<clus scale="  174.847">  1  5  2 -1</clus>
</clustering>
</event>
<event>
 9    1  0.9171696E-005  0.1219042E+03  0.7546771E-02  0.1242667E+00
         21   -1    0    0  501  502  0.00000000000E+00  0.00000000000E+00  0.78967343147E+03  0.78967343147E+03  0.00000000000E+00 0. -1.
          3   -1    0    0  502    0 -0.00000000000E+00 -0.00000000000E+00 -0.62245101266E+02  0.62245101266E+02  0.00000000000E+00 0. -1.
         23    2    1    2    0    0 -0.71934502089E+02 -0.37606916620E+02  0.41363732715E+02  0.12847744627E+03  0.90590524043E+02 0.  0.
        -24    2    1    2    0    0  0.27608979600E+02  0.10861918770E+03  0.33590964487E+03  0.36341888517E+03  0.81716662240E+02 0.  0.
         11    1    4    4    0    0 -0.11841666702E+02  0.31599606640E+02  0.19619601984E+03  0.19907696605E+03  0.00000000000E+00 0. -1.
        -12    1    4    4    0    0  0.39450646302E+02  0.77019581060E+02  0.13971362503E+03  0.16434191912E+03  0.00000000000E+00 0.  1.
        -13    1    3    3    0    0 -0.70817926634E+02 -0.13051643460E+02 -0.88674129183E+01  0.72554497735E+02  0.00000000000E+00 0. -1.
         13    1    3    3    0    0 -0.11165754546E+01 -0.24555273160E+02  0.50231145633E+02  0.55922948531E+02  0.00000000000E+00 0.  1.
          4    1    1    2  501    0  0.44325522489E+02 -0.71012271079E+02  0.35015495262E+03  0.36002220131E+03  0.00000000000E+00 0. -1.
<scales pt_clust_5="13000.00000" pt_clust_6="13000.00000" pt_clust_7="13000.00000" pt_clust_8="13000.00000" pt_clust_9="83.71078"></scales>
<clustering>
<clus scale="   81.717">  5  6 -1 -1</clus>
<clus scale="   83.711">  1  9  2 -1</clus>
<clus scale="   90.591">  7  8 -1 -1</clus>
<clus scale="  115.463">  1  5  2 -1</clus>
<clus scale="   83.711">  1  5  2 -1</clus>
</clustering>
</event>
<event>
 9    1  0.9171696E-005  0.1156307E+03  0.7546771E-02  0.1253986E+00
         -2   -1    0    0    0  501 -0.00000000000E+00  0.00000000000E+00  0.34664276913E+02  0.34664276913E+02  0.00000000000E+00 0.  1.
         21   -1    0    0  501  502  0.00000000000E+00 -0.00000000000E+00 -0.56810349633E+03  0.56810349633E+03  0.00000000000E+00 0.  1.
        -24    2    1    2    0    0 -0.64808011966E+02  0.23474021589E+02 -0.10699948052E+03  0.15113184747E+03  0.81491339313E+02 0.  0.
         23    2    1    2    0    0  0.78040584603E+02 -0.76373123214E+00 -0.31631543984E+03  0.33841834980E+03  0.91545649107E+02 0.  0.
         13    1    3    3    0    0 -0.29111917911E+02  0.87905527685E+01  0.66310391312E+01  0.31124721081E+02  0.00000000000E+00 0. -1.
        -14    1    3    3    0    0 -0.35696094055E+02  0.14683468821E+02 -0.11363051965E+03  0.12000712639E+03  0.00000000000E+00 0.  1.
        -13    1    4    4    0    0  0.49627165575E+02 -0.15249615705E+02 -0.29619137598E+03  0.30070706268E+03  0.00000000000E+00 0.  1.
         13    1    4    4    0    0  0.28413419027E+02  0.14485884473E+02 -0.20124063856E+02  0.37711287115E+02  0.00000000000E+00 0. -1.
         -1    1    1    2    0  502 -0.13232572637E+02 -0.22710290357E+02 -0.11012429906E+03  0.11321757598E+03  0.00000000000E+00 0.  1.
<scales pt_clust_5="13000.00000" pt_clust_6="13000.00000" pt_clust_7="13000.00000" pt_clust_8="13000.00000" pt_clust_9="26.28418"></scales>
<clustering>
<clus scale="   26.284">  2  9  1 -1</clus>
<clus scale="   81.491">  5  6 -1 -1</clus>
<clus scale="   91.546">  7  8 -1 -1</clus>
<clus scale="  107.846">  1  5  2 -1</clus>
<clus scale="   26.284">  2  5  1 -1</clus>
</clustering>
</event>
<event>
 9    1  0.9171696E-005  0.1047108E+03  0.7546771E-02  0.1277340E+00
         21   -1    0    0  501  502  0.00000000000E+00  0.00000000000E+00  0.21381520622E+03  0.21381520622E+03  0.00000000000E+00 0.  1.
         -4   -1    0    0    0  501 -0.00000000000E+00 -0.00000000000E+00 -0.54107122903E+03  0.54107122903E+03  0.00000000000E+00 0.  1.
        -24    2    1    2    0    0  0.38656166426E+02 -0.30711724531E+02 -0.49758989124E+03  0.50623132918E+03  0.78974360079E+02 0.  0.
         23    2    1    2    0    0 -0.78220692369E+01  0.22821525769E+02  0.24592961883E+02  0.99479341859E+02  0.93323731585E+02 0.  0.
         13    1    3    3    0    0  0.47222271636E+02 -0.51719228174E+02 -0.35414396157E+03  0.36100244738E+03  0.00000000000E+00 0. -1.
        -14    1    3    3    0    0 -0.85661052100E+01  0.21007503643E+02 -0.14344592967E+03  0.14522888180E+03  0.00000000000E+00 0.  1.
        -13    1    4    4    0    0  0.25863309269E+02  0.47698900590E+02  0.10278477632E+02  0.55224478144E+02  0.00000000000E+00 0.  1.
         13    1    4    4    0    0 -0.33685378506E+02 -0.24877374821E+02  0.14314484251E+02  0.44254863715E+02  0.00000000000E+00 0. -1.
         -3    1    1    2    0  502 -0.30834097189E+02  0.78901987620E+01  0.14574090655E+03  0.14917576421E+03  0.00000000000E+00 0.  1.
<scales pt_clust_5="13000.00000" pt_clust_6="13000.00000" pt_clust_7="13000.00000" pt_clust_8="13000.00000" pt_clust_9="31.82761"></scales>
<clustering>
<clus scale="   31.828">  1  9  2 -1</clus>
<clus scale="   78.974">  5  6 -1 -1</clus>
<clus scale="   92.152">  2  5  1 -1</clus>
<clus scale="   93.324">  7  8 -1 -1</clus>
<clus scale="   31.828">  1  5  2 -1</clus>
</clustering>
</event>
<event>
 9    1  0.9171696E-005  0.1064578E+03  0.7546771E-02  0.1271009E+00
         -2   -1    0    0    0  501 -0.00000000000E+00  0.00000000000E+00  0.35534655425E+03  0.35534655425E+03  0.00000000000E+00 0.  1.
         21   -1    0    0  501  502  0.00000000000E+00 -0.00000000000E+00 -0.46139739651E+02  0.46139739651E+02  0.00000000000E+00 0.  1.
         23    2    1    2    0    0 -0.37058949436E+02  0.23288771405E+02  0.16583066813E+03  0.19409722286E+03  0.90874577423E+02 0.  0.
        -24    2    1    2    0    0  0.49404524102E+02 -0.53261831536E+02  0.13505349370E+03  0.17392171237E+03  0.82046853522E+02 0.  0.
         11    1    4    4    0    0 -0.40575342389E+01 -0.27865526181E+02  0.10265480666E+03  0.10644698429E+03  0.00000000000E+00 0. -1.
        -12    1    4    4    0    0  0.53462058341E+02 -0.25396305355E+02  0.32398687036E+02  0.67474728080E+02  0.00000000000E+00 0.  1.
        -11    1    3    3    0    0 -0.65191144201E+02  0.28398860003E+02  0.13079863459E+03  0.14887801498E+03  0.00000000000E+00 0. -1.
         11    1    3    3    0    0  0.28132194765E+02 -0.51100885983E+01  0.35032033540E+02  0.45219207885E+02  0.00000000000E+00 0.  1.
         -1    1    1    2    0  502 -0.12345574666E+02  0.29973060131E+02  0.83226527701E+01  0.33467358674E+02  0.00000000000E+00 0.  1.
<scales pt_clust_5="13000.00000" pt_clust_6="13000.00000" pt_clust_7="13000.00000" pt_clust_8="13000.00000" pt_clust_9="32.41601"></scales>
<clustering>
<clus scale="   32.416">  2  9  1 -1</clus>
<clus scale="   82.047">  5  6 -1 -1</clus>
<clus scale="   90.875">  7  8 -1 -1</clus>
<clus scale="   99.029">  2  5  1 -1</clus>
<clus scale="   32.416">  2  5  1 -1</clus>
</clustering>
</event>
<event>
 9    1  0.9171696E-005  0.1225835E+03  0.7546771E-02  0.1239519E+00
          1   -1    0    0  502    0 -0.00000000000E+00  0.00000000000E+00  0.60685125066E+03  0.60685125066E+03  0.00000000000E+00 0. -1.
         21   -1    0    0  501  502  0.00000000000E+00 -0.00000000000E+00 -0.59999992197E+02  0.59999992197E+02  0.00000000000E+00 0. -1.
         23    2    1    2    0    0  0.26348710637E+02  0.89696767182E+02  0.33519723565E+03  0.35768199889E+03  0.82701033525E+02 0.  0.
        -24    2    1    2    0    0  0.35390658016E+02 -0.91640132846E+02  0.21234714832E+03  0.24739540861E+03  0.80391319053E+02 0.  0.
         11    1    4    4    0    0  0.48149934588E+02 -0.29932722783E+02  0.14228873468E+03  0.15316810409E+03  0.00000000000E+00 0. -1.
        -12    1    4    4    0    0 -0.12759276572E+02 -0.61707410063E+02  0.70058413641E+02  0.94227304521E+02  0.00000000000E+00 0.  1.
        -11    1    3    3    0    0  0.31841996914E+02  0.99345197718E+01  0.18039068230E+03  0.18344864598E+03  0.00000000000E+00 0.  1.
         11    1    3    3    0    0 -0.54932862774E+01  0.79762247411E+02  0.15480655335E+03  0.17423335291E+03  0.00000000000E+00 0. -1.
          2    1    1    2  501    0 -0.61739368652E+02  0.19433656635E+01 -0.69312550839E+00  0.61773835357E+02  0.00000000000E+00 0. -1.
<scales pt_clust_5="13000.00000" pt_clust_6="13000.00000" pt_clust_7="13000.00000" pt_clust_8="13000.00000" pt_clust_9="61.76995"></scales>
<clustering>
<clus scale="   61.770">  2  9  1 -1</clus>
<clus scale="   80.391">  5  6 -1 -1</clus>
<clus scale="   82.701">  7  8 -1 -1</clus>
<clus scale="  121.037">  2  5  1 -1</clus>
<clus scale="   61.770">  2  5  1 -1</clus>
</clustering>
</event>
<event>
 9    1  0.9171696E-005  0.1075197E+03  0.7546771E-02  0.1269696E+00
         21   -1    0    0  501  502  0.00000000000E+00  0.00000000000E+00  0.28432777434E+03  0.28432777434E+03  0.00000000000E+00 0.  1.
          1   -1    0    0  502    0 -0.00000000000E+00 -0.00000000000E+00 -0.12989121355E+03  0.12989121355E+03  0.00000000000E+00 0. -1.
         23    2    1    2    0    0  0.31925125952E+02  0.42780667936E+02 -0.78077964807E+02  0.13275190681E+03  0.93153104920E+02 0.  0.
        -24    2    1    2    0    0 -0.57081748304E+02 -0.23903757755E+02  0.94762383045E+02  0.14017006710E+03  0.82692338495E+02 0.  0.
         11    1    4    4    0    0 -0.38054442813E+02  0.25978107126E+02  0.25311655979E+02  0.52570738972E+02  0.00000000000E+00 0. -1.
        -12    1    4    4    0    0 -0.19027305491E+02 -0.49881864881E+02  0.69450727065E+02  0.87599328126E+02  0.00000000000E+00 0.  1.
        -13    1    3    3    0    0 -0.17214694867E+02  0.23249129628E+02 -0.74305744038E+02  0.79738393167E+02  0.00000000000E+00 0.  1.
         13    1    3    3    0    0  0.49139820819E+02  0.19531538308E+02 -0.37722207685E+01  0.53013513639E+02  0.00000000000E+00 0. -1.
          2    1    1    2  501    0  0.25156622352E+02 -0.18876910182E+02  0.13775214255E+03  0.14129701399E+03  0.00000000000E+00 0. -1.
<scales pt_clust_5="13000.00000" pt_clust_6="13000.00000" pt_clust_7="13000.00000" pt_clust_8="13000.00000" pt_clust_9="31.45144"></scales>
<clustering>
<clus scale="   31.451">  1  9  2 -1</clus>
<clus scale="   82.692">  5  6 -1 -1</clus>
<clus scale="   93.153">  7  8 -1 -1</clus>
<clus scale="   98.595">  1  5  2 -1</clus>
<clus scale="   31.451">  1  5  2 -1</clus>
</clustering>
</event>
<event>
 9    1  0.9171696E-005  0.9354381E+02  0.7546771E-02  0.1299548E+00
          1   -1    0    0  502    0 -0.00000000000E+00  0.00000000000E+00  0.44348820071E+03  0.44348820071E+03  0.00000000000E+00 0. -1.
         21   -1    0    0  501  502  0.00000000000E+00 -0.00000000000E+00 -0.14788872197E+03  0.14788872197E+03  0.00000000000E+00 0. -1.
        -24    2    1    2    0    0 -0.16939622957E+02  0.50876721960E+01  0.34945333590E+03  0.35960506090E+03  0.82977892330E+02 0.  0.
         23    2    1    2    0    0  0.30290459943E+02  0.11009429942E+02  0.61262944684E+02  0.11477083781E+03  0.91544946931E+02 0.  0.
         11    1    3    3    0    0  0.23689108398E+02  0.26347386315E+02  0.20527913065E+03  0.20831437805E+03  0.00000000000E+00 0. -1.
        -12    1    3    3    0    0 -0.40628731356E+02 -0.21259714119E+02  0.14417420525E+03  0.15129068285E+03  0.00000000000E+00 0.  1.
        -11    1    4    4    0    0  0.46302512218E+02  0.41172598804E+02  0.31681054177E+02  0.69590191290E+02  0.00000000000E+00 0. -1.
         11    1    4    4    0    0 -0.16012052275E+02 -0.30163168862E+02  0.29581890507E+02  0.45180646519E+02  0.00000000000E+00 0.  1.
          2    1    1    2  501    0 -0.13350836986E+02 -0.16097102138E+02 -0.11511680185E+03  0.11700102398E+03  0.00000000000E+00 0. -1.
<scales pt_clust_5="13000.00000" pt_clust_6="13000.00000" pt_clust_7="13000.00000" pt_clust_8="13000.00000" pt_clust_9="20.91319"></scales>
<clustering>
<clus scale="   20.913">  2  9  1 -1</clus>
<clus scale="   82.978">  5  6 -1 -1</clus>
<clus scale="   85.178">  1  5  2 -1</clus>
<clus scale="   91.545">  7  8 -1 -1</clus>
<clus scale="   20.913">  2  5  1 -1</clus>
</clustering>
</event>
<event>
 9    1  0.9171696E-005  0.3494675E+03  0.7546771E-02  0.1099912E+00
         21   -1    0    0  501  502  0.00000000000E+00  0.00000000000E+00  0.23740106943E+03  0.23740106943E+03  0.00000000000E+00 0. -1.
          1   -1    0    0  502    0 -0.00000000000E+00 -0.00000000000E+00 -0.73322011628E+03  0.73322011628E+03  0.00000000000E+00 0. -1.
         23    2    1    2    0    0  0.83106796042E+02  0.40655065897E+02 -0.49304131860E+02  0.13811250084E+03  0.89914356680E+02 0.  0.
        -24    2    1    2    0    0 -0.28771723036E+03 -0.26482782064E+03 -0.26017906944E+03  0.47636278620E+03  0.79456759757E+02 0.  0.
         11    1    4    4    0    0 -0.14804879932E+03 -0.18037683069E+03 -0.17883433256E+03  0.29399994308E+03  0.00000000000E+00 0. -1.
        -12    1    4    4    0    0 -0.13966843103E+03 -0.84450989953E+02 -0.81344736876E+02  0.18236284311E+03  0.00000000000E+00 0.  1.
        -13    1    3    3    0    0  0.28191407926E+02  0.22595775291E+02  0.25024911887E+02  0.43949638870E+02  0.00000000000E+00 0. -1.
         13    1    3    3    0    0  0.54915388116E+02  0.18059290606E+02 -0.74329043747E+02  0.94162861966E+02  0.00000000000E+00 0.  1.
          2    1    1    2  501    0  0.20461043432E+03  0.22417275474E+03 -0.18633584556E+03  0.35614589867E+03  0.00000000000E+00 0. -1.
<scales pt_clust_5="13000.00000" pt_clust_6="13000.00000" pt_clust_7="13000.00000" pt_clust_8="13000.00000" pt_clust_9="340.31475"></scales>
<clustering>
<clus scale="   79.457">  5  6 -1 -1</clus>
<clus scale="   89.914">  7  8 -1 -1</clus>
<clus scale="  129.012">  2  7  1 -1</clus>
<clus scale="  340.315">  1  9  2 -1</clus>
<clus scale="  340.315">  1  5  2 -1</clus>
</clustering>
</event>
<event>
 9    1  0.9171696E-005  0.8410711E+02  0.7546771E-02  0.1321229E+00
          1   -1    0    0  502    0 -0.00000000000E+00  0.00000000000E+00  0.46891478712E+03  0.46891478712E+03  0.00000000000E+00 0. -1.
         21   -1    0    0  501  502  0.00000000000E+00 -0.00000000000E+00 -0.52397726947E+02  0.52397726947E+02  0.00000000000E+00 0. -1.
        -24    2    1    2    0    0  0.43105882780E+01 -0.47825148843E+01  0.36178572486E+03  0.37038387559E+03  0.79081293421E+02 0.  0.
         23    2    1    2    0    0  0.22101354966E+02 -0.29706429495E+02  0.55736572420E+02  0.10747649777E+03  0.84105233031E+02 0.  0.
         13    1    3    3    0    0 -0.23110862359E+02 -0.32700332287E+02  0.17092577162E+03  0.17555353341E+03  0.00000000000E+00 0. -1.
        -14    1    3    3    0    0  0.27421450637E+02  0.27917817402E+02  0.19085995324E+03  0.19483034218E+03  0.00000000000E+00 0.  1.
        -13    1    4    4    0    0  0.21444714195E+02  0.24646288014E+02  0.38411078145E+02  0.50425451947E+02  0.00000000000E+00 0.  1.
         13    1    4    4    0    0  0.65664077153E+00 -0.54352717509E+02  0.17325494275E+02  0.57051045824E+02  0.00000000000E+00 0. -1.
          2    1    1    2  501    0 -0.26411943244E+02  0.34488944379E+02 -0.10052371008E+01  0.43452140706E+02  0.00000000000E+00 0. -1.
<scales pt_clust_5="13000.00000" pt_clust_6="13000.00000" pt_clust_7="13000.00000" pt_clust_8="13000.00000" pt_clust_9="43.44051"></scales>
<clustering>
<clus scale="   43.441">  2  9  1 -1</clus>
<clus scale="   79.081">  5  6 -1 -1</clus>
<clus scale="   79.083">  1  5  2 -1</clus>
<clus scale="   84.105">  7  8 -1 -1</clus>
<clus scale="   43.441">  2  5  1 -1</clus>
</clustering>
</event>
<event>
 9    1  0.9171696E-005  0.1098970E+03  0.7546771E-02  0.1261592E+00
         21   -1    0    0  501  502  0.00000000000E+00  0.00000000000E+00  0.43199326045E+03  0.43199326045E+03  0.00000000000E+00 0. -1.
          1   -1    0    0  502    0 -0.00000000000E+00 -0.00000000000E+00 -0.43084781874E+02  0.43084781874E+02  0.00000000000E+00 0. -1.
         23    2    1    2    0    0 -0.41408593607E+02 -0.21967648780E+02  0.16062700505E+03  0.19057979271E+03  0.91227043244E+02 0.  0.
        -24    2    1    2    0    0  0.40037068342E+02  0.64939483265E+02  0.19837446430E+03  0.23212565334E+03  0.93326242405E+02 0.  0.
         13    1    4    4    0    0  0.52377817130E+02  0.41822575908E+02  0.55947218484E+02  0.87307816597E+02  0.00000000000E+00 0. -1.
        -14    1    4    4    0    0 -0.12340748788E+02  0.23116907357E+02  0.14242724582E+03  0.14481783674E+03  0.00000000000E+00 0.  1.
        -13    1    3    3    0    0 -0.45186396755E+02  0.20620548397E+02  0.12641100492E+03  0.13581884859E+03  0.00000000000E+00 0. -1.
         13    1    3    3    0    0  0.37778031482E+01 -0.42588197178E+02  0.34216000134E+02  0.54760944118E+02  0.00000000000E+00 0.  1.
          2    1    1    2  501    0  0.13715252648E+01 -0.42971834485E+02  0.29907009220E+02  0.52372596279E+02  0.00000000000E+00 0. -1.
<scales pt_clust_5="13000.00000" pt_clust_6="13000.00000" pt_clust_7="13000.00000" pt_clust_8="13000.00000" pt_clust_9="42.99374"></scales>
<clustering>
<clus scale="   42.994">  1  9  2 -1</clus>
<clus scale="   91.227">  7  8 -1 -1</clus>
<clus scale="   93.326">  5  6 -1 -1</clus>
<clus scale="  108.120">  2  7  1 -1</clus>
<clus scale="   42.994">  1  5  2 -1</clus>
</clustering>
</event>
<event>
 9    1  0.9171696E-005  0.1191883E+03  0.7546771E-02  0.1247748E+00
          1   -1    0    0  502    0 -0.00000000000E+00  0.00000000000E+00  0.12935444791E+03  0.12935444791E+03  0.00000000000E+00 0. -1.
         21   -1    0    0  501  502  0.00000000000E+00 -0.00000000000E+00 -0.21798916863E+03  0.21798916863E+03  0.00000000000E+00 0.  1.
         23    2    1    2    0    0 -0.80862067442E+02 -0.11879191687E+02  0.66933849069E+02  0.14016328039E+03  0.92118488222E+02 0.  0.
        -24    2    1    2    0    0  0.58122292959E+02  0.27635269883E+01 -0.82257129253E+02  0.12988376442E+03  0.81961691827E+02 0.  0.
         13    1    4    4    0    0 -0.41473292586E+01  0.25868911462E+02 -0.28383192422E+01  0.26352551610E+02  0.00000000000E+00 0. -1.
        -14    1    4    4    0    0  0.62269622218E+02 -0.23105384474E+02 -0.79418810011E+02  0.10353121281E+03  0.00000000000E+00 0.  1.
        -13    1    3    3    0    0 -0.13202994164E+01 -0.31256073563E+02  0.46054203595E+02  0.55674724911E+02  0.00000000000E+00 0. -1.
         13    1    3    3    0    0 -0.79541768026E+02  0.19376881876E+02  0.20879645474E+02  0.84488555480E+02  0.00000000000E+00 0.  1.
          2    1    1    2  501    0  0.22739774483E+02  0.91156646989E+01 -0.73311440537E+02  0.77296571723E+02  0.00000000000E+00 0. -1.
<scales pt_clust_5="13000.00000" pt_clust_6="13000.00000" pt_clust_7="13000.00000" pt_clust_8="13000.00000" pt_clust_9="24.49883"></scales>
<clustering>
<clus scale="   24.499">  2  9  1 -1</clus>
<clus scale="   81.962">  5  6 -1 -1</clus>
<clus scale="   92.118">  7  8 -1 -1</clus>
<clus scale="  111.525">  2  5  1 -1</clus>
<clus scale="   24.499">  2  5  1 -1</clus>
</clustering>
</event>
<event>
 9    1  0.9171696E-005  0.1050521E+03  0.7546771E-02  0.1273685E+00
          1   -1    0    0  502    0 -0.00000000000E+00  0.00000000000E+00  0.16661265958E+03  0.16661265958E+03  0.00000000000E+00 0. -1.
         21   -1    0    0  501  502  0.00000000000E+00 -0.00000000000E+00 -0.18548585044E+03  0.18548585044E+03  0.00000000000E+00 0. -1.
         23    2    1    2    0    0 -0.50844831075E+02 -0.29761822201E+02  0.12009664126E+03  0.16077214352E+03  0.89182486961E+02 0.  0.
        -24    2    1    2    0    0  0.33405924267E+02  0.39464843710E+01 -0.13374111505E+03  0.15973702304E+03  0.80608313215E+02 0.  0.
         11    1    4    4    0    0  0.55544621216E+02  0.13239449225E+02 -0.11782094913E+03  0.13092846908E+03  0.00000000000E+00 0. -1.
        -12    1    4    4    0    0 -0.22138696949E+02 -0.92929648540E+01 -0.15920165928E+02  0.28808553966E+02  0.00000000000E+00 0.  1.
        -11    1    3    3    0    0 -0.63165378114E+02  0.10070193423E+02  0.84300601797E+02  0.10581996622E+03  0.00000000000E+00 0. -1.
         11    1    3    3    0    0  0.12320547040E+02 -0.39832015623E+02  0.35796039467E+02  0.54952177295E+02  0.00000000000E+00 0.  1.
          2    1    1    2  501    0  0.17438906808E+02  0.25815337830E+02 -0.52287170680E+01  0.31589343458E+02  0.00000000000E+00 0. -1.
<scales pt_clust_5="13000.00000" pt_clust_6="13000.00000" pt_clust_7="13000.00000" pt_clust_8="13000.00000" pt_clust_9="31.15361"></scales>
<clustering>
<clus scale="   31.154">  2  9  1 -1</clus>
<clus scale="   80.608">  5  6 -1 -1</clus>
<clus scale="   89.182">  7  8 -1 -1</clus>
<clus scale="   97.878">  2  5  1 -1</clus>
<clus scale="   31.154">  2  5  1 -1</clus>
</clustering>
</event>
<event>
 9    1  0.9171696E-005  0.1459010E+03  0.7546771E-02  0.1207767E+00
         21   -1    0    0  501  502  0.00000000000E+00  0.00000000000E+00  0.13391560189E+03  0.13391560189E+03  0.00000000000E+00 0. -1.
          3   -1    0    0  502    0 -0.00000000000E+00 -0.00000000000E+00 -0.28359811316E+03  0.28359811316E+03  0.00000000000E+00 0. -1.
        -24    2    1    2    0    0  0.11822343411E+03 -0.35456200385E+02 -0.12738145802E+03  0.19516275074E+03  0.81415851730E+02 0.  0.
         23    2    1    2    0    0 -0.98375244720E+02 -0.35593313615E+02  0.13856271744E+02  0.14019662046E+03  0.92295847004E+02 0.  0.
         13    1    3    3    0    0  0.12002917248E+03 -0.45725811351E+02 -0.91252251148E+02  0.15755895852E+03  0.00000000000E+00 0. -1.
        -14    1    3    3    0    0 -0.18057383748E+01  0.10269610966E+02 -0.36129206868E+02  0.37603792221E+02  0.00000000000E+00 0.  1.
        -13    1    4    4    0    0 -0.28672160198E+01 -0.26125628698E+02 -0.25355367140E+02  0.36519365347E+02  0.00000000000E+00 0.  1.
         13    1    4    4    0    0 -0.95508028700E+02 -0.94676849165E+01  0.39211638884E+02  0.10367725511E+03  0.00000000000E+00 0. -1.
          4    1    1    2  501    0 -0.19848189390E+02  0.71049514000E+02 -0.36157325002E+02  0.82154343847E+02  0.00000000000E+00 0. -1.
<scales pt_clust_5="13000.00000" pt_clust_6="13000.00000" pt_clust_7="13000.00000" pt_clust_8="13000.00000" pt_clust_9="73.76984"></scales>
<clustering>
<clus scale="   73.770">  1  9  2 -1</clus>
<clus scale="   81.416">  5  6 -1 -1</clus>
<clus scale="   92.296">  7  8 -1 -1</clus>
<clus scale="  139.274">  2  5  1 -1</clus>
<clus scale="   73.770">  1  5  2 -1</clus>
</clustering>
</event>
<event>
 9    1  0.9171696E-005  0.9729603E+02  0.7546771E-02  0.1290325E+00
         -2   -1    0    0    0  501 -0.00000000000E+00  0.00000000000E+00  0.15082117334E+03  0.15082117334E+03  0.00000000000E+00 0.  1.
         21   -1    0    0  501  502  0.00000000000E+00 -0.00000000000E+00 -0.94735274959E+02  0.94735274959E+02  0.00000000000E+00 0. -1.
         23    2    1    2    0    0 -0.15944830043E+02  0.20215099425E+02  0.51294318776E+02  0.10795460393E+03  0.91434137618E+02 0.  0.
        -24    2    1    2    0    0  0.17006657987E+01 -0.46473672078E+02  0.28228811579E+02  0.99631952405E+02  0.83468351345E+02 0.  0.
         13    1    4    4    0    0  0.90056587502E+01  0.22692066355E+02 -0.40689771157E+00  0.24417152388E+02  0.00000000000E+00 0. -1.
        -14    1    4    4    0    0 -0.73049929516E+01 -0.69165738433E+02  0.28635709290E+02  0.75214800017E+02  0.00000000000E+00 0.  1.
        -13    1    3    3    0    0 -0.25519030014E+01 -0.33189034618E+02  0.87443580140E+00  0.33298481433E+02  0.00000000000E+00 0. -1.
         13    1    3    3    0    0 -0.13392927041E+02  0.53404134043E+02  0.50419882974E+02  0.74656122500E+02  0.00000000000E+00 0.  1.
         -1    1    1    2    0  502  0.14244164244E+02  0.26258572654E+02 -0.23437231974E+02  0.37969891960E+02  0.00000000000E+00 0.  1.
<scales pt_clust_5="13000.00000" pt_clust_6="13000.00000" pt_clust_7="13000.00000" pt_clust_8="13000.00000" pt_clust_9="29.87321"></scales>
<clustering>
<clus scale="   29.873">  2  9  1 -1</clus>
<clus scale="   83.468">  5  6 -1 -1</clus>
<clus scale="   89.851">  2  5  1 -1</clus>
<clus scale="   91.434">  7  8 -1 -1</clus>
<clus scale="   29.873">  2  5  1 -1</clus>
</clustering>
</event>
<event>
 9    1  0.9171696E-005  0.1203810E+03  0.7546771E-02  0.1246187E+00
         21   -1    0    0  501  502  0.00000000000E+00  0.00000000000E+00  0.39804917304E+03  0.39804917304E+03  0.00000000000E+00 0.  1.
         -4   -1    0    0    0  501 -0.00000000000E+00 -0.00000000000E+00 -0.36387350680E+03  0.36387350680E+03  0.00000000000E+00 0.  1.
         23    2    1    2    0    0  0.14172969378E+02  0.73790501056E+02 -0.28037966169E+03  0.30444661929E+03  0.91810011431E+02 0.  0.
        -24    2    1    2    0    0 -0.82047402337E+02 -0.75212024616E+02  0.14772105591E+01  0.13712177706E+03  0.80072309299E+02 0.  0.
         13    1    4    4    0    0  0.46873216449E+01 -0.44181101844E+02 -0.53528628128E+01  0.44750350665E+02  0.00000000000E+00 0. -1.
        -14    1    4    4    0    0 -0.86734723982E+02 -0.31030922772E+02  0.68300733719E+01  0.92371426397E+02  0.00000000000E+00 0.  1.
        -13    1    3    3    0    0  0.29562805851E+02 -0.14727282973E+01 -0.15186066237E+03  0.15471841906E+03  0.00000000000E+00 0.  1.
         13    1    3    3    0    0 -0.15389836473E+02  0.75263229354E+02 -0.12851899932E+03  0.14972820023E+03  0.00000000000E+00 0. -1.
         -3    1    1    2    0  502  0.67874432959E+02  0.14215235597E+01  0.31307811737E+03  0.32035428350E+03  0.00000000000E+00 0.  1.
<scales pt_clust_5="13000.00000" pt_clust_6="13000.00000" pt_clust_7="13000.00000" pt_clust_8="13000.00000" pt_clust_9="67.88932"></scales>
<clustering>
<clus scale="   67.889">  1  9  2 -1</clus>
<clus scale="   80.072">  5  6 -1 -1</clus>
<clus scale="   91.810">  7  8 -1 -1</clus>
<clus scale="  111.687">  1  5  2 -1</clus>
<clus scale="   67.889">  1  5  2 -1</clus>
</clustering>
</event>
<event>
 9    1  0.9171696E-005  0.1159553E+03  0.7546771E-02  0.1254378E+00
         21   -1    0    0  501  502  0.00000000000E+00  0.00000000000E+00  0.55441408650E+02  0.55441408650E+02  0.00000000000E+00 0. -1.
          1   -1    0    0  502    0 -0.00000000000E+00 -0.00000000000E+00 -0.34219109424E+03  0.34219109424E+03  0.00000000000E+00 0. -1.
         23    2    1    2    0    0  0.47943988808E+02 -0.22388578874E+02 -0.87513156135E+02  0.13683484389E+03  0.90913956464E+02 0.  0.
        -24    2    1    2    0    0 -0.62360843023E+02  0.67621887666E+02 -0.13679238998E+03  0.18235552450E+03  0.77972975607E+02 0.  0.
         13    1    4    4    0    0 -0.57800432919E+02  0.19466933759E+02 -0.11309413176E+03  0.12849176703E+03  0.00000000000E+00 0. -1.
        -14    1    4    4    0    0 -0.45604101042E+01  0.48154953907E+02 -0.23698258217E+02  0.53863757468E+02  0.00000000000E+00 0.  1.
        -11    1    3    3    0    0  0.49202101018E+02 -0.51232707301E+02 -0.40790626836E+02  0.81911612606E+02  0.00000000000E+00 0. -1.
         11    1    3    3    0    0 -0.12581122098E+01  0.28844128427E+02 -0.46722529298E+02  0.54923231288E+02  0.00000000000E+00 0.  1.
          2    1    1    2  501    0  0.14416854215E+02 -0.45233308792E+02 -0.62444139481E+02  0.78442134502E+02  0.00000000000E+00 0. -1.
<scales pt_clust_5="13000.00000" pt_clust_6="13000.00000" pt_clust_7="13000.00000" pt_clust_8="13000.00000" pt_clust_9="47.47526"></scales>
<clustering>
<clus scale="   47.475">  1  9  2 -1</clus>
<clus scale="   77.973">  5  6 -1 -1</clus>
<clus scale="   90.914">  7  8 -1 -1</clus>
<clus scale="  106.113">  1  5  2 -1</clus>
<clus scale="   47.475">  1  5  2 -1</clus>
</clustering>
</event>
<event>
 9    1  0.9171696E-005  0.8977302E+02  0.7546771E-02  0.1304505E+00
          1   -1    0    0  502    0 -0.00000000000E+00  0.00000000000E+00  0.25812484702E+03  0.25812484702E+03  0.00000000000E+00 0. -1.
         21   -1    0    0  501  502  0.00000000000E+00 -0.00000000000E+00 -0.50917317249E+02  0.50917317249E+02  0.00000000000E+00 0. -1.
         23    2    1    2    0    0  0.20668294941E+02  0.12885275603E+01  0.16570184835E+03  0.18808320024E+03  0.86541024640E+02 0.  0.
        -24    2    1    2    0    0 -0.22731567734E+00 -0.32694000427E+00  0.18708962240E+02  0.90324854133E+02  0.88365125722E+02 0.  0.
         11    1    4    4    0    0  0.33911549360E+02 -0.94579575220E+00 -0.19462067947E+02  0.39110865477E+02  0.00000000000E+00 0. -1.
        -12    1    4    4    0    0 -0.34138865037E+02  0.61885574793E+00  0.38171030187E+02  0.51213988656E+02  0.00000000000E+00 0.  1.
        -11    1    3    3    0    0  0.37490465534E+00  0.40191242550E+02  0.11040094858E+03  0.11748976968E+03  0.00000000000E+00 0. -1.
         11    1    3    3    0    0  0.20293390286E+02 -0.38902714990E+02  0.55300899769E+02  0.70593430560E+02  0.00000000000E+00 0.  1.
          2    1    1    2  501    0 -0.20440979264E+02 -0.96158755602E+00  0.22796719175E+02  0.30634109895E+02  0.00000000000E+00 0. -1.
<scales pt_clust_5="13000.00000" pt_clust_6="13000.00000" pt_clust_7="13000.00000" pt_clust_8="13000.00000" pt_clust_9="20.46359"></scales>
<clustering>
<clus scale="   20.464">  2  9  1 -1</clus>
<clus scale="   86.541">  7  8 -1 -1</clus>
<clus scale="   87.978">  1  7  2 -1</clus>
<clus scale="   88.365">  5  6 -1 -1</clus>
<clus scale="   20.464">  2  5  1 -1</clus>
</clustering>
</event>
<event>
 9    1  0.9171696E-005  0.2065315E+03  0.7546771E-02  0.1179826E+00
         21   -1    0    0  501  502  0.00000000000E+00  0.00000000000E+00  0.12379109358E+03  0.12379109358E+03  0.00000000000E+00 0. -1.
          1   -1    0    0  502    0 -0.00000000000E+00 -0.00000000000E+00 -0.57667333351E+03  0.57667333351E+03  0.00000000000E+00 0. -1.
         23    2    1    2    0    0 -0.62135671801E+01 -0.72147064569E+01 -0.19900210616E+02  0.92832098947E+02  0.90172722073E+02 0.  0.
        -24    2    1    2    0    0 -0.11602217440E+03  0.15076719249E+03 -0.11219091960E+03  0.23553579653E+03  0.81843861862E+02 0.  0.
         11    1    4    4    0    0 -0.95468374651E+02  0.60292852995E+02 -0.75149866697E+02  0.13563532411E+03  0.00000000000E+00 0. -1.
        -12    1    4    4    0    0 -0.20553799746E+02  0.90474339493E+02 -0.37041052904E+02  0.99900472426E+02  0.00000000000E+00 0.  1.
        -11    1    3    3    0    0  0.20598146028E+02 -0.28615032871E+02 -0.39801691998E+02  0.53172158240E+02  0.00000000000E+00 0.  1.
         11    1    3    3    0    0 -0.26811713208E+02  0.21400326414E+02  0.19901481382E+02  0.39659940708E+02  0.00000000000E+00 0. -1.
          2    1    1    2  501    0  0.12223574158E+03 -0.14355248603E+03 -0.32079110972E+03  0.37209653161E+03  0.00000000000E+00 0. -1.
<scales pt_clust_5="13000.00000" pt_clust_6="13000.00000" pt_clust_7="13000.00000" pt_clust_8="13000.00000" pt_clust_9="189.62303"></scales>
<clustering>
<clus scale="   81.844">  5  6 -1 -1</clus>
<clus scale="   90.173">  7  8 -1 -1</clus>
<clus scale="   90.674">  2  7  1 -1</clus>
<clus scale="  189.623">  1  9  2 -1</clus>
<clus scale="  189.623">  1  5  2 -1</clus>
</clustering>
</event>
<event>
 9    1  0.9171696E-005  0.1392664E+03  0.7546771E-02  0.1221076E+00
         -2   -1    0    0    0  501 -0.00000000000E+00  0.00000000000E+00  0.73838757423E+03  0.73838757423E+03  0.00000000000E+00 0.  1.
         21   -1    0    0  501  502  0.00000000000E+00 -0.00000000000E+00 -0.34139138012E+02  0.34139138012E+02  0.00000000000E+00 0. -1.
        -24    2    1    2    0    0  0.92069119742E+02 -0.16121247709E+02  0.32959920614E+03  0.35040046553E+03  0.73540683423E+02 0.  0.
         23    2    1    2    0    0 -0.10083706713E+03 -0.17557506646E+02  0.35289097147E+03  0.38108288898E+03  0.10107299531E+03 0.  0.
         11    1    3    3    0    0  0.30877961692E+02  0.15300740228E+02  0.40249221084E+02  0.52986422484E+02  0.00000000000E+00 0. -1.
        -12    1    3    3    0    0  0.61191158050E+02 -0.31421987938E+02  0.28934998505E+03  0.29741404304E+03  0.00000000000E+00 0.  1.
        -11    1    4    4    0    0 -0.51403517802E+02  0.25869817473E+02  0.26564082092E+03  0.27180252913E+03  0.00000000000E+00 0.  1.
         11    1    4    4    0    0 -0.49433549330E+02 -0.43427324119E+02  0.87250150542E+02  0.10928035985E+03  0.00000000000E+00 0. -1.
         -1    1    1    2    0  502  0.87679473902E+01  0.33678754355E+02  0.21758258614E+02  0.41043357736E+02  0.00000000000E+00 0.  1.
<scales pt_clust_5="13000.00000" pt_clust_6="13000.00000" pt_clust_7="13000.00000" pt_clust_8="13000.00000" pt_clust_9="34.80137"></scales>
<clustering>
<clus scale="   34.801">  2  9  1 -1</clus>
<clus scale="   73.541">  5  6 -1 -1</clus>
<clus scale="  101.073">  7  8 -1 -1</clus>
<clus scale="  120.779">  1  5  2 -1</clus>
<clus scale="   34.801">  2  5  1 -1</clus>
</clustering>
</event>
<event>
 9    1  0.9171696E-005  0.2860306E+03  0.7546771E-02  0.1092878E+00
          1   -1    0    0  502    0 -0.00000000000E+00  0.00000000000E+00  0.52505412777E+03  0.52505412777E+03  0.00000000000E+00 0. -1.
         21   -1    0    0  501  502  0.00000000000E+00 -0.00000000000E+00 -0.25653798732E+03  0.25653798732E+03  0.00000000000E+00 0.  1.
        -24    2    1    2    0    0  0.18828809992E+03  0.17797204619E+03  0.24825660194E+03  0.36776246247E+03  0.80569414794E+02 0.  0.
         23    2    1    2    0    0 -0.21706855658E+03 -0.21973848280E+03 -0.51237688513E+02  0.32616778299E+03  0.91413143777E+02 0.  0.
         11    1    3    3    0    0  0.17575970703E+03  0.16170241686E+03  0.25166156815E+03  0.34694767778E+03  0.00000000000E+00 0. -1.
        -12    1    3    3    0    0  0.12528392888E+02  0.16269629335E+02 -0.34049662063E+01  0.20814784696E+02  0.00000000000E+00 0.  1.
        -13    1    4    4    0    0 -0.36755495090E+02 -0.65174308544E+02  0.21383614835E+02  0.77819765464E+02  0.00000000000E+00 0. -1.
         13    1    4    4    0    0 -0.18031306149E+03 -0.15456417426E+03 -0.72621303348E+02  0.24834801753E+03  0.00000000000E+00 0.  1.
          2    1    1    2  501    0  0.28780456668E+02  0.41766436611E+02  0.71497227029E+02  0.87661869625E+02  0.00000000000E+00 0. -1.
<scales pt_clust_5="13000.00000" pt_clust_6="13000.00000" pt_clust_7="13000.00000" pt_clust_8="13000.00000" pt_clust_9="50.72231"></scales>
<clustering>
<clus scale="   50.722">  2  9  1 -1</clus>
<clus scale="   80.569">  5  6 -1 -1</clus>
<clus scale="   91.413">  7  8 -1 -1</clus>
<clus scale="  282.752">  1  5  2 -1</clus>
<clus scale="   50.722">  2  5  1 -1</clus>
</clustering>
</event>
<event>
 9    1  0.9171696E-005  0.9195126E+02  0.7546771E-02  0.1302942E+00
          3   -1    0    0  502    0 -0.00000000000E+00  0.00000000000E+00  0.10349760741E+03  0.10349760741E+03  0.00000000000E+00 0. -1.
         21   -1    0    0  501  502  0.00000000000E+00 -0.00000000000E+00 -0.20010307128E+03  0.20010307128E+03  0.00000000000E+00 0.  1.
         23    2    1    2    0    0  0.89404153291E+01 -0.20221816751E+02  0.35869034626E+02  0.98177248607E+02  0.88675428389E+02 0.  0.
        -24    2    1    2    0    0 -0.29380470424E+02  0.25393883824E+02 -0.15218258076E+03  0.17656247658E+03  0.80664173404E+02 0.  0.
         11    1    4    4    0    0 -0.37466223174E+02  0.41679676466E+02 -0.58046561674E+02  0.80686533148E+02  0.00000000000E+00 0. -1.
        -12    1    4    4    0    0  0.80857527503E+01 -0.16285792642E+02 -0.94136019087E+02  0.95875943432E+02  0.00000000000E+00 0.  1.
        -11    1    3    3    0    0 -0.27473208410E+02 -0.27487533785E+02  0.45479321955E+02  0.59822323755E+02  0.00000000000E+00 0.  1.
         11    1    3    3    0    0  0.36413623739E+02  0.72657170335E+01 -0.96102873294E+01  0.38354924852E+02  0.00000000000E+00 0. -1.
          4    1    1    2  501    0  0.20440055095E+02 -0.51720670727E+01  0.19708082270E+02  0.28860953499E+02  0.00000000000E+00 0. -1.
<scales pt_clust_5="13000.00000" pt_clust_6="13000.00000" pt_clust_7="13000.00000" pt_clust_8="13000.00000" pt_clust_9="21.08427"></scales>
<clustering>
<clus scale="   21.084">  2  9  1 -1</clus>
<clus scale="   80.664">  5  6 -1 -1</clus>
<clus scale="   84.252">  2  5  1 -1</clus>
<clus scale="   88.675">  7  8 -1 -1</clus>
<clus scale="   21.084">  2  5  1 -1</clus>
</clustering>
</event>
<event>
 9    1  0.9171696E-005  0.9663888E+02  0.7546771E-02  0.1296323E+00
         21   -1    0    0  501  502  0.00000000000E+00  0.00000000000E+00  0.54536078271E+02  0.54536078271E+02  0.00000000000E+00 0. -1.
          1   -1    0    0  502    0 -0.00000000000E+00 -0.00000000000E+00 -0.90289718997E+03  0.90289718997E+03  0.00000000000E+00 0. -1.
        -24    2    1    2    0    0  0.14256366794E+02  0.31729580939E+02 -0.63198467422E+03  0.63735902884E+03  0.74912568357E+02 0.  0.
         23    2    1    2    0    0  0.22971729977E+02 -0.16920409825E+02  0.48905052946E+01  0.95209162736E+02  0.90702078146E+02 0.  0.
         11    1    3    3    0    0  0.38223399143E+02 -0.25826640136E+01 -0.22616781306E+03  0.22938957705E+03  0.00000000000E+00 0. -1.
        -12    1    3    3    0    0 -0.23967032349E+02  0.34312244953E+02 -0.40581686116E+03  0.40796945179E+03  0.00000000000E+00 0.  1.
        -13    1    4    4    0    0 -0.32056610467E+02 -0.23374701283E+02  0.24825350533E+01  0.39751300796E+02  0.00000000000E+00 0.  1.
         13    1    4    4    0    0  0.55028340444E+02  0.64542914577E+01  0.24079702413E+01  0.55457861940E+02  0.00000000000E+00 0. -1.
          2    1    1    2  501    0 -0.37228096771E+02 -0.14809171114E+02 -0.22126694278E+03  0.22486507667E+03  0.00000000000E+00 0. -1.
<scales pt_clust_5="13000.00000" pt_clust_6="13000.00000" pt_clust_7="13000.00000" pt_clust_8="13000.00000" pt_clust_9="40.06550"></scales>
<clustering>
<clus scale="   40.066">  1  9  2 -1</clus>
<clus scale="   74.913">  5  6 -1 -1</clus>
<clus scale="   82.001">  2  5  1 -1</clus>
<clus scale="   90.702">  7  8 -1 -1</clus>
<clus scale="   40.066">  1  5  2 -1</clus>
</clustering>
</event>
<event>
 9    1  0.9171696E-005  0.9971858E+02  0.7546771E-02  0.1289912E+00
         21   -1    0    0  501  502  0.00000000000E+00  0.00000000000E+00  0.16014821651E+03  0.16014821651E+03  0.00000000000E+00 0. -1.
         -2   -1    0    0    0  501 -0.00000000000E+00 -0.00000000000E+00 -0.18115929930E+03  0.18115929930E+03  0.00000000000E+00 0.  1.
         23    2    1    2    0    0 -0.18516186991E+02  0.39249091852E+02 -0.14842804206E+03  0.17947751548E+03  0.91093108972E+02 0.  0.
        -24    2    1    2    0    0  0.50275227708E+01 -0.20747434219E+02  0.94095075526E+02  0.12139977236E+03  0.73676926371E+02 0.  0.
         13    1    4    4    0    0  0.38430496702E+02 -0.38460424596E+01  0.39888532517E+02  0.55522879480E+02  0.00000000000E+00 0. -1.
        -14    1    4    4    0    0 -0.33402973931E+02 -0.16901391760E+02  0.54206543009E+02  0.65876892883E+02  0.00000000000E+00 0.  1.
        -11    1    3    3    0    0  0.20748856125E+02 -0.18769800420E+02 -0.24840750040E+02  0.37415014378E+02  0.00000000000E+00 0. -1.
         11    1    3    3    0    0 -0.39265043117E+02  0.58018892272E+02 -0.12358729202E+03  0.14206250110E+03  0.00000000000E+00 0.  1.
         -1    1    1    2    0  502  0.13488664221E+02 -0.18501657633E+02  0.33321883739E+02  0.40430227968E+02  0.00000000000E+00 0.  1.
<scales pt_clust_5="13000.00000" pt_clust_6="13000.00000" pt_clust_7="13000.00000" pt_clust_8="13000.00000" pt_clust_9="22.89662"></scales>
<clustering>
<clus scale="   22.897">  1  9  2 -1</clus>
<clus scale="   73.677">  5  6 -1 -1</clus>
<clus scale="   84.108">  1  5  2 -1</clus>
<clus scale="   91.093">  7  8 -1 -1</clus>
<clus scale="   22.897">  1  5  2 -1</clus>
</clustering>
</event>
<event>
 9    1  0.9171696E-005  0.1052035E+03  0.7546771E-02  0.1275829E+00
         -2   -1    0    0    0  501 -0.00000000000E+00  0.00000000000E+00  0.52257481477E+02  0.52257481477E+02  0.00000000000E+00 0.  1.
         21   -1    0    0  501  502  0.00000000000E+00 -0.00000000000E+00 -0.30049205156E+03  0.30049205156E+03  0.00000000000E+00 0.  1.
        -24    2    1    2    0    0  0.37236173136E+02  0.39485457533E+02 -0.98017032495E+02  0.13676306164E+03  0.78429346703E+02 0.  0.
         23    2    1    2    0    0 -0.44414844538E+02 -0.19323294362E+02 -0.16126947124E+03  0.19189930916E+03  0.92040395383E+02 0.  0.
         13    1    3    3    0    0  0.51755097034E+02  0.99924803605E+00 -0.69720666811E+02  0.86836397588E+02  0.00000000000E+00 0. -1.
        -14    1    3    3    0    0 -0.14518923898E+02  0.38486209497E+02 -0.28296365684E+02  0.49926664054E+02  0.00000000000E+00 0.  1.
        -13    1    4    4    0    0 -0.71669417252E+02 -0.11614897741E+02 -0.92979828047E+02  0.11796889269E+03  0.00000000000E+00 0. -1.
         13    1    4    4    0    0  0.27254572713E+02 -0.77083966213E+01 -0.68289643196E+02  0.73930416475E+02  0.00000000000E+00 0.  1.
         -1    1    1    2    0  502  0.71786714025E+01 -0.20162163171E+02  0.11051933655E+02  0.24087162232E+02  0.00000000000E+00 0.  1.
<scales pt_clust_5="13000.00000" pt_clust_6="13000.00000" pt_clust_7="13000.00000" pt_clust_8="13000.00000" pt_clust_9="21.40202"></scales>
<clustering>
<clus scale="   21.402">  2  9  1 -1</clus>
<clus scale="   78.429">  5  6 -1 -1</clus>
<clus scale="   92.040">  7  8 -1 -1</clus>
<clus scale="   93.528">  1  5  2 -1</clus>
<clus scale="   21.402">  2  5  1 -1</clus>
</clustering>
</event>
<event>
 9    1  0.9171696E-005  0.1786658E+03  0.7546771E-02  0.1170743E+00
         21   -1    0    0  501  502  0.00000000000E+00  0.00000000000E+00  0.98231213559E+03  0.98231213559E+03  0.00000000000E+00 0. -1.
          3   -1    0    0  502    0 -0.00000000000E+00 -0.00000000000E+00 -0.43042585106E+02  0.43042585106E+02  0.00000000000E+00 0. -1.
         23    2    1    2    0    0  0.95888891362E+01  0.16153747870E+03  0.40951797452E+03  0.44988782864E+03  0.92237644624E+02 0.  0.
        -24    2    1    2    0    0 -0.32308801087E+02 -0.13967660295E+03  0.51557854089E+03  0.54089859428E+03  0.78718774300E+02 0.  0.
         13    1    4    4    0    0 -0.91642601986E+01 -0.13750402608E+03  0.46921340378E+03  0.48903226799E+03  0.00000000000E+00 0. -1.
        -14    1    4    4    0    0 -0.23144540888E+02 -0.21725768760E+01  0.46365137116E+02  0.51866326292E+02  0.00000000000E+00 0.  1.
        -13    1    3    3    0    0 -0.24379609405E+02  0.14185574341E+03  0.35157318848E+03  0.37989620181E+03  0.00000000000E+00 0. -1.
         13    1    3    3    0    0  0.33968498542E+02  0.19681735293E+02  0.57944786043E+02  0.69991626834E+02  0.00000000000E+00 0.  1.
          4    1    1    2  501    0  0.22719911950E+02 -0.21860875751E+02  0.14173035073E+02  0.34568297772E+02  0.00000000000E+00 0. -1.
<scales pt_clust_5="13000.00000" pt_clust_6="13000.00000" pt_clust_7="13000.00000" pt_clust_8="13000.00000" pt_clust_9="31.52924"></scales>
<clustering>
<clus scale="   31.529">  1  9  2 -1</clus>
<clus scale="   78.719">  5  6 -1 -1</clus>
<clus scale="   92.238">  7  8 -1 -1</clus>
<clus scale="  172.076">  1  5  2 -1</clus>
<clus scale="   31.529">  1  5  2 -1</clus>
</clustering>
</event>
<event>
 9    1  0.9171696E-005  0.1632167E+03  0.7546771E-02  0.1200963E+00
         21   -1    0    0  501  502  0.00000000000E+00  0.00000000000E+00  0.83390066761E+02  0.83390066761E+02  0.00000000000E+00 0. -1.
          1   -1    0    0  502    0 -0.00000000000E+00 -0.00000000000E+00 -0.65522295073E+03  0.65522295073E+03  0.00000000000E+00 0. -1.
         23    2    1    2    0    0 -0.62770501143E+02  0.28948769560E+02 -0.16421811288E+03  0.20059672275E+03  0.92159044630E+02 0.  0.
        -24    2    1    2    0    0 -0.12571218514E+02 -0.15164546135E+03 -0.33610721446E+03  0.37725503214E+03  0.78733208874E+02 0.  0.
         13    1    4    4    0    0 -0.32820269352E+02 -0.14666074686E+03 -0.30063767364E+03  0.33610943985E+03  0.00000000000E+00 0. -1.
        -14    1    4    4    0    0  0.20249050838E+02 -0.49847144952E+01 -0.35469540825E+02  0.41145592288E+02  0.00000000000E+00 0.  1.
        -13    1    3    3    0    0 -0.55698108060E+02 -0.18144242241E+02 -0.12800033304E+03  0.14076781601E+03  0.00000000000E+00 0.  1.
         13    1    3    3    0    0 -0.70723930825E+01  0.47093011802E+02 -0.36217779848E+02  0.59828906739E+02  0.00000000000E+00 0. -1.
          2    1    1    2  501    0  0.75341719657E+02  0.12269669179E+03 -0.71507556625E+02  0.16076126260E+03  0.00000000000E+00 0. -1.
<scales pt_clust_5="13000.00000" pt_clust_6="13000.00000" pt_clust_7="13000.00000" pt_clust_8="13000.00000" pt_clust_9="142.97122"></scales>
<clustering>
<clus scale="   78.733">  5  6 -1 -1</clus>
<clus scale="   92.159">  7  8 -1 -1</clus>
<clus scale="  115.202">  2  7  1 -1</clus>
<clus scale="  142.971">  1  9  2 -1</clus>
<clus scale="  142.971">  1  5  2 -1</clus>
</clustering>
</event>
<event>
 9    1  0.9171696E-005  0.1869160E+03  0.7546771E-02  0.1162723E+00
          1   -1    0    0  502    0 -0.00000000000E+00  0.00000000000E+00  0.12929297382E+04  0.12929297382E+04  0.00000000000E+00 0. -1.
         21   -1    0    0  501  502  0.00000000000E+00 -0.00000000000E+00 -0.43578180909E+02  0.43578180909E+02  0.00000000000E+00 0. -1.
         23    2    1    2    0    0  0.14207571592E+03 -0.84041501961E+02  0.72387458577E+03  0.74817619354E+03  0.92329396962E+02 0.  0.
        -24    2    1    2    0    0 -0.16919731257E+03  0.11537107069E+02  0.37748164745E+03  0.42131351031E+03  0.79068605567E+02 0.  0.
         11    1    4    4    0    0 -0.15377453552E+03  0.30394218937E+02  0.28057607651E+03  0.32139282977E+03  0.00000000000E+00 0. -1.
        -12    1    4    4    0    0 -0.15422777055E+02 -0.18857111868E+02  0.96905570938E+02  0.99920680536E+02  0.00000000000E+00 0.  1.
        -13    1    3    3    0    0  0.85278605023E+02 -0.16258859891E+02  0.21836072683E+03  0.23498552726E+03  0.00000000000E+00 0.  1.
         13    1    3    3    0    0  0.56797110894E+02 -0.67782642070E+02  0.50551385894E+03  0.51319066627E+03  0.00000000000E+00 0. -1.
          2    1    1    2  501    0  0.27121596655E+02  0.72504394892E+02  0.14799532408E+03  0.16701821527E+03  0.00000000000E+00 0. -1.
<scales pt_clust_5="13000.00000" pt_clust_6="13000.00000" pt_clust_7="13000.00000" pt_clust_8="13000.00000" pt_clust_9="77.41103"></scales>
<clustering>
<clus scale="   77.411">  2  9  1 -1</clus>
<clus scale="   79.069">  5  6 -1 -1</clus>
<clus scale="   92.329">  7  8 -1 -1</clus>
<clus scale="  180.734">  2  5  1 -1</clus>
<clus scale="   77.411">  2  5  1 -1</clus>
</clustering>
</event>
<event>
 9    1  0.9171696E-005  0.1055110E+03  0.7546771E-02  0.1273680E+00
         21   -1    0    0  501  502  0.00000000000E+00  0.00000000000E+00  0.76427950493E+02  0.76427950493E+02  0.00000000000E+00 0. -1.
         -2   -1    0    0    0  501 -0.00000000000E+00 -0.00000000000E+00 -0.34926704827E+03  0.34926704827E+03  0.00000000000E+00 0.  1.
         23    2    1    2    0    0  0.53335177951E+02  0.37740296989E+02 -0.54373648874E+02  0.12440934828E+03  0.90841736136E+02 0.  0.
        -24    2    1    2    0    0 -0.53977129878E+02  0.34909989804E+02 -0.43263553548E+02  0.11161704367E+03  0.80339227243E+02 0.  0.
         11    1    4    4    0    0  0.44775509723E+01  0.42239791721E+02 -0.27607192110E+02  0.50659703153E+02  0.00000000000E+00 0. -1.
        -12    1    4    4    0    0 -0.58454680850E+02 -0.73298019168E+01 -0.15656361438E+02  0.60957340517E+02  0.00000000000E+00 0.  1.
        -13    1    3    3    0    0  0.30838139987E+02  0.40293151715E+02 -0.77120296510E+02  0.92315053414E+02  0.00000000000E+00 0.  1.
         13    1    3    3    0    0  0.22497037964E+02 -0.25528547261E+01  0.22746647636E+02  0.32094294868E+02  0.00000000000E+00 0. -1.
         -1    1    1    2    0  502  0.64195192684E+00 -0.72650286793E+02 -0.17520189535E+03  0.18966860681E+03  0.00000000000E+00 0.  1.
<scales pt_clust_5="13000.00000" pt_clust_6="13000.00000" pt_clust_7="13000.00000" pt_clust_8="13000.00000" pt_clust_9="72.65316"></scales>
<clustering>
<clus scale="   72.653">  1  9  2 -1</clus>
<clus scale="   80.339">  5  6 -1 -1</clus>
<clus scale="   90.842">  7  8 -1 -1</clus>
<clus scale="   96.616">  1  5  2 -1</clus>
<clus scale="   72.653">  1  5  2 -1</clus>
</clustering>
</event>
<event>
 9    1  0.9171696E-005  0.1015090E+03  0.7546771E-02  0.1281978E+00
          1   -1    0    0  502    0 -0.00000000000E+00  0.00000000000E+00  0.27985075672E+03  0.27985075672E+03  0.00000000000E+00 0. -1.
         21   -1    0    0  501  502  0.00000000000E+00 -0.00000000000E+00 -0.11036402438E+03  0.11036402438E+03  0.00000000000E+00 0. -1.
         23    2    1    2    0    0  0.42287216954E+02  0.82570841538E+01 -0.19880117240E+00  0.10072920498E+03  0.91049135399E+02 0.  0.
        -24    2    1    2    0    0 -0.47702720049E+02  0.16076298884E+02 -0.20608161584E+02  0.97565979418E+02  0.80996463688E+02 0.  0.
         11    1    4    4    0    0 -0.60175200635E+02  0.29238365903E+02  0.39730345308E+01  0.67020308978E+02  0.00000000000E+00 0. -1.
        -12    1    4    4    0    0  0.12472480586E+02 -0.13162067019E+02 -0.24581196115E+02  0.30545670440E+02  0.00000000000E+00 0.  1.
        -13    1    3    3    0    0  0.61192349814E+02 -0.13509520183E+02 -0.19969892140E+02  0.65770870478E+02  0.00000000000E+00 0. -1.
         13    1    3    3    0    0 -0.18905132860E+02  0.21766604337E+02  0.19771090968E+02  0.34958334498E+02  0.00000000000E+00 0.  1.
          2    1    1    2  501    0  0.54155030951E+01 -0.24333383038E+02  0.19029369510E+03  0.19191959670E+03  0.00000000000E+00 0. -1.
<scales pt_clust_5="13000.00000" pt_clust_6="13000.00000" pt_clust_7="13000.00000" pt_clust_8="13000.00000" pt_clust_9="24.92873"></scales>
<clustering>
<clus scale="   24.929">  2  9  1 -1</clus>
<clus scale="   80.996">  5  6 -1 -1</clus>
<clus scale="   91.049">  7  8 -1 -1</clus>
<clus scale="   92.599">  2  5  1 -1</clus>
<clus scale="   24.929">  2  5  1 -1</clus>
</clustering>
</event>
<event>
 9    1  0.9171696E-005  0.1303813E+03  0.7546771E-02  0.1236676E+00
          3   -1    0    0  502    0 -0.00000000000E+00  0.00000000000E+00  0.16681373543E+03  0.16681373543E+03  0.00000000000E+00 0. -1.
         21   -1    0    0  501  502  0.00000000000E+00 -0.00000000000E+00 -0.23110117821E+03  0.23110117821E+03  0.00000000000E+00 0. -1.
        -24    2    1    2    0    0  0.45597292900E+02 -0.84800331391E+02  0.66193641374E+02  0.12978592919E+03  0.56502919684E+02 0.  0.
         23    2    1    2    0    0 -0.59972351916E+02  0.30324438993E+02 -0.16546959419E+03  0.20180809024E+03  0.93968420709E+02 0.  0.
         13    1    3    3    0    0  0.32084391637E+02 -0.68509284015E+02  0.75305525344E+02  0.10674198954E+03  0.00000000000E+00 0. -1.
        -14    1    3    3    0    0  0.13512901263E+02 -0.16291047376E+02 -0.91118839694E+01  0.23043939651E+02  0.00000000000E+00 0.  1.
        -11    1    4    4    0    0 -0.43218444345E+02 -0.17058957988E+02 -0.25309026679E+02  0.52909250710E+02  0.00000000000E+00 0.  1.
         11    1    4    4    0    0 -0.16753907571E+02  0.47383396981E+02 -0.14016056752E+03  0.14889883953E+03  0.00000000000E+00 0. -1.
          4    1    1    2  501    0  0.14375059016E+02  0.54475892399E+02  0.34988510032E+02  0.66320894208E+02  0.00000000000E+00 0. -1.
<scales pt_clust_5="13000.00000" pt_clust_6="13000.00000" pt_clust_7="13000.00000" pt_clust_8="13000.00000" pt_clust_9="56.34065"></scales>
<clustering>
<clus scale="   56.341">  2  9  1 -1</clus>
<clus scale="   56.503">  5  6 -1 -1</clus>
<clus scale="   93.968">  7  8 -1 -1</clus>
<clus scale="  106.592">  1  5  2 -1</clus>
<clus scale="   56.341">  2  5  1 -1</clus>
</clustering>
</event>
<event>
 9    1  0.9171696E-005  0.1108512E+03  0.7546771E-02  0.1262923E+00
          1   -1    0    0  502    0 -0.00000000000E+00  0.00000000000E+00  0.31345591190E+03  0.31345591190E+03  0.00000000000E+00 0. -1.
         21   -1    0    0  501  502  0.00000000000E+00 -0.00000000000E+00 -0.99556713564E+02  0.99556713564E+02  0.00000000000E+00 0.  1.
        -24    2    1    2    0    0  0.64767975672E+02  0.19686136532E+02  0.23235917641E+03  0.25529193380E+03  0.81244999596E+02 0.  0.
         23    2    1    2    0    0 -0.37320867589E+02 -0.30010955073E+02  0.24169836156E+02  0.10597857456E+03  0.91398975397E+02 0.  0.
         13    1    3    3    0    0  0.37199923369E+02  0.43297706420E+02  0.77606697818E+02  0.96339634762E+02  0.00000000000E+00 0. -1.
        -14    1    3    3    0    0  0.27568052303E+02 -0.23611569889E+02  0.15475247859E+03  0.15895229904E+03  0.00000000000E+00 0.  1.
        -11    1    4    4    0    0 -0.22678253094E+02 -0.14078361404E+02 -0.34398642925E+02  0.43540441641E+02  0.00000000000E+00 0.  1.
         11    1    4    4    0    0 -0.14642614495E+02 -0.15932593669E+02  0.58568479081E+02  0.62438132917E+02  0.00000000000E+00 0. -1.
          2    1    1    2  501    0 -0.27447108083E+02  0.10324818541E+02 -0.42629814235E+02  0.51742117098E+02  0.00000000000E+00 0. -1.
<scales pt_clust_5="13000.00000" pt_clust_6="13000.00000" pt_clust_7="13000.00000" pt_clust_8="13000.00000" pt_clust_9="29.32483"></scales>
<clustering>
<clus scale="   29.325">  2  9  1 -1</clus>
<clus scale="   81.245">  5  6 -1 -1</clus>
<clus scale="   91.399">  7  8 -1 -1</clus>
<clus scale="  102.640">  1  5  2 -1</clus>
<clus scale="   29.325">  2  5  1 -1</clus>
</clustering>
</event>
<event>
 9    1  0.9171696E-005  0.9271167E+02  0.7546771E-02  0.1303495E+00
         21   -1    0    0  501  502  0.00000000000E+00  0.00000000000E+00  0.44070982110E+03  0.44070982110E+03  0.00000000000E+00 0.  1.
          1   -1    0    0  502    0 -0.00000000000E+00 -0.00000000000E+00 -0.32389347155E+02  0.32389347155E+02  0.00000000000E+00 0. -1.
        -24    2    1    2    0    0  0.19002301515E+02  0.79232471392E+01  0.12753948821E+03  0.15209744580E+03  0.80271082333E+02 0.  0.
         23    2    1    2    0    0  0.22886557627E+01  0.33451800338E+02  0.24003576179E+03  0.25915212513E+03  0.91751818108E+02 0.  0.
         11    1    3    3    0    0 -0.92931439325E+01 -0.28460812792E+02  0.22696058391E+02  0.37569821073E+02  0.00000000000E+00 0. -1.
        -12    1    3    3    0    0  0.28295445448E+02  0.36384059932E+02  0.10484342982E+03  0.11452762473E+03  0.00000000000E+00 0.  1.
        -13    1    4    4    0    0 -0.35979352149E+02  0.38775315976E+02  0.91656838771E+02  0.10582539867E+03  0.00000000000E+00 0.  1.
         13    1    4    4    0    0  0.38268007912E+02 -0.53235156381E+01  0.14837892302E+03  0.15332672646E+03  0.00000000000E+00 0. -1.
          2    1    1    2  501    0 -0.21290957278E+02 -0.41375047477E+02  0.40745223947E+02  0.61849597331E+02  0.00000000000E+00 0. -1.
<scales pt_clust_5="13000.00000" pt_clust_6="13000.00000" pt_clust_7="13000.00000" pt_clust_8="13000.00000" pt_clust_9="46.53173"></scales>
<clustering>
<clus scale="   46.532">  1  9  2 -1</clus>
<clus scale="   80.271">  5  6 -1 -1</clus>
<clus scale="   81.366">  2  5  1 -1</clus>
<clus scale="   91.752">  7  8 -1 -1</clus>
<clus scale="   46.532">  1  5  2 -1</clus>
</clustering>
</event>
<event>
 9    1  0.9171696E-005  0.9831544E+02  0.7546771E-02  0.1293639E+00
          3   -1    0    0  502    0 -0.00000000000E+00  0.00000000000E+00  0.52792614130E+02  0.52792614130E+02  0.00000000000E+00 0. -1.
         21   -1    0    0  501  502  0.00000000000E+00 -0.00000000000E+00 -0.37911674503E+03  0.37911674503E+03  0.00000000000E+00 0. -1.
         23    2    1    2    0    0  0.34709752435E+01 -0.25342705469E+02 -0.26430295630E+02  0.10387347067E+03  0.97143383674E+02 0.  0.
        -24    2    1    2    0    0  0.51697623892E+01 -0.49548812216E+01 -0.11530853826E+03  0.14078114762E+03  0.80448711856E+02 0.  0.
         13    1    4    4    0    0  0.15525719769E+02 -0.40672591102E+02 -0.59894484909E+02  0.74044965824E+02  0.00000000000E+00 0. -1.
        -14    1    4    4    0    0 -0.10355957380E+02  0.35717709880E+02 -0.55414053348E+02  0.66736181796E+02  0.00000000000E+00 0.  1.
        -13    1    3    3    0    0  0.25247165787E+02  0.31038682785E+02 -0.10972020611E+02  0.41487401046E+02  0.00000000000E+00 0.  1.
         13    1    3    3    0    0 -0.21776190543E+02 -0.56381388254E+02 -0.15458275019E+02  0.62386069620E+02  0.00000000000E+00 0. -1.
          4    1    1    2  501    0 -0.86407376327E+01  0.30297586691E+02 -0.18458529701E+03  0.18725474087E+03  0.00000000000E+00 0. -1.
<scales pt_clust_5="13000.00000" pt_clust_6="13000.00000" pt_clust_7="13000.00000" pt_clust_8="13000.00000" pt_clust_9="31.50565"></scales>
<clustering>
<clus scale="   31.506">  2  9  1 -1</clus>
<clus scale="   80.449">  5  6 -1 -1</clus>
<clus scale="   81.860">  2  5  1 -1</clus>
<clus scale="   97.143">  7  8 -1 -1</clus>
<clus scale="   31.506">  2  5  1 -1</clus>
</clustering>
</event>
<event>
 9    1  0.9171696E-005  0.2478013E+03  0.7546771E-02  0.1114925E+00
         21   -1    0    0  501  502  0.00000000000E+00  0.00000000000E+00  0.90192575429E+03  0.90192575429E+03  0.00000000000E+00 0. -1.
         -2   -1    0    0    0  501 -0.00000000000E+00 -0.00000000000E+00 -0.84892982597E+02  0.84892982597E+02  0.00000000000E+00 0.  1.
        -24    2    1    2    0    0  0.20552219450E+03 -0.10049768342E+03  0.25095706296E+03  0.35001248357E+03  0.84794660210E+02 0.  0.
         23    2    1    2    0    0 -0.22521007557E+03  0.75507225004E+02  0.53632725143E+03  0.59325046857E+03  0.88759668012E+02 0.  0.
         11    1    3    3    0    0  0.38964718472E+02 -0.55371624857E+02  0.44897732959E+02  0.81240830558E+02  0.00000000000E+00 0. -1.
        -12    1    3    3    0    0  0.16655747602E+03 -0.45126058562E+02  0.20605933000E+03  0.26877165301E+03  0.00000000000E+00 0.  1.
        -13    1    4    4    0    0 -0.13509577245E+03  0.42558053585E+00  0.31544653293E+03  0.34315822005E+03  0.00000000000E+00 0.  1.
         13    1    4    4    0    0 -0.90114303120E+02  0.75081644468E+02  0.22088071850E+03  0.25009224852E+03  0.00000000000E+00 0. -1.
         -1    1    1    2    0  502  0.19687881077E+02  0.24990458415E+02  0.29748457296E+02  0.43555784743E+02  0.00000000000E+00 0.  1.
<scales pt_clust_5="13000.00000" pt_clust_6="13000.00000" pt_clust_7="13000.00000" pt_clust_8="13000.00000" pt_clust_9="31.81410"></scales>
<clustering>
<clus scale="   31.814">  1  9  2 -1</clus>
<clus scale="   84.795">  5  6 -1 -1</clus>
<clus scale="   88.760">  7  8 -1 -1</clus>
<clus scale="  246.409">  2  5  1 -1</clus>
<clus scale="   31.814">  1  5  2 -1</clus>
</clustering>
</event>
<event>
 9    1  0.9171696E-005  0.1619828E+03  0.7546771E-02  0.1186632E+00
          1   -1    0    0  502    0 -0.00000000000E+00  0.00000000000E+00  0.84411100677E+03  0.84411100677E+03  0.00000000000E+00 0. -1.
         21   -1    0    0  501  502  0.00000000000E+00 -0.00000000000E+00 -0.61847636147E+02  0.61847636147E+02  0.00000000000E+00 0. -1.
        -24    2    1    2    0    0  0.11185260671E+03 -0.25655733592E+02  0.22612931442E+03  0.26609920326E+03  0.80654180542E+02 0.  0.
         23    2    1    2    0    0 -0.18847791775E+03 -0.13691433029E+02  0.26118036934E+03  0.33258543294E+03  0.81771046557E+02 0.  0.
         13    1    3    3    0    0  0.52146869838E+02 -0.29223928789E+02  0.43513032890E+02  0.73937257719E+02  0.00000000000E+00 0. -1.
        -14    1    3    3    0    0  0.59705736875E+02  0.35681951962E+01  0.18261628153E+03  0.19216194554E+03  0.00000000000E+00 0.  1.
        -11    1    4    4    0    0 -0.17703757053E+03  0.88576226831E+01  0.20520376284E+03  0.27116294574E+03  0.00000000000E+00 0. -1.
         11    1    4    4    0    0 -0.11440347220E+02 -0.22549055712E+02  0.55976606502E+02  0.61422487197E+02  0.00000000000E+00 0.  1.
          2    1    1    2  501    0  0.76625311041E+02  0.39347166622E+02  0.29495368687E+03  0.30727400672E+03  0.00000000000E+00 0. -1.
<scales pt_clust_5="13000.00000" pt_clust_6="13000.00000" pt_clust_7="13000.00000" pt_clust_8="13000.00000" pt_clust_9="86.13736"></scales>
<clustering>
<clus scale="   80.654">  5  6 -1 -1</clus>
<clus scale="   81.771">  7  8 -1 -1</clus>
<clus scale="   86.137">  2  9  1 -1</clus>
<clus scale="  161.422">  1  5  2 -1</clus>
<clus scale="   86.137">  2  5  1 -1</clus>
</clustering>
</event>
<event>
 9    1  0.9171696E-005  0.1764252E+03  0.7546771E-02  0.1173170E+00
          1   -1    0    0  502    0 -0.00000000000E+00  0.00000000000E+00  0.19882827887E+03  0.19882827887E+03  0.00000000000E+00 0. -1.
         21   -1    0    0  501  502  0.00000000000E+00 -0.00000000000E+00 -0.85723047986E+03  0.85723047986E+03  0.00000000000E+00 0. -1.
        -24    2    1    2    0    0  0.29575821275E+02  0.14905092263E+03  0.14057438736E+03  0.22185063728E+03  0.79784961859E+02 0.  0.
         23    2    1    2    0    0 -0.74478210436E+02 -0.10595888167E+03 -0.40841284545E+03  0.43871705225E+03  0.94325559488E+02 0.  0.
         11    1    3    3    0    0 -0.22860095713E+02  0.67404914269E+02  0.81688301832E+02  0.10834659708E+03  0.00000000000E+00 0. -1.
        -12    1    3    3    0    0  0.52435916989E+02  0.81646008365E+02  0.58886085527E+02  0.11350404020E+03  0.00000000000E+00 0.  1.
        -11    1    4    4    0    0  0.34537529257E+01 -0.53513561070E+02 -0.23961255825E+03  0.24553982915E+03  0.00000000000E+00 0.  1.
         11    1    4    4    0    0 -0.77931963362E+02 -0.52445320600E+02 -0.16880028719E+03  0.19317722310E+03  0.00000000000E+00 0. -1.
          2    1    1    2  501    0  0.44902389161E+02 -0.43092040964E+02 -0.39056374290E+03  0.39549106920E+03  0.00000000000E+00 0. -1.
<scales pt_clust_5="13000.00000" pt_clust_6="13000.00000" pt_clust_7="13000.00000" pt_clust_8="13000.00000" pt_clust_9="62.23462"></scales>
<clustering>
<clus scale="   62.235">  2  9  1 -1</clus>
<clus scale="   79.785">  5  6 -1 -1</clus>
<clus scale="   94.326">  7  8 -1 -1</clus>
<clus scale="  169.098">  1  5  2 -1</clus>
<clus scale="   62.235">  2  5  1 -1</clus>
</clustering>
</event>
<event>
 9    1  0.9171696E-005  0.1542408E+03  0.7546771E-02  0.1196827E+00
         21   -1    0    0  501  502  0.00000000000E+00  0.00000000000E+00  0.31972461283E+03  0.31972461283E+03  0.00000000000E+00 0.  1.
          1   -1    0    0  502    0 -0.00000000000E+00 -0.00000000000E+00 -0.53913785337E+03  0.53913785337E+03  0.00000000000E+00 0. -1.
        -24    2    1    2    0    0 -0.57940219142E+02 -0.11201861918E+03 -0.50109109976E+03  0.52305391873E+03  0.81165704553E+02 0.  0.
         23    2    1    2    0    0  0.64605417112E+02  0.92734591840E+02  0.17343475528E+03  0.22565924822E+03  0.89827153620E+02 0.  0.
         13    1    3    3    0    0 -0.52260576845E+02 -0.12122843527E+03 -0.49034220338E+03  0.50780210499E+03  0.00000000000E+00 0. -1.
        -14    1    3    3    0    0 -0.56796422972E+01  0.92098160872E+01 -0.10748896382E+02  0.15251813742E+02  0.00000000000E+00 0.  1.
        -13    1    4    4    0    0  0.76832337775E+02  0.38456334591E+02  0.82884853196E+02  0.11938172677E+03  0.00000000000E+00 0.  1.
         13    1    4    4    0    0 -0.12226920663E+02  0.54278257248E+02  0.90549902080E+02  0.10627752145E+03  0.00000000000E+00 0. -1.
          2    1    1    2  501    0 -0.66651979696E+01  0.19284027343E+02  0.10824310394E+03  0.11014929925E+03  0.00000000000E+00 0. -1.
<scales pt_clust_5="13000.00000" pt_clust_6="13000.00000" pt_clust_7="13000.00000" pt_clust_8="13000.00000" pt_clust_9="20.40340"></scales>
<clustering>
<clus scale="   20.403">  1  9  2 -1</clus>
<clus scale="   81.166">  5  6 -1 -1</clus>
<clus scale="   89.827">  7  8 -1 -1</clus>
<clus scale="  149.363">  2  5  1 -1</clus>
<clus scale="   20.403">  1  5  2 -1</clus>
</clustering>
</event>
<event>
 9    1  0.9171696E-005  0.9935866E+02  0.7546771E-02  0.1286218E+00
          1   -1    0    0  502    0 -0.00000000000E+00  0.00000000000E+00  0.21180631552E+02  0.21180631552E+02  0.00000000000E+00 0. -1.
         21   -1    0    0  501  502  0.00000000000E+00 -0.00000000000E+00 -0.84992303252E+03  0.84992303252E+03  0.00000000000E+00 0. -1.
        -24    2    1    2    0    0  0.54052036084E+02  0.57925815450E+01 -0.25643253856E+03  0.27443806448E+03  0.81261477949E+02 0.  0.
         23    2    1    2    0    0 -0.50427350188E+01 -0.48669633676E+02 -0.37860969235E+03  0.39231269633E+03  0.90386891426E+02 0.  0.
         11    1    3    3    0    0  0.32656800901E+02  0.23871952867E+01 -0.23029026685E+02  0.40031255494E+02  0.00000000000E+00 0. -1.
        -12    1    3    3    0    0  0.21395235183E+02  0.34053862583E+01 -0.23340351188E+03  0.23440680899E+03  0.00000000000E+00 0.  1.
        -13    1    4    4    0    0  0.78745933120E+01 -0.71053241875E+02 -0.32538474892E+03  0.33314532449E+03  0.00000000000E+00 0. -1.
         13    1    4    4    0    0 -0.12917328331E+02  0.22383608199E+02 -0.53224943435E+02  0.59167371844E+02  0.00000000000E+00 0.  1.
          2    1    1    2  501    0 -0.49009301065E+02  0.42877052131E+02 -0.19370017006E+03  0.20435290326E+03  0.00000000000E+00 0. -1.
<scales pt_clust_5="13000.00000" pt_clust_6="13000.00000" pt_clust_7="13000.00000" pt_clust_8="13000.00000" pt_clust_9="65.11803"></scales>
<clustering>
<clus scale="   65.118">  2  9  1 -1</clus>
<clus scale="   81.261">  5  6 -1 -1</clus>
<clus scale="   90.387">  7  8 -1 -1</clus>
<clus scale="   91.136">  1  5  2 -1</clus>
<clus scale="   65.118">  2  5  1 -1</clus>
</clustering>
</event>
<event>
 9    1  0.9171696E-005  0.9186362E+02  0.7546771E-02  0.1305140E+00
         21   -1    0    0  501  502  0.00000000000E+00  0.00000000000E+00  0.34960532250E+02  0.34960532250E+02  0.00000000000E+00 0.  1.
          1   -1    0    0  502    0 -0.00000000000E+00 -0.00000000000E+00 -0.30988230305E+03  0.30988230305E+03  0.00000000000E+00 0. -1.
         23    2    1    2    0    0 -0.76495280283E+01 -0.12319269608E+02 -0.17287249480E+03  0.19623103843E+03  0.91713910076E+02 0.  0.
        -24    2    1    2    0    0 -0.75773863760E+01 -0.41086059266E+01 -0.94990414582E+02  0.12512644949E+03  0.80988592238E+02 0.  0.
         13    1    4    4    0    0 -0.91905715229E+01  0.22571549010E+02 -0.95329517606E+02  0.98395418372E+02  0.00000000000E+00 0. -1.
        -14    1    4    4    0    0  0.16131851469E+01 -0.26680154937E+02  0.33910302400E+00  0.26731031118E+02  0.00000000000E+00 0.  1.
        -11    1    3    3    0    0 -0.36103423062E+02 -0.39000422165E+02 -0.87607882806E+02  0.10246770816E+03  0.00000000000E+00 0.  1.
         11    1    3    3    0    0  0.28453895034E+02  0.26681152557E+02 -0.85264611997E+02  0.93763330271E+02  0.00000000000E+00 0. -1.
          2    1    1    2  501    0  0.15226914404E+02  0.16427875535E+02 -0.70588614101E+01  0.23485347374E+02  0.00000000000E+00 0. -1.
<scales pt_clust_5="13000.00000" pt_clust_6="13000.00000" pt_clust_7="13000.00000" pt_clust_8="13000.00000" pt_clust_9="22.39942"></scales>
<clustering>
<clus scale="   22.399">  1  9  2 -1</clus>
<clus scale="   80.989">  5  6 -1 -1</clus>
<clus scale="   81.158">  1  5  2 -1</clus>
<clus scale="   91.714">  7  8 -1 -1</clus>
<clus scale="   22.399">  1  5  2 -1</clus>
</clustering>
</event>
<event>
 9    1  0.9171696E-005  0.1337021E+03  0.7546771E-02  0.1224802E+00
         21   -1    0    0  501  502  0.00000000000E+00  0.00000000000E+00  0.12549503270E+03  0.12549503270E+03  0.00000000000E+00 0. -1.
          1   -1    0    0  502    0 -0.00000000000E+00 -0.00000000000E+00 -0.26205951450E+03  0.26205951450E+03  0.00000000000E+00 0. -1.
         23    2    1    2    0    0  0.68625205408E+02 -0.55255410528E+02 -0.12209543693E+03  0.17649820982E+03  0.92096379624E+02 0.  0.
        -24    2    1    2    0    0 -0.81368264186E+02  0.75422088484E+02 -0.67414299224E+02  0.15298499845E+03  0.80934764860E+02 0.  0.
         11    1    4    4    0    0 -0.69910543624E+02  0.40605293534E+02 -0.80476533131E+02  0.11407342529E+03  0.00000000000E+00 0. -1.
        -12    1    4    4    0    0 -0.11457720561E+02  0.34816794950E+02  0.13062233907E+02  0.38911573159E+02  0.00000000000E+00 0.  1.
        -13    1    3    3    0    0  0.33955928991E+02 -0.33562824468E+02 -0.86784583213E-02  0.47743778393E+02  0.00000000000E+00 0.  1.
         13    1    3    3    0    0  0.34669276417E+02 -0.21692586060E+02 -0.12208675848E+03  0.12875443143E+03  0.00000000000E+00 0. -1.
          2    1    1    2  501    0  0.12743058778E+02 -0.20166677956E+02  0.52945254356E+02  0.58071338934E+02  0.00000000000E+00 0. -1.
<scales pt_clust_5="13000.00000" pt_clust_6="13000.00000" pt_clust_7="13000.00000" pt_clust_8="13000.00000" pt_clust_9="23.85541"></scales>
<clustering>
<clus scale="   23.855">  1  9  2 -1</clus>
<clus scale="   80.935">  5  6 -1 -1</clus>
<clus scale="   92.096">  7  8 -1 -1</clus>
<clus scale="  126.273">  1  5  2 -1</clus>
<clus scale="   23.855">  1  5  2 -1</clus>
</clustering>
</event>
<event>
 9    1  0.9171696E-005  0.1122565E+03  0.7546771E-02  0.1257550E+00
         21   -1    0    0  501  502  0.00000000000E+00  0.00000000000E+00  0.13528776253E+03  0.13528776253E+03  0.00000000000E+00 0. -1.
         -2   -1    0    0    0  501 -0.00000000000E+00 -0.00000000000E+00 -0.33048420555E+03  0.33048420555E+03  0.00000000000E+00 0.  1.
         23    2    1    2    0    0  0.40882522133E+02  0.41612046568E+02 -0.17609565193E+03  0.20774967334E+03  0.93527028756E+02 0.  0.
        -24    2    1    2    0    0  0.41047590092E+01 -0.11311832651E+03  0.45178283635E+02  0.15186767646E+03  0.90609651828E+02 0.  0.
         13    1    4    4    0    0  0.76729738894E+01 -0.11443839580E+03  0.85187611335E+01  0.11501126141E+03  0.00000000000E+00 0. -1.
        -14    1    4    4    0    0 -0.35682148801E+01  0.13200692896E+01  0.36659522502E+02  0.36856415051E+02  0.00000000000E+00 0.  1.
        -11    1    3    3    0    0  0.43461676067E+02  0.65808520474E+02 -0.97106621675E+02  0.12509746051E+03  0.00000000000E+00 0.  1.
         11    1    3    3    0    0 -0.25791539335E+01 -0.24196473905E+02 -0.78989030253E+02  0.82652212825E+02  0.00000000000E+00 0. -1.
         -1    1    1    2    0  502 -0.44987281142E+02  0.71506279937E+02 -0.64279074726E+02  0.10615461828E+03  0.00000000000E+00 0.  1.
<scales pt_clust_5="13000.00000" pt_clust_6="13000.00000" pt_clust_7="13000.00000" pt_clust_8="13000.00000" pt_clust_9="84.48083"></scales>
<clustering>
<clus scale="   84.481">  1  9  2 -1</clus>
<clus scale="   90.610">  5  6 -1 -1</clus>
<clus scale="   93.527">  7  8 -1 -1</clus>
<clus scale="  109.838">  1  5  2 -1</clus>
<clus scale="   84.481">  1  5  2 -1</clus>
</clustering>
</event>
<event>
 9    1  0.9171696E-005  0.1163886E+03  0.7546771E-02  0.1260597E+00
         -4   -1    0    0    0  501 -0.00000000000E+00  0.00000000000E+00  0.23768107861E+03  0.23768107861E+03  0.00000000000E+00 0.  1.
         21   -1    0    0  501  502  0.00000000000E+00 -0.00000000000E+00 -0.19005188552E+03  0.19005188552E+03  0.00000000000E+00 0. -1.
         23    2    1    2    0    0 -0.18157146120E+02  0.59568060585E+00  0.11896562896E+03  0.15088733480E+03  0.91017196935E+02 0.  0.
        -24    2    1    2    0    0 -0.46313209713E+02  0.67818278473E+02 -0.12417135111E+03  0.16901045489E+03  0.80011106318E+02 0.  0.
         11    1    4    4    0    0 -0.67974900907E+02  0.55463927705E+02 -0.10860644642E+03  0.13961444995E+03  0.00000000000E+00 0. -1.
        -12    1    4    4    0    0  0.21661691194E+02  0.12354350767E+02 -0.15564904694E+02  0.29396004939E+02  0.00000000000E+00 0.  1.
        -13    1    3    3    0    0  0.18638857715E+02  0.31032928287E+02  0.20868371659E+02  0.41784430003E+02  0.00000000000E+00 0. -1.
         13    1    3    3    0    0 -0.36796003835E+02 -0.30437247681E+02  0.98097257302E+02  0.10910290480E+03  0.00000000000E+00 0.  1.
         -3    1    1    2    0  502  0.64470355833E+02 -0.68413959078E+02  0.52834915252E+02  0.10783517445E+03  0.00000000000E+00 0.  1.
<scales pt_clust_5="13000.00000" pt_clust_6="13000.00000" pt_clust_7="13000.00000" pt_clust_8="13000.00000" pt_clust_9="84.52532"></scales>
<clustering>
<clus scale="   80.011">  5  6 -1 -1</clus>
<clus scale="   91.017">  7  8 -1 -1</clus>
<clus scale="   92.813">  1  7  2 -1</clus>
<clus scale="   84.525">  2  9  1 -1</clus>
<clus scale="   84.525">  2  5  1 -1</clus>
</clustering>
</event>
<event>
 9    1  0.9171696E-005  0.2119715E+03  0.7546771E-02  0.1140869E+00
          1   -1    0    0  502    0 -0.00000000000E+00  0.00000000000E+00  0.38144192344E+03  0.38144192344E+03  0.00000000000E+00 0. -1.
         21   -1    0    0  501  502  0.00000000000E+00 -0.00000000000E+00 -0.17917335368E+03  0.17917335368E+03  0.00000000000E+00 0. -1.
         23    2    1    2    0    0 -0.14666678697E+03 -0.17163262503E+03  0.10260621304E+03  0.26402242141E+03  0.90614014788E+02 0.  0.
        -24    2    1    2    0    0  0.68648969558E+02  0.14509652298E+03  0.17451005473E+02  0.18018988832E+03  0.79988600803E+02 0.  0.
         13    1    4    4    0    0  0.83360164843E+01  0.60363230019E+02  0.41134973995E+02  0.73520709972E+02  0.00000000000E+00 0. -1.
        -14    1    4    4    0    0  0.60312953074E+02  0.84733292961E+02 -0.23683968523E+02  0.10666917835E+03  0.00000000000E+00 0.  1.
        -11    1    3    3    0    0 -0.62135861145E+02 -0.65077330289E+02  0.90265040739E+02  0.12745078163E+03  0.00000000000E+00 0.  1.
         11    1    3    3    0    0 -0.84530925823E+02 -0.10655529475E+03  0.12341172303E+02  0.13657163978E+03  0.00000000000E+00 0. -1.
          2    1    1    2  501    0  0.78017817409E+02  0.26536102055E+02  0.82211351246E+02  0.11640296740E+03  0.00000000000E+00 0. -1.
<scales pt_clust_5="13000.00000" pt_clust_6="13000.00000" pt_clust_7="13000.00000" pt_clust_8="13000.00000" pt_clust_9="82.40723"></scales>
<clustering>
<clus scale="   79.989">  5  6 -1 -1</clus>
<clus scale="   82.407">  2  9  1 -1</clus>
<clus scale="   90.614">  7  8 -1 -1</clus>
<clus scale="  207.652">  2  5  1 -1</clus>
<clus scale="   82.407">  2  5  1 -1</clus>
</clustering>
</event>
<event>
 9    1  0.9171696E-005  0.9230396E+02  0.7546771E-02  0.1303409E+00
         21   -1    0    0  501  502  0.00000000000E+00  0.00000000000E+00  0.58122234716E+03  0.58122234716E+03  0.00000000000E+00 0. -1.
          1   -1    0    0  502    0 -0.00000000000E+00 -0.00000000000E+00 -0.33453701111E+02  0.33453701111E+02  0.00000000000E+00 0. -1.
         23    2    1    2    0    0  0.39992678282E+00  0.15278015052E+02  0.50107804027E+02  0.10450635144E+03  0.90427914840E+02 0.  0.
        -24    2    1    2    0    0 -0.14010767150E+02 -0.31889974053E+02  0.34332774231E+03  0.35434955107E+03  0.80476044026E+02 0.  0.
         11    1    4    4    0    0 -0.45300390097E+02 -0.28513147128E+02  0.17134716539E+03  0.17951316384E+03  0.00000000000E+00 0. -1.
        -12    1    4    4    0    0  0.31289622946E+02 -0.33768269244E+01  0.17198057692E+03  0.17483638723E+03  0.00000000000E+00 0.  1.
        -11    1    3    3    0    0  0.24788933572E+02  0.14866416676E+02 -0.16701591620E+02  0.33383300243E+02  0.00000000000E+00 0.  1.
         11    1    3    3    0    0 -0.24389006789E+02  0.41159837541E+00  0.66809395648E+02  0.71123051202E+02  0.00000000000E+00 0. -1.
          2    1    1    2  501    0  0.13610840367E+02  0.16611959001E+02  0.15433309971E+03  0.15582014576E+03  0.00000000000E+00 0. -1.
<scales pt_clust_5="13000.00000" pt_clust_6="13000.00000" pt_clust_7="13000.00000" pt_clust_8="13000.00000" pt_clust_9="21.47585"></scales>
<clustering>
<clus scale="   21.476">  1  9  2 -1</clus>
<clus scale="   80.476">  5  6 -1 -1</clus>
<clus scale="   82.578">  1  5  2 -1</clus>
<clus scale="   90.428">  7  8 -1 -1</clus>
<clus scale="   21.476">  1  5  2 -1</clus>
</clustering>
</event>
<event>
 9    1  0.9171696E-005  0.2525356E+03  0.7546771E-02  0.1145653E+00
         21   -1    0    0  501  502  0.00000000000E+00  0.00000000000E+00  0.15969591244E+03  0.15969591244E+03  0.00000000000E+00 0. -1.
          1   -1    0    0  502    0 -0.00000000000E+00 -0.00000000000E+00 -0.83012287409E+03  0.83012287409E+03  0.00000000000E+00 0. -1.
        -24    2    1    2    0    0  0.70507105669E+02 -0.24146290936E+02  0.32194715324E+02  0.11412371209E+03  0.80208644485E+02 0.  0.
         23    2    1    2    0    0 -0.18136956480E+03 -0.17617148471E+03 -0.50772543546E+03  0.57502542010E+03  0.94539964530E+02 0.  0.
         13    1    3    3    0    0  0.54237319404E+02 -0.39108110380E+01 -0.18274761103E+02  0.57366786144E+02  0.00000000000E+00 0. -1.
        -14    1    3    3    0    0  0.16269786265E+02 -0.20235479898E+02  0.50469476427E+02  0.56756925944E+02  0.00000000000E+00 0.  1.
        -13    1    4    4    0    0 -0.22277276062E+02 -0.45170506595E+01 -0.96328440503E+01  0.24687496024E+02  0.00000000000E+00 0.  1.
         13    1    4    4    0    0 -0.15909228874E+03 -0.17165443405E+03 -0.49809259141E+03  0.55033792408E+03  0.00000000000E+00 0. -1.
          2    1    1    2  501    0  0.11086245913E+03  0.20031777565E+03 -0.19489624151E+03  0.30066965434E+03  0.00000000000E+00 0. -1.
<scales pt_clust_5="13000.00000" pt_clust_6="13000.00000" pt_clust_7="13000.00000" pt_clust_8="13000.00000" pt_clust_9="234.17173"></scales>
<clustering>
<clus scale="   80.209">  5  6 -1 -1</clus>
<clus scale="   94.540">  7  8 -1 -1</clus>
<clus scale="  109.489">  2  5  1 -1</clus>
<clus scale="  234.172">  1  9  2 -1</clus>
<clus scale="  234.172">  1  5  2 -1</clus>
</clustering>
</event>
<event>
 9    1  0.9171696E-005  0.1424049E+03  0.7546771E-02  0.1212841E+00
          1   -1    0    0  502    0 -0.00000000000E+00  0.00000000000E+00  0.49707950631E+03  0.49707950631E+03  0.00000000000E+00 0. -1.
         21   -1    0    0  501  502  0.00000000000E+00 -0.00000000000E+00 -0.73586769642E+02  0.73586769642E+02  0.00000000000E+00 0. -1.
         23    2    1    2    0    0  0.55578138604E+02 -0.10844287528E+03  0.34845498105E+03  0.38048506163E+03  0.92191223104E+02 0.  0.
        -24    2    1    2    0    0 -0.46918856371E+02  0.53686201663E+02  0.13705267904E+02  0.10750745474E+03  0.79287017377E+02 0.  0.
         11    1    4    4    0    0 -0.54321533485E+02  0.62009533835E+01  0.21634192757E+02  0.58798972093E+02  0.00000000000E+00 0. -1.
        -12    1    4    4    0    0  0.74026771136E+01  0.47485248279E+02 -0.79289248530E+01  0.48708482648E+02  0.00000000000E+00 0.  1.
        -13    1    3    3    0    0  0.15990804706E+02 -0.10964472231E+03  0.28379797491E+03  0.30466204478E+03  0.00000000000E+00 0. -1.
         13    1    3    3    0    0  0.39587333898E+02  0.12018470397E+01  0.64657006147E+02  0.75823016858E+02  0.00000000000E+00 0.  1.
          2    1    1    2  501    0 -0.86592822324E+01  0.54756673613E+02  0.61332487715E+02  0.82673759581E+02  0.00000000000E+00 0. -1.
<scales pt_clust_5="13000.00000" pt_clust_6="13000.00000" pt_clust_7="13000.00000" pt_clust_8="13000.00000" pt_clust_9="55.43714"></scales>
<clustering>
<clus scale="   55.437">  2  9  1 -1</clus>
<clus scale="   79.287">  5  6 -1 -1</clus>
<clus scale="   92.191">  7  8 -1 -1</clus>
<clus scale="  134.411">  2  5  1 -1</clus>
<clus scale="   55.437">  2  5  1 -1</clus>
</clustering>
</event>
<event>
 9    1  0.9171696E-005  0.1622324E+03  0.7546771E-02  0.1186945E+00
         21   -1    0    0  501  502  0.00000000000E+00  0.00000000000E+00  0.63507332239E+03  0.63507332239E+03  0.00000000000E+00 0. -1.
          1   -1    0    0  502    0 -0.00000000000E+00 -0.00000000000E+00 -0.81610063743E+02  0.81610063743E+02  0.00000000000E+00 0. -1.
        -24    2    1    2    0    0  0.92309610804E+02 -0.78265842974E+02  0.14801172951E+03  0.20997517983E+03  0.86807244206E+02 0.  0.
         23    2    1    2    0    0 -0.15044402612E+03  0.74221868141E+02  0.40565535437E+03  0.44843294980E+03  0.91616337106E+02 0.  0.
         13    1    3    3    0    0  0.86597375949E+02 -0.54102045570E+02  0.15367745825E+03  0.18450717609E+03  0.00000000000E+00 0. -1.
        -14    1    3    3    0    0  0.57122348546E+01 -0.24163797404E+02 -0.56657287363E+01  0.25468003733E+02  0.00000000000E+00 0.  1.
        -13    1    4    4    0    0 -0.13901699916E+03  0.35797279261E+02  0.36061222933E+03  0.38813444990E+03  0.00000000000E+00 0. -1.
         13    1    4    4    0    0 -0.11427026957E+02  0.38424588880E+02  0.45043125046E+02  0.60298499895E+02  0.00000000000E+00 0.  1.
          2    1    1    2  501    0  0.58134415315E+02  0.40439748331E+01 -0.20382524095E+00  0.58275256509E+02  0.00000000000E+00 0. -1.
<scales pt_clust_5="13000.00000" pt_clust_6="13000.00000" pt_clust_7="13000.00000" pt_clust_8="13000.00000" pt_clust_9="58.27493"></scales>
<clustering>
<clus scale="   58.275">  1  9  2 -1</clus>
<clus scale="   86.807">  5  6 -1 -1</clus>
<clus scale="   91.616">  7  8 -1 -1</clus>
<clus scale="  159.566">  2  5  1 -1</clus>
<clus scale="   58.275">  1  5  2 -1</clus>
</clustering>
</event>
<event>
 9    1  0.9171696E-005  0.1695613E+03  0.7546771E-02  0.1205517E+00
         21   -1    0    0  501  502  0.00000000000E+00  0.00000000000E+00  0.15426247820E+03  0.15426247820E+03  0.00000000000E+00 0.  1.
         -2   -1    0    0    0  501 -0.00000000000E+00 -0.00000000000E+00 -0.32553252451E+03  0.32553252451E+03  0.00000000000E+00 0.  1.
         23    2    1    2    0    0 -0.73109390265E+01 -0.21000003853E+02 -0.11911453412E+03  0.15119474887E+03  0.90427483970E+02 0.  0.
        -24    2    1    2    0    0 -0.78152228202E+02  0.13931244943E+03 -0.74416670490E+01  0.17595322413E+03  0.73405921655E+02 0.  0.
         11    1    4    4    0    0 -0.39391381005E+02  0.13673377680E+02 -0.14849965581E+02  0.44262440426E+02  0.00000000000E+00 0. -1.
        -12    1    4    4    0    0 -0.38760847197E+02  0.12563907175E+03  0.74082985316E+01  0.13169078370E+03  0.00000000000E+00 0.  1.
        -11    1    3    3    0    0  0.39082138652E+02 -0.64906710341E+01 -0.30034814159E+02  0.49715515019E+02  0.00000000000E+00 0.  1.
         11    1    3    3    0    0 -0.46393077679E+02 -0.14509332819E+02 -0.89079719957E+02  0.10147923385E+03  0.00000000000E+00 0. -1.
         -1    1    1    2    0  502  0.85463167229E+02 -0.11831244558E+03 -0.44713845144E+02  0.15264702971E+03  0.00000000000E+00 0.  1.
<scales pt_clust_5="13000.00000" pt_clust_6="13000.00000" pt_clust_7="13000.00000" pt_clust_8="13000.00000" pt_clust_9="152.84835"></scales>
<clustering>
<clus scale="   73.406">  5  6 -1 -1</clus>
<clus scale="   90.427">  7  8 -1 -1</clus>
<clus scale="   93.121">  2  7  1 -1</clus>
<clus scale="  152.848">  1  9  2 -1</clus>
<clus scale="  152.848">  1  5  2 -1</clus>
</clustering>
</event>
<event>
 9    1  0.9171696E-005  0.1315436E+03  0.7546771E-02  0.1226097E+00
         -2   -1    0    0    0  501 -0.00000000000E+00  0.00000000000E+00  0.22740521015E+03  0.22740521015E+03  0.00000000000E+00 0.  1.
         21   -1    0    0  501  502  0.00000000000E+00 -0.00000000000E+00 -0.19919761379E+03  0.19919761379E+03  0.00000000000E+00 0.  1.
         23    2    1    2    0    0 -0.61027163546E+02 -0.90877988882E+02  0.14381755004E+03  0.19933112524E+03  0.84061205291E+02 0.  0.
        -24    2    1    2    0    0 -0.19882075116E+01  0.70961184254E+02 -0.12027742344E+03  0.16101914124E+03  0.80131533232E+02 0.  0.
         11    1    4    4    0    0  0.17853298044E+02 -0.11820879934E+02 -0.30857212814E+02  0.37558501516E+02  0.00000000000E+00 0. -1.
        -12    1    4    4    0    0 -0.19841505556E+02  0.82782064188E+02 -0.89420210623E+02  0.12346063973E+03  0.00000000000E+00 0.  1.
        -11    1    3    3    0    0 -0.20137908664E+01 -0.62253009420E+02  0.32820753967E+02  0.70403795540E+02  0.00000000000E+00 0. -1.
         11    1    3    3    0    0 -0.59013372679E+02 -0.28624979462E+02  0.11099679607E+03  0.12892732970E+03  0.00000000000E+00 0.  1.
         -1    1    1    2    0  502  0.63015371057E+02  0.19916804628E+02  0.46674697566E+01  0.66252557460E+02  0.00000000000E+00 0.  1.
<scales pt_clust_5="13000.00000" pt_clust_6="13000.00000" pt_clust_7="13000.00000" pt_clust_8="13000.00000" pt_clust_9="66.08798"></scales>
<clustering>
<clus scale="   66.088">  2  9  1 -1</clus>
<clus scale="   80.132">  5  6 -1 -1</clus>
<clus scale="   84.061">  7  8 -1 -1</clus>
<clus scale="  129.068">  2  5  1 -1</clus>
<clus scale="   66.088">  2  5  1 -1</clus>
</clustering>
</event>
<event>
 9    1  0.9171696E-005  0.1518013E+03  0.7546771E-02  0.1200154E+00
         21   -1    0    0  501  502  0.00000000000E+00  0.00000000000E+00  0.38470141225E+03  0.38470141225E+03  0.00000000000E+00 0.  1.
          1   -1    0    0  502    0 -0.00000000000E+00 -0.00000000000E+00 -0.87250414052E+02  0.87250414052E+02  0.00000000000E+00 0. -1.
         23    2    1    2    0    0 -0.69657312728E+02 -0.91484073784E+02  0.35275988465E+02  0.15110209803E+03  0.91465685885E+02 0.  0.
        -24    2    1    2    0    0  0.74402362010E+02  0.11581752163E+03  0.21884014259E+03  0.27092435509E+03  0.80991285847E+02 0.  0.
         11    1    4    4    0    0  0.60171639765E+02  0.23494599060E+02  0.70464532211E+02  0.95592221005E+02  0.00000000000E+00 0. -1.
        -12    1    4    4    0    0  0.14230722245E+02  0.92322922572E+02  0.14837561038E+03  0.17533213409E+03  0.00000000000E+00 0.  1.
        -13    1    3    3    0    0 -0.21200971289E+02 -0.95456473705E+02  0.29533628760E+02  0.10214526315E+03  0.00000000000E+00 0.  1.
         13    1    3    3    0    0 -0.48456341438E+02  0.39723999213E+01  0.57423597054E+01  0.48956834883E+02  0.00000000000E+00 0. -1.
          2    1    1    2  501    0 -0.47450492827E+01 -0.24333447848E+02  0.43334867139E+02  0.49925373177E+02  0.00000000000E+00 0. -1.
<scales pt_clust_5="13000.00000" pt_clust_6="13000.00000" pt_clust_7="13000.00000" pt_clust_8="13000.00000" pt_clust_9="24.79178"></scales>
<clustering>
<clus scale="   24.792">  1  9  2 -1</clus>
<clus scale="   80.991">  5  6 -1 -1</clus>
<clus scale="   91.466">  7  8 -1 -1</clus>
<clus scale="  145.730">  1  5  2 -1</clus>
<clus scale="   24.792">  1  5  2 -1</clus>
</clustering>
</event>
<event>
 9    1  0.9171696E-005  0.1204099E+03  0.7546771E-02  0.1245567E+00
         21   -1    0    0  501  502  0.00000000000E+00  0.00000000000E+00  0.68108681238E+03  0.68108681238E+03  0.00000000000E+00 0.  1.
         -4   -1    0    0    0  501 -0.00000000000E+00 -0.00000000000E+00 -0.43370753690E+02  0.43370753690E+02  0.00000000000E+00 0.  1.
         23    2    1    2    0    0  0.54280512176E+02  0.67489545576E+02  0.30653784650E+03  0.33141503082E+03  0.91483651827E+02 0.  0.
        -24    2    1    2    0    0 -0.60655555360E+02 -0.37722151079E+02  0.34350922183E+03  0.36019755466E+03  0.81496231971E+02 0.  0.
         11    1    4    4    0    0 -0.76649661601E+02 -0.17892908899E+02  0.20971123171E+03  0.22399582031E+03  0.00000000000E+00 0. -1.
        -12    1    4    4    0    0  0.15994106241E+02 -0.19829242180E+02  0.13379799012E+03  0.13620173435E+03  0.00000000000E+00 0.  1.
        -11    1    3    3    0    0  0.20697006735E+02 -0.22108361681E+02  0.72055481757E+02  0.78160976166E+02  0.00000000000E+00 0. -1.
         11    1    3    3    0    0  0.33583505441E+02  0.89597907257E+02  0.23448236474E+03  0.25325405465E+03  0.00000000000E+00 0.  1.
         -3    1    1    2    0  502  0.63750431839E+01 -0.29767394497E+02 -0.12331009643E+02  0.32844980584E+02  0.00000000000E+00 0.  1.
<scales pt_clust_5="13000.00000" pt_clust_6="13000.00000" pt_clust_7="13000.00000" pt_clust_8="13000.00000" pt_clust_9="30.44240"></scales>
<clustering>
<clus scale="   30.442">  1  9  2 -1</clus>
<clus scale="   81.496">  5  6 -1 -1</clus>
<clus scale="   91.484">  7  8 -1 -1</clus>
<clus scale="  113.009">  1  5  2 -1</clus>
<clus scale="   30.442">  1  5  2 -1</clus>
</clustering>
</event>
<event>
 9    1  0.9171696E-005  0.1022294E+03  0.7546771E-02  0.1278138E+00
         21   -1    0    0  501  502  0.00000000000E+00  0.00000000000E+00  0.15013642388E+03  0.15013642388E+03  0.00000000000E+00 0. -1.
          3   -1    0    0  502    0 -0.00000000000E+00 -0.00000000000E+00 -0.25946008339E+03  0.25946008339E+03  0.00000000000E+00 0. -1.
        -24    2    1    2    0    0 -0.79984400395E+01 -0.44073393805E+02 -0.20068513111E+03  0.22342483839E+03  0.87393921290E+02 0.  0.
         23    2    1    2    0    0 -0.26378565400E+02  0.38495368305E+02  0.18399599412E+02  0.10532411069E+03  0.92611559435E+02 0.  0.
         11    1    3    3    0    0 -0.13595915682E+02 -0.55552080410E+02 -0.62760849176E+02  0.84910580910E+02  0.00000000000E+00 0. -1.
        -12    1    3    3    0    0  0.55974756429E+01  0.11478686605E+02 -0.13792428193E+03  0.13851425748E+03  0.00000000000E+00 0.  1.
        -11    1    4    4    0    0 -0.19322791651E+02 -0.28946880732E+02 -0.91850776487E+00  0.34815741236E+02  0.00000000000E+00 0. -1.
         11    1    4    4    0    0 -0.70557737484E+01  0.67442249037E+02  0.19318107177E+02  0.70508369455E+02  0.00000000000E+00 0.  1.
          4    1    1    2  501    0  0.34377005439E+02  0.55780255004E+01  0.72961872185E+02  0.80847558184E+02  0.00000000000E+00 0. -1.
<scales pt_clust_5="13000.00000" pt_clust_6="13000.00000" pt_clust_7="13000.00000" pt_clust_8="13000.00000" pt_clust_9="34.82661"></scales>
<clustering>
<clus scale="   34.827">  1  9  2 -1</clus>
<clus scale="   87.394">  5  6 -1 -1</clus>
<clus scale="   92.612">  7  8 -1 -1</clus>
<clus scale="   97.528">  2  5  1 -1</clus>
<clus scale="   34.827">  1  5  2 -1</clus>
</clustering>
</event>
<event>
 9    1  0.9171696E-005  0.9856263E+02  0.7546771E-02  0.1288751E+00
         -2   -1    0    0    0  501 -0.00000000000E+00  0.00000000000E+00  0.10971426674E+03  0.10971426674E+03  0.00000000000E+00 0.  1.
         21   -1    0    0  501  502  0.00000000000E+00 -0.00000000000E+00 -0.18637051019E+03  0.18637051019E+03  0.00000000000E+00 0.  1.
         23    2    1    2    0    0  0.31254296728E+02  0.52675163151E+02  0.33487483438E+02  0.11371892084E+03  0.89772365090E+02 0.  0.
        -24    2    1    2    0    0 -0.16315998127E+02  0.88842300221E+01 -0.53149354499E+02  0.97153942965E+02  0.79176343765E+02 0.  0.
         11    1    4    4    0    0  0.29846106968E+02  0.63152766897E+01 -0.59468766885E+01  0.31081154470E+02  0.00000000000E+00 0. -1.
        -12    1    4    4    0    0 -0.46162105096E+02  0.25689533324E+01 -0.47202477810E+02  0.66072788495E+02  0.00000000000E+00 0.  1.
        -13    1    3    3    0    0  0.47488501809E+02  0.11749622220E+02  0.46821701897E+02  0.67716195957E+02  0.00000000000E+00 0.  1.
         13    1    3    3    0    0 -0.16234205081E+02  0.40925540930E+02 -0.13334218459E+02  0.46002724886E+02  0.00000000000E+00 0. -1.
         -1    1    1    2    0  502 -0.14938298601E+02 -0.61559393173E+02 -0.56994372389E+02  0.85211913116E+02  0.00000000000E+00 0.  1.
<scales pt_clust_5="13000.00000" pt_clust_6="13000.00000" pt_clust_7="13000.00000" pt_clust_8="13000.00000" pt_clust_9="63.34597"></scales>
<clustering>
<clus scale="   63.346">  2  9  1 -1</clus>
<clus scale="   79.176">  5  6 -1 -1</clus>
<clus scale="   89.019">  2  5  1 -1</clus>
<clus scale="   89.772">  7  8 -1 -1</clus>
<clus scale="   63.346">  2  5  1 -1</clus>
</clustering>
</event>
<event>
 9    1  0.9171696E-005  0.1150355E+03  0.7546771E-02  0.1255490E+00
         21   -1    0    0  501  502  0.00000000000E+00  0.00000000000E+00  0.70132145919E+02  0.70132145919E+02  0.00000000000E+00 0.  1.
         -2   -1    0    0    0  501 -0.00000000000E+00 -0.00000000000E+00 -0.41729303486E+03  0.41729303486E+03  0.00000000000E+00 0.  1.
         23    2    1    2    0    0  0.49998352710E+02  0.21218352912E+02 -0.15662004888E+03  0.18891531372E+03  0.90604096334E+02 0.  0.
        -24    2    1    2    0    0 -0.10003863598E+03  0.38795044939E+02 -0.17296315994E+03  0.21841858970E+03  0.79231568400E+02 0.  0.
         11    1    4    4    0    0 -0.42625444157E+02 -0.16961723073E+02 -0.10041577670E+03  0.11039907948E+03  0.00000000000E+00 0. -1.
        -12    1    4    4    0    0 -0.57413191819E+02  0.55756768012E+02 -0.72547383236E+02  0.10801951022E+03  0.00000000000E+00 0.  1.
        -13    1    3    3    0    0  0.22774999412E+02  0.92654958761E+01  0.45678169201E+01  0.25008297892E+02  0.00000000000E+00 0.  1.
         13    1    3    3    0    0  0.27223353298E+02  0.11952857035E+02 -0.16118786580E+03  0.16390701583E+03  0.00000000000E+00 0. -1.
         -1    1    1    2    0  502  0.50040283266E+02 -0.60013397851E+02 -0.17577680125E+02  0.80091277362E+02  0.00000000000E+00 0.  1.
<scales pt_clust_5="13000.00000" pt_clust_6="13000.00000" pt_clust_7="13000.00000" pt_clust_8="13000.00000" pt_clust_9="78.13858"></scales>
<clustering>
<clus scale="   78.139">  1  9  2 -1</clus>
<clus scale="   79.232">  5  6 -1 -1</clus>
<clus scale="   90.604">  7  8 -1 -1</clus>
<clus scale="  106.310">  1  5  2 -1</clus>
<clus scale="   78.139">  1  5  2 -1</clus>
</clustering>
</event>
<event>
 9    1  0.9171696E-005  0.1473268E+03  0.7546771E-02  0.1205140E+00
         21   -1    0    0  501  502  0.00000000000E+00  0.00000000000E+00  0.97911776023E+02  0.97911776023E+02  0.00000000000E+00 0.  1.
         -2   -1    0    0    0  501 -0.00000000000E+00 -0.00000000000E+00 -0.49228925022E+03  0.49228925022E+03  0.00000000000E+00 0.  1.
         23    2    1    2    0    0 -0.14391430328E+03 -0.12560176623E+02 -0.26395443353E+03  0.31345042125E+03  0.87807396499E+02 0.  0.
        -24    2    1    2    0    0  0.71542714762E+02 -0.74274344836E+02 -0.64460882884E+02  0.14587323032E+03  0.80552812268E+02 0.  0.
         13    1    4    4    0    0  0.71402166340E+02 -0.25800859478E+02 -0.60792566276E+02  0.97260936774E+02  0.00000000000E+00 0. -1.
        -14    1    4    4    0    0  0.14054842213E+00 -0.48473485358E+02 -0.36683166084E+01  0.48612293542E+02  0.00000000000E+00 0.  1.
        -13    1    3    3    0    0 -0.58349810982E+02 -0.32467094708E+02 -0.54064737752E+02  0.85917451945E+02  0.00000000000E+00 0. -1.
         13    1    3    3    0    0 -0.85564492294E+02  0.19906918085E+02 -0.20988969578E+03  0.22753296931E+03  0.00000000000E+00 0.  1.
         -1    1    1    2    0  502  0.72371588514E+02  0.86834521460E+02 -0.65962157777E+02  0.13087737467E+03  0.00000000000E+00 0.  1.
<scales pt_clust_5="13000.00000" pt_clust_6="13000.00000" pt_clust_7="13000.00000" pt_clust_8="13000.00000" pt_clust_9="113.03929"></scales>
<clustering>
<clus scale="   80.553">  5  6 -1 -1</clus>
<clus scale="   87.807">  7  8 -1 -1</clus>
<clus scale="  113.039">  1  9  2 -1</clus>
<clus scale="  143.122">  1  5  2 -1</clus>
<clus scale="  113.039">  1  5  2 -1</clus>
</clustering>
</event>
<event>
 9    1  0.9171696E-005  0.1255113E+03  0.7546771E-02  0.1241015E+00
         21   -1    0    0  501  502  0.00000000000E+00  0.00000000000E+00  0.76643455307E+03  0.76643455307E+03  0.00000000000E+00 0. -1.
          1   -1    0    0  502    0 -0.00000000000E+00 -0.00000000000E+00 -0.99456056202E+02  0.99456056202E+02  0.00000000000E+00 0. -1.
        -24    2    1    2    0    0  0.59658569164E+02 -0.46755776608E+02 -0.48114246283E+02  0.11927262487E+03  0.78522167743E+02 0.  0.
         23    2    1    2    0    0 -0.29206266997E+02  0.88914994562E+02  0.31853286508E+03  0.34666238779E+03  0.99763433593E+02 0.  0.
         13    1    3    3    0    0  0.46434710870E+02 -0.25076074542E+02 -0.68666813819E+02  0.86603251718E+02  0.00000000000E+00 0. -1.
        -14    1    3    3    0    0  0.13223858294E+02 -0.21679702065E+02  0.20552567536E+02  0.32669373152E+02  0.00000000000E+00 0.  1.
        -11    1    4    4    0    0  0.15340744596E+02  0.13960662556E+02  0.51447911857E+01  0.21370714076E+02  0.00000000000E+00 0. -1.
         11    1    4    4    0    0 -0.44547011593E+02  0.74954332006E+02  0.31338807390E+03  0.32529167372E+03  0.00000000000E+00 0.  1.
          2    1    1    2  501    0 -0.30452302167E+02 -0.42159217954E+02  0.39655987807E+03  0.39995559661E+03  0.00000000000E+00 0. -1.
<scales pt_clust_5="13000.00000" pt_clust_6="13000.00000" pt_clust_7="13000.00000" pt_clust_8="13000.00000" pt_clust_9="52.00714"></scales>
<clustering>
<clus scale="   52.007">  1  9  2 -1</clus>
<clus scale="   78.522">  5  6 -1 -1</clus>
<clus scale="   99.763">  7  8 -1 -1</clus>
<clus scale="  109.390">  2  5  1 -1</clus>
<clus scale="   52.007">  1  5  2 -1</clus>
</clustering>
</event>
<event>
 9    1  0.9171696E-005  0.1291888E+03  0.7546771E-02  0.1241350E+00
         21   -1    0    0  501  502  0.00000000000E+00  0.00000000000E+00  0.87096664365E+02  0.87096664365E+02  0.00000000000E+00 0.  1.
         -2   -1    0    0    0  501 -0.00000000000E+00 -0.00000000000E+00 -0.35500013231E+03  0.35500013231E+03  0.00000000000E+00 0.  1.
         23    2    1    2    0    0 -0.40025619370E+02  0.67920943405E+01 -0.66883477224E+02  0.12000053661E+03  0.90986518286E+02 0.  0.
        -24    2    1    2    0    0  0.10098870993E+02 -0.10300958269E+03 -0.17283243589E+03  0.21746379101E+03  0.81893151005E+02 0.  0.
         11    1    4    4    0    0 -0.26343921352E+02 -0.59737137277E+02 -0.50017884780E+02  0.82245465286E+02  0.00000000000E+00 0. -1.
        -12    1    4    4    0    0  0.36442792345E+02 -0.43272445415E+02 -0.12281455111E+03  0.13521832572E+03  0.00000000000E+00 0.  1.
        -13    1    3    3    0    0 -0.57570472185E+01  0.21254502015E+02 -0.78104605455E+02  0.81149410607E+02  0.00000000000E+00 0. -1.
         13    1    3    3    0    0 -0.34268572151E+02 -0.14462407674E+02  0.11221128230E+02  0.38851126004E+02  0.00000000000E+00 0.  1.
         -1    1    1    2    0  502  0.29926748377E+02  0.96217488351E+02 -0.28187554824E+02  0.10463246905E+03  0.00000000000E+00 0.  1.
<scales pt_clust_5="13000.00000" pt_clust_6="13000.00000" pt_clust_7="13000.00000" pt_clust_8="13000.00000" pt_clust_9="99.91627"></scales>
<clustering>
<clus scale="   81.893">  5  6 -1 -1</clus>
<clus scale="   90.987">  7  8 -1 -1</clus>
<clus scale="   99.633">  2  7  1 -1</clus>
<clus scale="   99.916">  1  9  2 -1</clus>
<clus scale="   99.916">  1  5  2 -1</clus>
</clustering>
</event>
<event>
 9    1  0.9171696E-005  0.1610721E+03  0.7546771E-02  0.1204510E+00
         21   -1    0    0  501  502  0.00000000000E+00  0.00000000000E+00  0.29901951344E+03  0.29901951344E+03  0.00000000000E+00 0.  1.
         -2   -1    0    0    0  501 -0.00000000000E+00 -0.00000000000E+00 -0.22576915406E+03  0.22576915406E+03  0.00000000000E+00 0.  1.
         23    2    1    2    0    0 -0.73002102908E+01 -0.60112275038E+02  0.30772766807E+02  0.11520219767E+03  0.93047323927E+02 0.  0.
        -24    2    1    2    0    0  0.12467242235E+03 -0.55566078255E+02  0.14599176642E+03  0.21497685606E+03  0.79187441117E+02 0.  0.
         13    1    4    4    0    0  0.72245579496E+02  0.10722856780E+02  0.73725318267E+02  0.10377777203E+03  0.00000000000E+00 0. -1.
        -14    1    4    4    0    0  0.52426842856E+02 -0.66288935034E+02  0.72266448157E+02  0.11119908403E+03  0.00000000000E+00 0.  1.
        -11    1    3    3    0    0 -0.30865217445E+02 -0.50671742370E+02  0.54419357535E+02  0.80509338571E+02  0.00000000000E+00 0. -1.
         11    1    3    3    0    0  0.23565007154E+02 -0.94405326682E+01 -0.23646590728E+02  0.34692859096E+02  0.00000000000E+00 0.  1.
         -1    1    1    2    0  502 -0.11737221206E+03  0.11567835329E+03 -0.10351417384E+03  0.19460961377E+03  0.00000000000E+00 0.  1.
<scales pt_clust_5="13000.00000" pt_clust_6="13000.00000" pt_clust_7="13000.00000" pt_clust_8="13000.00000" pt_clust_9="140.26258"></scales>
<clustering>
<clus scale="   79.187">  5  6 -1 -1</clus>
<clus scale="   93.047">  7  8 -1 -1</clus>
<clus scale="  111.016">  2  7  1 -1</clus>
<clus scale="  140.263">  1  9  2 -1</clus>
<clus scale="  140.263">  1  5  2 -1</clus>
</clustering>
</event>
<event>
 9    1  0.9171696E-005  0.9169656E+02  0.7546771E-02  0.1306686E+00
          1   -1    0    0  502    0 -0.00000000000E+00  0.00000000000E+00  0.16026700082E+03  0.16026700082E+03  0.00000000000E+00 0. -1.
         21   -1    0    0  501  502  0.00000000000E+00 -0.00000000000E+00 -0.23384487764E+03  0.23384487764E+03  0.00000000000E+00 0.  1.
        -24    2    1    2    0    0 -0.58810529263E+01 -0.55501807789E+01  0.13401224737E+03  0.15567564828E+03  0.78805036205E+02 0.  0.
         23    2    1    2    0    0  0.26787806586E+02  0.10255253399E+02 -0.17500557872E+03  0.19943645249E+03  0.91242474712E+02 0.  0.
         11    1    3    3    0    0  0.29133165776E+02 -0.16740821037E+02  0.10037298307E+03  0.10584768380E+03  0.00000000000E+00 0. -1.
        -12    1    3    3    0    0 -0.35014218702E+02  0.11190640258E+02  0.33639264307E+02  0.49827964476E+02  0.00000000000E+00 0.  1.
        -13    1    4    4    0    0 -0.14622201763E+02  0.40805293488E+02 -0.93278213819E+02  0.10285769750E+03  0.00000000000E+00 0.  1.
         13    1    4    4    0    0  0.41410008349E+02 -0.30550040089E+02 -0.81727364906E+02  0.96578754990E+02  0.00000000000E+00 0. -1.
          2    1    1    2  501    0 -0.20906753659E+02 -0.47050726203E+01 -0.32584545466E+02  0.38999777693E+02  0.00000000000E+00 0. -1.
<scales pt_clust_5="13000.00000" pt_clust_6="13000.00000" pt_clust_7="13000.00000" pt_clust_8="13000.00000" pt_clust_9="21.42965"></scales>
<clustering>
<clus scale="   21.430">  2  9  1 -1</clus>
<clus scale="   78.805">  5  6 -1 -1</clus>
<clus scale="   79.330">  1  5  2 -1</clus>
<clus scale="   91.242">  7  8 -1 -1</clus>
<clus scale="   21.430">  2  5  1 -1</clus>
</clustering>
</event>
<event>
 9    1  0.9171696E-005  0.1238078E+03  0.7546771E-02  0.1254760E+00
          1   -1    0    0  502    0 -0.00000000000E+00  0.00000000000E+00  0.93576019817E+02  0.93576019817E+02  0.00000000000E+00 0. -1.
         21   -1    0    0  501  502  0.00000000000E+00 -0.00000000000E+00 -0.26192721931E+03  0.26192721931E+03  0.00000000000E+00 0. -1.
        -24    2    1    2    0    0  0.25409092578E+02 -0.21264642672E+02 -0.95833778439E+02  0.12911074301E+03  0.79922861911E+02 0.  0.
         23    2    1    2    0    0  0.61776804219E+02  0.40822952640E+02 -0.11403952713E+02  0.11813925551E+03  0.91345205424E+02 0.  0.
         13    1    3    3    0    0 -0.20864300309E+02 -0.32714840265E+02 -0.40874125781E+02  0.56358441774E+02  0.00000000000E+00 0. -1.
        -14    1    3    3    0    0  0.46273392886E+02  0.11450197593E+02 -0.54959652658E+02  0.72752301231E+02  0.00000000000E+00 0.  1.
        -13    1    4    4    0    0  0.26509249778E+02  0.16189786307E+01 -0.47371174773E+02  0.54308283116E+02  0.00000000000E+00 0.  1.
         13    1    4    4    0    0  0.35267554441E+02  0.39203974009E+02  0.35967222061E+02  0.63830972397E+02  0.00000000000E+00 0. -1.
          2    1    1    2  501    0 -0.87185896796E+02 -0.19558309968E+02 -0.61113468337E+02  0.10825324060E+03  0.00000000000E+00 0. -1.
<scales pt_clust_5="13000.00000" pt_clust_6="13000.00000" pt_clust_7="13000.00000" pt_clust_8="13000.00000" pt_clust_9="83.57293"></scales>
<clustering>
<clus scale="   79.923">  5  6 -1 -1</clus>
<clus scale="   86.519">  1  5  2 -1</clus>
<clus scale="   83.573">  2  9  1 -1</clus>
<clus scale="   91.345">  7  8 -1 -1</clus>
<clus scale="   83.573">  2  5  1 -1</clus>
</clustering>
</event>
<event>
 9    1  0.9171696E-005  0.1964567E+03  0.7546771E-02  0.1154168E+00
          1   -1    0    0  502    0 -0.00000000000E+00  0.00000000000E+00  0.13331781570E+04  0.13331781570E+04  0.00000000000E+00 0. -1.
         21   -1    0    0  501  502  0.00000000000E+00 -0.00000000000E+00 -0.37797275940E+02  0.37797275940E+02  0.00000000000E+00 0. -1.
        -24    2    1    2    0    0 -0.18623418108E+03  0.95144637242E+01  0.66892765670E+03  0.69886497054E+03  0.78576980888E+02 0.  0.
         23    2    1    2    0    0  0.15580860869E+03  0.37822044588E+02  0.44263440043E+03  0.47987149521E+03  0.92976394176E+02 0.  0.
         13    1    3    3    0    0 -0.17517160566E+03  0.31227006568E+02  0.59350560559E+03  0.61960400357E+03  0.00000000000E+00 0. -1.
        -14    1    3    3    0    0 -0.11062575416E+02 -0.21712542844E+02  0.75422051104E+02  0.79260966966E+02  0.00000000000E+00 0.  1.
        -13    1    4    4    0    0  0.27533701776E+02 -0.13595361589E+02  0.18482411800E+03  0.18735766113E+03  0.00000000000E+00 0.  1.
         13    1    4    4    0    0  0.12827490691E+03  0.51417406177E+02  0.25781028243E+03  0.29251383408E+03  0.00000000000E+00 0. -1.
          2    1    1    2  501    0  0.30425572392E+02 -0.47336508312E+02  0.18381882389E+03  0.19223896715E+03  0.00000000000E+00 0. -1.
<scales pt_clust_5="13000.00000" pt_clust_6="13000.00000" pt_clust_7="13000.00000" pt_clust_8="13000.00000" pt_clust_9="56.27134"></scales>
<clustering>
<clus scale="   56.271">  2  9  1 -1</clus>
<clus scale="   78.577">  5  6 -1 -1</clus>
<clus scale="   92.976">  7  8 -1 -1</clus>
<clus scale="  190.066">  1  5  2 -1</clus>
<clus scale="   56.271">  2  5  1 -1</clus>
</clustering>
</event>
<event>
 9    1  0.9171696E-005  0.3368971E+03  0.7546771E-02  0.1068321E+00
         -2   -1    0    0    0  501 -0.00000000000E+00  0.00000000000E+00  0.74138969974E+03  0.74138969974E+03  0.00000000000E+00 0.  1.
         21   -1    0    0  501  502  0.00000000000E+00 -0.00000000000E+00 -0.19987691341E+03  0.19987691341E+03  0.00000000000E+00 0.  1.
         23    2    1    2    0    0 -0.17784929514E+03  0.29592551937E+03  0.33325785418E+03  0.48800209775E+03  0.88786064430E+02 0.  0.
        -24    2    1    2    0    0  0.20098715119E+03 -0.22259287482E+03  0.11271518895E+03  0.33062325127E+03  0.81630861759E+02 0.  0.
         11    1    4    4    0    0  0.47285086763E+02 -0.10584329648E+03  0.60034442965E+02  0.13054814124E+03  0.00000000000E+00 0. -1.
        -12    1    4    4    0    0  0.15370206443E+03 -0.11674957834E+03  0.52680745985E+02  0.20007511002E+03  0.00000000000E+00 0.  1.
        -11    1    3    3    0    0 -0.15479199353E+03  0.27317976357E+03  0.32990694290E+03  0.45544081444E+03  0.00000000000E+00 0.  1.
         11    1    3    3    0    0 -0.23057301604E+02  0.22745755798E+02  0.33509112835E+01  0.32561283305E+02  0.00000000000E+00 0. -1.
         -1    1    1    2    0  502 -0.23137856056E+02 -0.73332644547E+02  0.95539743200E+02  0.12264126414E+03  0.00000000000E+00 0.  1.
<scales pt_clust_5="13000.00000" pt_clust_6="13000.00000" pt_clust_7="13000.00000" pt_clust_8="13000.00000" pt_clust_9="76.89631"></scales>
<clustering>
<clus scale="   76.896">  2  9  1 -1</clus>
<clus scale="   81.631">  5  6 -1 -1</clus>
<clus scale="   88.786">  7  8 -1 -1</clus>
<clus scale="  335.083">  2  5  1 -1</clus>
<clus scale="   76.896">  2  5  1 -1</clus>
</clustering>
</event>
<event>
 9    1  0.9171696E-005  0.1879601E+03  0.7546771E-02  0.1187427E+00
         -2   -1    0    0    0  501 -0.00000000000E+00  0.00000000000E+00  0.94259612134E+02  0.94259612134E+02  0.00000000000E+00 0.  1.
         21   -1    0    0  501  502  0.00000000000E+00 -0.00000000000E+00 -0.98688560573E+03  0.98688560573E+03  0.00000000000E+00 0.  1.
         23    2    1    2    0    0 -0.61846236683E+01 -0.43877855198E+02 -0.12419538542E+03  0.16040169230E+03  0.91327396692E+02 0.  0.
        -24    2    1    2    0    0 -0.43839569276E+02  0.20183781521E+03 -0.11938480787E+03  0.25088218189E+03  0.77644866905E+02 0.  0.
         11    1    4    4    0    0 -0.44293872508E+02  0.50669389408E+02 -0.53523055175E+02  0.85988671347E+02  0.00000000000E+00 0. -1.
        -12    1    4    4    0    0  0.45430323196E+00  0.15116842581E+03 -0.65861752691E+02  0.16489351054E+03  0.00000000000E+00 0.  1.
        -13    1    3    3    0    0  0.36510436616E+02 -0.17538685157E+02 -0.20922338617E+02  0.45589052547E+02  0.00000000000E+00 0.  1.
         13    1    3    3    0    0 -0.42695060284E+02 -0.26339170041E+02 -0.10327304681E+03  0.11481263976E+03  0.00000000000E+00 0. -1.
         -1    1    1    2    0  502  0.50024192945E+02 -0.15795996002E+03 -0.64904580031E+03  0.66986134368E+03  0.00000000000E+00 0.  1.
<scales pt_clust_5="13000.00000" pt_clust_6="13000.00000" pt_clust_7="13000.00000" pt_clust_8="13000.00000" pt_clust_9="171.17327"></scales>
<clustering>
<clus scale="   77.645">  5  6 -1 -1</clus>
<clus scale="   91.327">  7  8 -1 -1</clus>
<clus scale="  101.510">  1  7  2 -1</clus>
<clus scale="  171.173">  2  9  1 -1</clus>
<clus scale="  171.173">  2  5  1 -1</clus>
</clustering>
</event>
<event>
 9    1  0.1018892E-004  0.3176529E+03  0.7546771E-02  0.1105172E+00
          1   -1    0    0  502    0 -0.00000000000E+00  0.00000000000E+00  0.15580632006E+04  0.15580632006E+04  0.00000000000E+00 0. -1.
         21   -1    0    0  501  502  0.00000000000E+00 -0.00000000000E+00 -0.12590103927E+03  0.12590103927E+03  0.00000000000E+00 0. -1.
        -24    2    1    2    0    0 -0.10713419334E+03 -0.67203563696E+02  0.31952616086E+03  0.35296922975E+03  0.80599350614E+02 0.  0.
         23    2    1    2    0    0  0.21334993598E+03 -0.22292448023E+03  0.23033373124E+03  0.39616167731E+03  0.93150028220E+02 0.  0.
         11    1    3    3    0    0 -0.11217690816E+03 -0.77654886751E+02  0.27538957337E+03  0.30733264923E+03  0.00000000000E+00 0. -1.
        -12    1    3    3    0    0  0.50427148205E+01  0.10451323055E+02  0.44136587486E+02  0.45636580517E+02  0.00000000000E+00 0.  1.
        -11    1    4    4    0    0  0.43487635832E+01 -0.52387673179E+02  0.38294929648E+02  0.65037540563E+02  0.00000000000E+00 0.  1.
         11    1    4    4    0    0  0.20900117239E+03 -0.17053680705E+03  0.19203880159E+03  0.33112413675E+03  0.00000000000E+00 0. -1.
          2    1    1    2  501    0 -0.10621574264E+03  0.29012804392E+03  0.88230226921E+03  0.93483333280E+03  0.00000000000E+00 0. -1.
<scales pt_clust_5="13000.00000" pt_clust_6="13000.00000" pt_clust_7="13000.00000" pt_clust_8="13000.00000" pt_clust_9="303.68824"></scales>
<clustering>
<clus scale="   80.599">  5  6 -1 -1</clus>
<clus scale="   93.150">  7  8 -1 -1</clus>
<clus scale="  149.968">  1  5  2 -1</clus>
<clus scale="  303.688">  2  9  1 -1</clus>
<clus scale="  303.688">  2  5  1 -1</clus>
</clustering>
</event>
<event>
 9    1  0.9171696E-005  0.1009910E+03  0.7546771E-02  0.1283571E+00
          1   -1    0    0  502    0 -0.00000000000E+00  0.00000000000E+00  0.47390560145E+03  0.47390560145E+03  0.00000000000E+00 0. -1.
         21   -1    0    0  501  502  0.00000000000E+00 -0.00000000000E+00 -0.69651664492E+02  0.69651664492E+02  0.00000000000E+00 0.  1.
         23    2    1    2    0    0 -0.30821230958E+01  0.47768052279E+02  0.39665765316E+03  0.40979801515E+03  0.91136343515E+02 0.  0.
        -24    2    1    2    0    0  0.75097710117E+01 -0.25394905379E+02  0.40550154007E+02  0.93682832151E+02  0.80192644113E+02 0.  0.
         13    1    4    4    0    0 -0.31603894600E+02 -0.25117086666E+02  0.47311529023E+01  0.40645516410E+02  0.00000000000E+00 0. -1.
        -14    1    4    4    0    0  0.39113665611E+02 -0.27781871273E+00  0.35819001105E+02  0.53037315740E+02  0.00000000000E+00 0.  1.
        -13    1    3    3    0    0  0.36764847905E+02  0.31881710915E+01  0.88374025028E+02  0.95769445942E+02  0.00000000000E+00 0.  1.
         13    1    3    3    0    0 -0.39846971001E+02  0.44579881187E+02  0.30828362814E+03  0.31402856921E+03  0.00000000000E+00 0. -1.
          2    1    1    2  501    0 -0.44276479159E+01 -0.22373146900E+02 -0.32953870216E+02  0.40076418634E+02  0.00000000000E+00 0. -1.
<scales pt_clust_5="13000.00000" pt_clust_6="13000.00000" pt_clust_7="13000.00000" pt_clust_8="13000.00000" pt_clust_9="22.80706"></scales>
<clustering>
<clus scale="   22.807">  2  9  1 -1</clus>
<clus scale="   80.193">  5  6 -1 -1</clus>
<clus scale="   91.136">  7  8 -1 -1</clus>
<clus scale="   91.237">  2  5  1 -1</clus>
<clus scale="   22.807">  2  5  1 -1</clus>
</clustering>
</event>
<event>
 9    1  0.9171696E-005  0.1826046E+03  0.7546771E-02  0.1195673E+00
         21   -1    0    0  501  502  0.00000000000E+00  0.00000000000E+00  0.46089449770E+03  0.46089449770E+03  0.00000000000E+00 0.  1.
         -2   -1    0    0    0  501 -0.00000000000E+00 -0.00000000000E+00 -0.12006842140E+03  0.12006842140E+03  0.00000000000E+00 0.  1.
        -24    2    1    2    0    0  0.28861862641E+02  0.36789363109E+02  0.15212450369E+02  0.93555622773E+02  0.79591278122E+02 0.  0.
         23    2    1    2    0    0 -0.20946298058E+02 -0.17033359349E+03  0.28887811578E+03  0.34867656673E+03  0.93126268781E+02 0.  0.
         13    1    3    3    0    0  0.38709962299E+02 -0.12500953829E+02  0.14806898586E+02  0.43289482251E+02  0.00000000000E+00 0. -1.
        -14    1    3    3    0    0 -0.98480996579E+01  0.49290316938E+02  0.40555178366E+00  0.50266140522E+02  0.00000000000E+00 0.  1.
        -13    1    4    4    0    0  0.12970635031E+02 -0.36844306827E+02  0.14491435135E+02  0.41662237229E+02  0.00000000000E+00 0. -1.
         13    1    4    4    0    0 -0.33916933089E+02 -0.13348928666E+03  0.27438668064E+03  0.30701432950E+03  0.00000000000E+00 0.  1.
         -1    1    1    2    0  502 -0.79155645823E+01  0.13354423038E+03  0.36735510150E+02  0.13873072960E+03  0.00000000000E+00 0.  1.
<scales pt_clust_5="13000.00000" pt_clust_6="13000.00000" pt_clust_7="13000.00000" pt_clust_8="13000.00000" pt_clust_9="157.07313"></scales>
<clustering>
<clus scale="   79.591">  5  6 -1 -1</clus>
<clus scale="   92.311">  2  5  1 -1</clus>
<clus scale="   93.126">  7  8 -1 -1</clus>
<clus scale="  157.073">  1  9  2 -1</clus>
<clus scale="  157.073">  1  5  2 -1</clus>
</clustering>
</event>
<event>
 9    1  0.9171696E-005  0.1503247E+03  0.7546771E-02  0.1202079E+00
         -2   -1    0    0    0  501 -0.00000000000E+00  0.00000000000E+00  0.50726101818E+03  0.50726101818E+03  0.00000000000E+00 0.  1.
         21   -1    0    0  501  502  0.00000000000E+00 -0.00000000000E+00 -0.40686277885E+03  0.40686277885E+03  0.00000000000E+00 0. -1.
        -24    2    1    2    0    0  0.11030701968E+03  0.44834842129E+02  0.46508501791E+03  0.48653543911E+03  0.78961116791E+02 0.  0.
         23    2    1    2    0    0 -0.13675654944E+03 -0.70286813484E+02 -0.24888396514E+03  0.30610719859E+03  0.90087729261E+02 0.  0.
         13    1    3    3    0    0  0.84129475402E+02 -0.64689436627E+01  0.24909877906E+03  0.26300155435E+03  0.00000000000E+00 0. -1.
        -14    1    3    3    0    0  0.26177544282E+02  0.51303785792E+02  0.21598623885E+03  0.22353388476E+03  0.00000000000E+00 0.  1.
        -13    1    4    4    0    0 -0.10493034530E+02 -0.49022752096E+02 -0.67355450437E+02  0.83964818230E+02  0.00000000000E+00 0.  1.
         13    1    4    4    0    0 -0.12626351491E+03 -0.21264061388E+02 -0.18152851470E+03  0.22214238036E+03  0.00000000000E+00 0. -1.
         -1    1    1    2    0  502  0.26449529757E+02  0.25451971355E+02 -0.11580281344E+03  0.12148115933E+03  0.00000000000E+00 0.  1.
<scales pt_clust_5="13000.00000" pt_clust_6="13000.00000" pt_clust_7="13000.00000" pt_clust_8="13000.00000" pt_clust_9="36.70668"></scales>
<clustering>
<clus scale="   36.707">  2  9  1 -1</clus>
<clus scale="   78.961">  5  6 -1 -1</clus>
<clus scale="   90.088">  7  8 -1 -1</clus>
<clus scale="  143.933">  1  5  2 -1</clus>
<clus scale="   36.707">  2  5  1 -1</clus>
</clustering>
</event>
<event>
 9    1  0.9171696E-005  0.1017757E+03  0.7546771E-02  0.1284283E+00
          1   -1    0    0  502    0 -0.00000000000E+00  0.00000000000E+00  0.11319382835E+03  0.11319382835E+03  0.00000000000E+00 0. -1.
         21   -1    0    0  501  502  0.00000000000E+00 -0.00000000000E+00 -0.11968328878E+03  0.11968328878E+03  0.00000000000E+00 0. -1.
         23    2    1    2    0    0 -0.21543441464E+02 -0.23220961902E+02  0.30362549375E+02  0.10338702023E+03  0.93614414519E+02 0.  0.
        -24    2    1    2    0    0  0.48268702039E+02  0.25564853890E+02 -0.19356754675E+02  0.97461713637E+02  0.78362442041E+02 0.  0.
         11    1    4    4    0    0  0.48301444949E+02  0.47280833115E+02 -0.29188354874E+02  0.73623819681E+02  0.00000000000E+00 0. -1.
        -12    1    4    4    0    0 -0.32742909791E-01 -0.21715979225E+02  0.98316001988E+01  0.23837893956E+02  0.00000000000E+00 0.  1.
        -13    1    3    3    0    0 -0.11069014497E+02  0.33363275130E+02 -0.55030769426E+01  0.35579700184E+02  0.00000000000E+00 0.  1.
         13    1    3    3    0    0 -0.10474426967E+02 -0.56584237032E+02  0.35865626318E+02  0.67807320047E+02  0.00000000000E+00 0. -1.
          2    1    1    2  501    0 -0.26725260575E+02 -0.23438919880E+01 -0.17495255131E+02  0.32028383264E+02  0.00000000000E+00 0. -1.
<scales pt_clust_5="13000.00000" pt_clust_6="13000.00000" pt_clust_7="13000.00000" pt_clust_8="13000.00000" pt_clust_9="26.82785"></scales>
<clustering>
<clus scale="   26.828">  2  9  1 -1</clus>
<clus scale="   78.362">  5  6 -1 -1</clus>
<clus scale="   87.951">  2  5  1 -1</clus>
<clus scale="   93.614">  7  8 -1 -1</clus>
<clus scale="   26.828">  2  5  1 -1</clus>
</clustering>
</event>
<event>
 9    1  0.9171696E-005  0.1192509E+03  0.7546771E-02  0.1247768E+00
         21   -1    0    0  501  502  0.00000000000E+00  0.00000000000E+00  0.33133429497E+02  0.33133429497E+02  0.00000000000E+00 0.  1.
          3   -1    0    0  502    0 -0.00000000000E+00 -0.00000000000E+00 -0.87920120549E+03  0.87920120549E+03  0.00000000000E+00 0. -1.
         23    2    1    2    0    0 -0.75566818122E+02  0.18988619413E+02 -0.63739509175E+03  0.64877884323E+03  0.92577387988E+02 0.  0.
        -24    2    1    2    0    0  0.66775487407E+02  0.11429216948E+02 -0.85917988568E+02  0.13678336741E+03  0.82086516078E+02 0.  0.
         11    1    4    4    0    0  0.39838383700E+02  0.29615266028E+02 -0.91220293851E+02  0.10385231248E+03  0.00000000000E+00 0. -1.
        -12    1    4    4    0    0  0.26937103708E+02 -0.18186049080E+02  0.53023052832E+01  0.32931054927E+02  0.00000000000E+00 0.  1.
        -13    1    3    3    0    0  0.20210902840E+02 -0.75252015684E+01 -0.10630455996E+03  0.10847012824E+03  0.00000000000E+00 0.  1.
         13    1    3    3    0    0 -0.95777720962E+02  0.26513820981E+02 -0.53109053179E+03  0.54030871499E+03  0.00000000000E+00 0. -1.
          4    1    1    2  501    0  0.87913307152E+01 -0.30417836360E+02 -0.12275469568E+03  0.12677242435E+03  0.00000000000E+00 0. -1.
<scales pt_clust_5="13000.00000" pt_clust_6="13000.00000" pt_clust_7="13000.00000" pt_clust_8="13000.00000" pt_clust_9="31.66281"></scales>
<clustering>
<clus scale="   31.663">  1  9  2 -1</clus>
<clus scale="   82.087">  5  6 -1 -1</clus>
<clus scale="   92.577">  7  8 -1 -1</clus>
<clus scale="  111.303">  1  5  2 -1</clus>
<clus scale="   31.663">  1  5  2 -1</clus>
</clustering>
</event>
<event>
 9    1  0.9171696E-005  0.9531857E+02  0.7546771E-02  0.1295444E+00
          1   -1    0    0  502    0 -0.00000000000E+00  0.00000000000E+00  0.28481446216E+03  0.28481446216E+03  0.00000000000E+00 0. -1.
         21   -1    0    0  501  502  0.00000000000E+00 -0.00000000000E+00 -0.56310528732E+02  0.56310528732E+02  0.00000000000E+00 0. -1.
        -24    2    1    2    0    0  0.27156754120E+02  0.33992935286E+01  0.14692375068E+03  0.16969472637E+03  0.80378275378E+02 0.  0.
         23    2    1    2    0    0 -0.50113810786E+02  0.29846017996E+02  0.41639949756E+02  0.11461917933E+03  0.89451059430E+02 0.  0.
         13    1    3    3    0    0  0.36907656820E+02 -0.10139749368E+02  0.23002741589E+02  0.44655523396E+02  0.00000000000E+00 0. -1.
        -14    1    3    3    0    0 -0.97509026992E+01  0.13539042897E+02  0.12392100909E+03  0.12503920297E+03  0.00000000000E+00 0.  1.
        -13    1    4    4    0    0 -0.26767337890E+02 -0.30168184332E+02  0.53010540733E+01  0.40678137837E+02  0.00000000000E+00 0.  1.
         13    1    4    4    0    0 -0.23346472896E+02  0.60014202328E+02  0.36338895683E+02  0.73941041494E+02  0.00000000000E+00 0. -1.
          2    1    1    2  501    0  0.22957056665E+02 -0.33245311525E+02  0.39940232992E+02  0.56811085191E+02  0.00000000000E+00 0. -1.
<scales pt_clust_5="13000.00000" pt_clust_6="13000.00000" pt_clust_7="13000.00000" pt_clust_8="13000.00000" pt_clust_9="40.40147"></scales>
<clustering>
<clus scale="   40.401">  2  9  1 -1</clus>
<clus scale="   80.378">  5  6 -1 -1</clus>
<clus scale="   86.861">  1  5  2 -1</clus>
<clus scale="   89.451">  7  8 -1 -1</clus>
<clus scale="   40.401">  2  5  1 -1</clus>
</clustering>
</event>
<event>
 9    1  0.9171696E-005  0.1079387E+03  0.7546771E-02  0.1268646E+00
          1   -1    0    0  502    0 -0.00000000000E+00  0.00000000000E+00  0.58172449412E+02  0.58172449412E+02  0.00000000000E+00 0. -1.
         21   -1    0    0  501  502  0.00000000000E+00 -0.00000000000E+00 -0.51943433662E+03  0.51943433662E+03  0.00000000000E+00 0.  1.
        -24    2    1    2    0    0  0.20213611828E+02 -0.47448042411E+02 -0.23616712098E+02  0.99151143906E+02  0.81322158208E+02 0.  0.
         23    2    1    2    0    0  0.17552437023E+02  0.92331104713E+02 -0.25724227792E+03  0.28875596094E+03  0.91505707400E+02 0.  0.
         11    1    3    3    0    0  0.15257896178E+02 -0.70768707520E+02 -0.19284613794E+02  0.74919354569E+02  0.00000000000E+00 0. -1.
        -12    1    3    3    0    0  0.49557156503E+01  0.23320665109E+02 -0.43320983039E+01  0.24231789336E+02  0.00000000000E+00 0.  1.
        -11    1    4    4    0    0 -0.16352267969E+02  0.85787585965E+02 -0.22562538874E+03  0.24193743534E+03  0.00000000000E+00 0.  1.
         11    1    4    4    0    0  0.33904704992E+02  0.65435187481E+01 -0.31616889174E+02  0.46818525599E+02  0.00000000000E+00 0. -1.
          2    1    1    2  501    0 -0.37766048851E+02 -0.44883062302E+02 -0.18040289720E+03  0.18969968119E+03  0.00000000000E+00 0. -1.
<scales pt_clust_5="13000.00000" pt_clust_6="13000.00000" pt_clust_7="13000.00000" pt_clust_8="13000.00000" pt_clust_9="58.65802"></scales>
<clustering>
<clus scale="   58.658">  2  9  1 -1</clus>
<clus scale="   81.322">  5  6 -1 -1</clus>
<clus scale="   91.506">  7  8 -1 -1</clus>
<clus scale="   99.452">  1  5  2 -1</clus>
<clus scale="   58.658">  2  5  1 -1</clus>
</clustering>
</event>
<event>
 9    1  0.9171696E-005  0.9487620E+02  0.7546771E-02  0.1295947E+00
         21   -1    0    0  501  502  0.00000000000E+00  0.00000000000E+00  0.34066203718E+03  0.34066203718E+03  0.00000000000E+00 0.  1.
          1   -1    0    0  502    0 -0.00000000000E+00 -0.00000000000E+00 -0.92768539720E+02  0.92768539720E+02  0.00000000000E+00 0. -1.
         23    2    1    2    0    0  0.79553258420E+01  0.25590375045E+02  0.24042166138E+02  0.95500332288E+02  0.88454130544E+02 0.  0.
        -24    2    1    2    0    0  0.28664120819E+02 -0.72346974628E+02  0.24938215923E+03  0.27328516241E+03  0.80234668871E+02 0.  0.
         11    1    4    4    0    0  0.39259721158E+02 -0.20345195804E+02  0.49033537823E+02  0.66026816742E+02  0.00000000000E+00 0. -1.
        -12    1    4    4    0    0 -0.10595600339E+02 -0.52001778823E+02  0.20034862141E+03  0.20725834567E+03  0.00000000000E+00 0.  1.
        -11    1    3    3    0    0  0.46059566911E+02  0.40054342782E+01  0.15276769436E+01  0.46258631677E+02  0.00000000000E+00 0.  1.
         11    1    3    3    0    0 -0.38104241069E+02  0.21584940767E+02  0.22514489195E+02  0.49241700611E+02  0.00000000000E+00 0. -1.
          2    1    1    2  501    0 -0.36619446661E+02  0.46756599583E+02 -0.25530827916E+02  0.64645082198E+02  0.00000000000E+00 0. -1.
<scales pt_clust_5="13000.00000" pt_clust_6="13000.00000" pt_clust_7="13000.00000" pt_clust_8="13000.00000" pt_clust_9="59.38996"></scales>
<clustering>
<clus scale="   59.390">  1  9  2 -1</clus>
<clus scale="   80.235">  5  6 -1 -1</clus>
<clus scale="   87.264">  1  5  2 -1</clus>
<clus scale="   88.454">  7  8 -1 -1</clus>
<clus scale="   59.390">  1  5  2 -1</clus>
</clustering>
</event>
<event>
 9    1  0.9171696E-005  0.9556255E+02  0.7546771E-02  0.1296706E+00
          1   -1    0    0  502    0 -0.00000000000E+00  0.00000000000E+00  0.71875553183E+02  0.71875553183E+02  0.00000000000E+00 0. -1.
         21   -1    0    0  501  502  0.00000000000E+00 -0.00000000000E+00 -0.45768960056E+03  0.45768960056E+03  0.00000000000E+00 0.  1.
         23    2    1    2    0    0 -0.16510092954E+02  0.14655068133E+02  0.27191228852E+02  0.99554634633E+02  0.93190172009E+02 0.  0.
        -24    2    1    2    0    0  0.27945959878E+02  0.13462104260E+02 -0.26688462029E+03  0.28077044229E+03  0.81501139834E+02 0.  0.
         11    1    4    4    0    0 -0.14589973631E+02 -0.17777560798E+02 -0.28540441794E+02  0.36653319308E+02  0.00000000000E+00 0. -1.
        -12    1    4    4    0    0  0.42535933508E+02  0.31239665058E+02 -0.23834417850E+03  0.24411712299E+03  0.00000000000E+00 0.  1.
        -11    1    3    3    0    0 -0.50742230791E+02 -0.20294380747E+01  0.33663074274E+02  0.60926965903E+02  0.00000000000E+00 0. -1.
         11    1    3    3    0    0  0.34232137838E+02  0.16684506207E+02 -0.64718454225E+01  0.38627668730E+02  0.00000000000E+00 0.  1.
          2    1    1    2  501    0 -0.11435866924E+02 -0.28117172393E+02 -0.14612065594E+03  0.14924007681E+03  0.00000000000E+00 0. -1.
<scales pt_clust_5="13000.00000" pt_clust_6="13000.00000" pt_clust_7="13000.00000" pt_clust_8="13000.00000" pt_clust_9="30.35382"></scales>
<clustering>
<clus scale="   30.354">  2  9  1 -1</clus>
<clus scale="   81.501">  5  6 -1 -1</clus>
<clus scale="   84.203">  2  5  1 -1</clus>
<clus scale="   93.190">  7  8 -1 -1</clus>
<clus scale="   30.354">  2  5  1 -1</clus>
</clustering>
</event>
<event>
 9    1  0.9171696E-005  0.1233269E+03  0.7546771E-02  0.1238850E+00
         21   -1    0    0  501  502  0.00000000000E+00  0.00000000000E+00  0.61048875307E+03  0.61048875307E+03  0.00000000000E+00 0. -1.
          3   -1    0    0  502    0 -0.00000000000E+00 -0.00000000000E+00 -0.42073909241E+02  0.42073909241E+02  0.00000000000E+00 0. -1.
         23    2    1    2    0    0 -0.45444395222E+02 -0.57861658545E+02  0.11794264355E+03  0.16500647906E+03  0.88901666902E+02 0.  0.
        -24    2    1    2    0    0  0.58528622861E+02  0.94363112729E+02  0.28286947129E+03  0.31552645345E+03  0.84922366323E+02 0.  0.
         11    1    4    4    0    0  0.77551363557E+02  0.76623804085E+02  0.25540614162E+03  0.27770077155E+03  0.00000000000E+00 0. -1.
        -12    1    4    4    0    0 -0.19022740696E+02  0.17739308644E+02  0.27463329667E+02  0.37825681900E+02  0.00000000000E+00 0.  1.
        -11    1    3    3    0    0  0.55701492213E+01 -0.61956878462E+02  0.49238052816E+02  0.79335157378E+02  0.00000000000E+00 0. -1.
         11    1    3    3    0    0 -0.51014544444E+02  0.40952199168E+01  0.68704590737E+02  0.85671321685E+02  0.00000000000E+00 0.  1.
          4    1    1    2  501    0 -0.13084227639E+02 -0.36501454184E+02  0.16760272899E+03  0.17202972980E+03  0.00000000000E+00 0. -1.
<scales pt_clust_5="13000.00000" pt_clust_6="13000.00000" pt_clust_7="13000.00000" pt_clust_8="13000.00000" pt_clust_9="38.77568"></scales>
<clustering>
<clus scale="   38.776">  1  9  2 -1</clus>
<clus scale="   84.922">  5  6 -1 -1</clus>
<clus scale="   88.902">  7  8 -1 -1</clus>
<clus scale="  120.490">  1  5  2 -1</clus>
<clus scale="   38.776">  1  5  2 -1</clus>
</clustering>
</event>
<event>
 9    1  0.9171696E-005  0.2065648E+03  0.7546771E-02  0.1145109E+00
          1   -1    0    0  502    0 -0.00000000000E+00  0.00000000000E+00  0.29999806222E+03  0.29999806222E+03  0.00000000000E+00 0. -1.
         21   -1    0    0  501  502  0.00000000000E+00 -0.00000000000E+00 -0.16154851003E+03  0.16154851003E+03  0.00000000000E+00 0. -1.
        -24    2    1    2    0    0 -0.15616779212E+03  0.10222250320E+03  0.88239087195E+02  0.22202320252E+03  0.81672189222E+02 0.  0.
         23    2    1    2    0    0  0.14018370238E+03 -0.12051209580E+03  0.30502890480E+02  0.20824416234E+03  0.90887673369E+02 0.  0.
         13    1    3    3    0    0 -0.83477679030E+02  0.74434894297E+01  0.28903324047E+02  0.88652865561E+02  0.00000000000E+00 0. -1.
        -14    1    3    3    0    0 -0.72690113088E+02  0.94779013771E+02  0.59335763148E+02  0.13337033696E+03  0.00000000000E+00 0.  1.
        -11    1    4    4    0    0  0.57903490769E+02 -0.10269122008E+03  0.37640305599E+02  0.12375416571E+03  0.00000000000E+00 0.  1.
         11    1    4    4    0    0  0.82280211615E+02 -0.17820875718E+02 -0.71374151189E+01  0.84489996623E+02  0.00000000000E+00 0. -1.
          2    1    1    2  501    0  0.15984089734E+02  0.18289592603E+02  0.19707574512E+02  0.31279207396E+02  0.00000000000E+00 0. -1.
<scales pt_clust_5="13000.00000" pt_clust_6="13000.00000" pt_clust_7="13000.00000" pt_clust_8="13000.00000" pt_clust_9="24.28993"></scales>
<clustering>
<clus scale="   24.290">  2  9  1 -1</clus>
<clus scale="   81.672">  5  6 -1 -1</clus>
<clus scale="   90.888">  7  8 -1 -1</clus>
<clus scale="  202.679">  1  5  2 -1</clus>
<clus scale="   24.290">  2  5  1 -1</clus>
</clustering>
</event>
<event>
 9    1  0.9171696E-005  0.9426383E+02  0.7546771E-02  0.1299906E+00
          1   -1    0    0  502    0 -0.00000000000E+00  0.00000000000E+00  0.42661685454E+03  0.42661685454E+03  0.00000000000E+00 0. -1.
         21   -1    0    0  501  502  0.00000000000E+00 -0.00000000000E+00 -0.46824349188E+02  0.46824349188E+02  0.00000000000E+00 0.  1.
         23    2    1    2    0    0 -0.12655334336E+02 -0.16187599174E+02  0.33331899952E+03  0.34669596036E+03  0.93136124229E+02 0.  0.
        -24    2    1    2    0    0  0.41018253507E+01 -0.12075804206E+02  0.50950323309E+02  0.96878466153E+02  0.81405477337E+02 0.  0.
         13    1    4    4    0    0  0.32577615498E+02 -0.16763922476E+02  0.56646793904E+02  0.67462503570E+02  0.00000000000E+00 0. -1.
        -14    1    4    4    0    0 -0.28475790148E+02  0.46881182699E+01 -0.56964705947E+01  0.29415962583E+02  0.00000000000E+00 0.  1.
        -11    1    3    3    0    0 -0.37577192220E+02  0.26404872125E+02  0.16866257287E+03  0.17480367883E+03  0.00000000000E+00 0.  1.
         11    1    3    3    0    0  0.24921857883E+02 -0.42592471298E+02  0.16465642665E+03  0.17189228153E+03  0.00000000000E+00 0. -1.
          2    1    1    2  501    0  0.85535089857E+01  0.28263403380E+02 -0.44768174738E+01  0.29866777216E+02  0.00000000000E+00 0. -1.
<scales pt_clust_5="13000.00000" pt_clust_6="13000.00000" pt_clust_7="13000.00000" pt_clust_8="13000.00000" pt_clust_9="29.52935"></scales>
<clustering>
<clus scale="   29.529">  2  9  1 -1</clus>
<clus scale="   81.405">  5  6 -1 -1</clus>
<clus scale="   82.693">  2  5  1 -1</clus>
<clus scale="   93.136">  7  8 -1 -1</clus>
<clus scale="   29.529">  2  5  1 -1</clus>
</clustering>
</event>
<event>
 9    1  0.9171696E-005  0.1333516E+03  0.7546771E-02  0.1224870E+00
          1   -1    0    0  502    0 -0.00000000000E+00  0.00000000000E+00  0.36868460713E+03  0.36868460713E+03  0.00000000000E+00 0. -1.
         21   -1    0    0  501  502  0.00000000000E+00 -0.00000000000E+00 -0.62884700623E+02  0.62884700623E+02  0.00000000000E+00 0. -1.
         23    2    1    2    0    0  0.87045740237E+02  0.75741069560E+02  0.15431397936E+03  0.21266010707E+03  0.89988034768E+02 0.  0.
        -24    2    1    2    0    0 -0.50890039708E+02 -0.65160750788E+02  0.87953368686E+02  0.14504741212E+03  0.80419134000E+02 0.  0.
         11    1    4    4    0    0 -0.47069225986E+01 -0.52416938269E+02  0.10031256103E+02  0.53575336087E+02  0.00000000000E+00 0. -1.
        -12    1    4    4    0    0 -0.46183117110E+02 -0.12743812519E+02  0.77922112583E+02  0.91472076028E+02  0.00000000000E+00 0.  1.
        -11    1    3    3    0    0  0.25983701821E+02  0.56954558080E+02  0.13002808609E+03  0.14431312352E+03  0.00000000000E+00 0. -1.
         11    1    3    3    0    0  0.61062038415E+02  0.18786511480E+02  0.24285893269E+02  0.68346983554E+02  0.00000000000E+00 0.  1.
          2    1    1    2  501    0 -0.36155700529E+02 -0.10580318772E+02  0.63532558459E+02  0.73861788567E+02  0.00000000000E+00 0. -1.
<scales pt_clust_5="13000.00000" pt_clust_6="13000.00000" pt_clust_7="13000.00000" pt_clust_8="13000.00000" pt_clust_9="37.67200"></scales>
<clustering>
<clus scale="   37.672">  2  9  1 -1</clus>
<clus scale="   80.419">  5  6 -1 -1</clus>
<clus scale="   89.988">  7  8 -1 -1</clus>
<clus scale="  127.091">  2  5  1 -1</clus>
<clus scale="   37.672">  2  5  1 -1</clus>
</clustering>
</event>
<event>
 9    1  0.9171696E-005  0.1943139E+03  0.7546771E-02  0.1155237E+00
         -2   -1    0    0    0  501 -0.00000000000E+00  0.00000000000E+00  0.72957432627E+03  0.72957432627E+03  0.00000000000E+00 0.  1.
         21   -1    0    0  501  502  0.00000000000E+00 -0.00000000000E+00 -0.94959635111E+02  0.94959635111E+02  0.00000000000E+00 0. -1.
        -24    2    1    2    0    0  0.21155133061E+03 -0.31157948624E+02  0.36969072674E+03  0.43536645728E+03  0.84545463772E+02 0.  0.
         23    2    1    2    0    0 -0.10580125957E+03  0.88059355767E+02  0.14646203583E+03  0.22048414338E+03  0.90629867464E+02 0.  0.
         11    1    3    3    0    0  0.23553825270E+02 -0.31494082217E+02  0.41716564510E+02  0.57331768279E+02  0.00000000000E+00 0. -1.
        -12    1    3    3    0    0  0.18799750534E+03  0.33613359262E+00  0.32797416223E+03  0.37803468900E+03  0.00000000000E+00 0.  1.
        -13    1    4    4    0    0 -0.26053583154E+02  0.39833741023E+02  0.11099132415E+03  0.12076667651E+03  0.00000000000E+00 0.  1.
         13    1    4    4    0    0 -0.79747676421E+02  0.48225614744E+02  0.35470711686E+02  0.99717466873E+02  0.00000000000E+00 0. -1.
         -1    1    1    2    0  502 -0.10575007103E+03 -0.56901407143E+02  0.11846192859E+03  0.16868336072E+03  0.00000000000E+00 0.  1.
<scales pt_clust_5="13000.00000" pt_clust_6="13000.00000" pt_clust_7="13000.00000" pt_clust_8="13000.00000" pt_clust_9="120.08683"></scales>
<clustering>
<clus scale="   84.545">  5  6 -1 -1</clus>
<clus scale="   90.630">  7  8 -1 -1</clus>
<clus scale="  120.087">  2  9  1 -1</clus>
<clus scale="  191.552">  1  5  2 -1</clus>
<clus scale="  120.087">  2  5  1 -1</clus>
</clustering>
</event>
<event>
 9    1  0.9171696E-005  0.1899766E+03  0.7546771E-02  0.1193704E+00
         21   -1    0    0  501  502  0.00000000000E+00  0.00000000000E+00  0.81219716933E+03  0.81219716933E+03  0.00000000000E+00 0.  1.
          1   -1    0    0  502    0 -0.00000000000E+00 -0.00000000000E+00 -0.68235284996E+02  0.68235284996E+02  0.00000000000E+00 0. -1.
         23    2    1    2    0    0  0.13944007965E+00  0.18062107285E+01  0.79445878030E+02  0.11678073136E+03  0.85573417831E+02 0.  0.
        -24    2    1    2    0    0  0.45198781856E+02 -0.17823208640E+03  0.29035993816E+03  0.34750943083E+03  0.51422799673E+02 0.  0.
         11    1    4    4    0    0 -0.10642730583E+02 -0.30311380500E+02  0.38613522117E+02  0.50229986983E+02  0.00000000000E+00 0. -1.
        -12    1    4    4    0    0  0.55841512438E+02 -0.14792070590E+03  0.25174641604E+03  0.29727944385E+03  0.00000000000E+00 0.  1.
        -13    1    3    3    0    0 -0.37264953249E+02  0.13180201487E+02  0.62986217214E+02  0.74361670307E+02  0.00000000000E+00 0. -1.
         13    1    3    3    0    0  0.37404393329E+02 -0.11373990759E+02  0.16459660816E+02  0.42419061049E+02  0.00000000000E+00 0.  1.
          2    1    1    2  501    0 -0.45338221935E+02  0.17642587567E+03  0.37415606815E+03  0.41614229214E+03  0.00000000000E+00 0. -1.
<scales pt_clust_5="13000.00000" pt_clust_6="13000.00000" pt_clust_7="13000.00000" pt_clust_8="13000.00000" pt_clust_9="182.88466"></scales>
<clustering>
<clus scale="   51.423">  5  6 -1 -1</clus>
<clus scale="   85.573">  7  8 -1 -1</clus>
<clus scale="   85.593">  2  7  1 -1</clus>
<clus scale="  182.885">  1  9  2 -1</clus>
<clus scale="  182.885">  1  5  2 -1</clus>
</clustering>
</event>
<event>
 9    1  0.9171696E-005  0.1036446E+03  0.7546771E-02  0.1276719E+00
          1   -1    0    0  502    0 -0.00000000000E+00  0.00000000000E+00  0.16466328369E+03  0.16466328369E+03  0.00000000000E+00 0. -1.
         21   -1    0    0  501  502  0.00000000000E+00 -0.00000000000E+00 -0.18364776049E+03  0.18364776049E+03  0.00000000000E+00 0. -1.
         23    2    1    2    0    0  0.11820119110E+02 -0.27612488477E+02 -0.13433760949E+01  0.93914971632E+02  0.88972200724E+02 0.  0.
        -24    2    1    2    0    0  0.32315528385E+02  0.10985095041E+03 -0.59761608060E+02  0.15199852795E+03  0.80128509415E+02 0.  0.
         11    1    4    4    0    0  0.50832953836E+01  0.95599133784E+02 -0.13824590839E+02  0.96727212221E+02  0.00000000000E+00 0. -1.
        -12    1    4    4    0    0  0.27232233002E+02  0.14251816624E+02 -0.45937017222E+02  0.55271315730E+02  0.00000000000E+00 0.  1.
        -11    1    3    3    0    0  0.87367923418E+01  0.20575671294E+02 -0.30268139586E+02  0.37627783134E+02  0.00000000000E+00 0.  1.
         11    1    3    3    0    0  0.30833267685E+01 -0.48188159771E+02  0.28924763491E+02  0.56287188498E+02  0.00000000000E+00 0. -1.
          2    1    1    2  501    0 -0.44135647495E+02 -0.82238461931E+02  0.42120507354E+02  0.10239754460E+03  0.00000000000E+00 0. -1.
<scales pt_clust_5="13000.00000" pt_clust_6="13000.00000" pt_clust_7="13000.00000" pt_clust_8="13000.00000" pt_clust_9="93.33343"></scales>
<clustering>
<clus scale="   80.129">  5  6 -1 -1</clus>
<clus scale="   88.972">  7  8 -1 -1</clus>
<clus scale="   93.333">  2  9  1 -1</clus>
<clus scale="   96.160">  2  5  1 -1</clus>
<clus scale="   93.333">  2  5  1 -1</clus>
</clustering>
</event>
<event>
 9    1  0.9171696E-005  0.1153857E+03  0.7546771E-02  0.1254753E+00
         21   -1    0    0  501  502  0.00000000000E+00  0.00000000000E+00  0.84795478290E+02  0.84795478290E+02  0.00000000000E+00 0.  1.
          1   -1    0    0  502    0 -0.00000000000E+00 -0.00000000000E+00 -0.35465172688E+03  0.35465172688E+03  0.00000000000E+00 0. -1.
         23    2    1    2    0    0  0.33460586302E+02 -0.78159599937E+02 -0.10699966735E+03  0.16468612063E+03  0.91891542684E+02 0.  0.
        -24    2    1    2    0    0 -0.68001780823E+01  0.42160205906E+02  0.13741393767E+02  0.92570035052E+02  0.80973206081E+02 0.  0.
         13    1    4    4    0    0 -0.41462892990E+02  0.38547493844E+02  0.66171886162E+01  0.56998841760E+02  0.00000000000E+00 0. -1.
        -14    1    4    4    0    0  0.34662714908E+02  0.36127120619E+01  0.71242051504E+01  0.35571193293E+02  0.00000000000E+00 0.  1.
        -11    1    3    3    0    0 -0.30812851419E+02 -0.13003801863E+02 -0.24369121170E+02  0.41380970773E+02  0.00000000000E+00 0.  1.
         11    1    3    3    0    0  0.64273437721E+02 -0.65155798074E+02 -0.82630546179E+02  0.12330514986E+03  0.00000000000E+00 0. -1.
          2    1    1    2  501    0 -0.26660408219E+02  0.35999394031E+02 -0.17659797500E+03  0.18219104948E+03  0.00000000000E+00 0. -1.
<scales pt_clust_5="13000.00000" pt_clust_6="13000.00000" pt_clust_7="13000.00000" pt_clust_8="13000.00000" pt_clust_9="44.79660"></scales>
<clustering>
<clus scale="   44.797">  1  9  2 -1</clus>
<clus scale="   80.973">  5  6 -1 -1</clus>
<clus scale="   91.892">  7  8 -1 -1</clus>
<clus scale="  106.895">  1  5  2 -1</clus>
<clus scale="   44.797">  1  5  2 -1</clus>
</clustering>
</event>
<event>
 9    1  0.9171696E-005  0.1237949E+03  0.7546771E-02  0.1238663E+00
         21   -1    0    0  501  502  0.00000000000E+00  0.00000000000E+00  0.32660827048E+03  0.32660827048E+03  0.00000000000E+00 0.  1.
         -2   -1    0    0    0  501 -0.00000000000E+00 -0.00000000000E+00 -0.19572279434E+03  0.19572279434E+03  0.00000000000E+00 0.  1.
         23    2    1    2    0    0 -0.99822318756E+02  0.68499516595E+02 -0.10784259323E+03  0.18498014744E+03  0.89055886588E+02 0.  0.
        -24    2    1    2    0    0  0.41630120478E+02 -0.59514673100E+01  0.10584466828E+02  0.93736275388E+02  0.83102175011E+02 0.  0.
         13    1    4    4    0    0  0.43526477637E+02  0.32249574026E+02  0.47182717453E+00  0.54173904246E+02  0.00000000000E+00 0. -1.
        -14    1    4    4    0    0 -0.18963571595E+01 -0.38201041336E+02  0.10112639654E+02  0.39562371142E+02  0.00000000000E+00 0.  1.
        -13    1    3    3    0    0 -0.67216903322E+02 -0.11806521088E+01 -0.24484153716E+02  0.71547046164E+02  0.00000000000E+00 0. -1.
         13    1    3    3    0    0 -0.32605415434E+02  0.69680168703E+02 -0.83358439518E+02  0.11343310128E+03  0.00000000000E+00 0.  1.
         -1    1    1    2    0  502  0.58192198279E+02 -0.62548049285E+02  0.22814360255E+03  0.24361464199E+03  0.00000000000E+00 0.  1.
<scales pt_clust_5="13000.00000" pt_clust_6="13000.00000" pt_clust_7="13000.00000" pt_clust_8="13000.00000" pt_clust_9="85.43179"></scales>
<clustering>
<clus scale="   83.102">  5  6 -1 -1</clus>
<clus scale="   85.432">  1  9  2 -1</clus>
<clus scale="   89.056">  7  8 -1 -1</clus>
<clus scale="  119.583">  1  5  2 -1</clus>
<clus scale="   85.432">  1  5  2 -1</clus>
</clustering>
</event>
<event>
 9    1  0.9171696E-005  0.9589818E+02  0.7546771E-02  0.1293998E+00
         -2   -1    0    0    0  501 -0.00000000000E+00  0.00000000000E+00  0.58571454202E+02  0.58571454202E+02  0.00000000000E+00 0.  1.
         21   -1    0    0  501  502  0.00000000000E+00 -0.00000000000E+00 -0.51639217442E+03  0.51639217442E+03  0.00000000000E+00 0.  1.
         23    2    1    2    0    0  0.16919001463E+02 -0.39510930132E+02 -0.78336314075E+01  0.99676952843E+02  0.89592203549E+02 0.  0.
        -24    2    1    2    0    0 -0.14326997506E+02 -0.24848901249E+02 -0.30172711725E+03  0.31363914085E+03  0.80669242223E+02 0.  0.
         11    1    4    4    0    0 -0.44871600526E+02 -0.69928271220E+00 -0.12918256922E+03  0.13675556925E+03  0.00000000000E+00 0. -1.
        -12    1    4    4    0    0  0.30544603021E+02 -0.24149618537E+02 -0.17254454803E+03  0.17688357161E+03  0.00000000000E+00 0.  1.
        -11    1    3    3    0    0 -0.14918110883E+02  0.20950610723E+02 -0.16858473830E+02  0.30752012322E+02  0.00000000000E+00 0. -1.
         11    1    3    3    0    0  0.31837112346E+02 -0.60461540855E+02  0.90248424223E+01  0.68924940521E+02  0.00000000000E+00 0.  1.
         -1    1    1    2    0  502 -0.25920039570E+01  0.64359831381E+02 -0.14825997156E+03  0.16164753492E+03  0.00000000000E+00 0.  1.
<scales pt_clust_5="13000.00000" pt_clust_6="13000.00000" pt_clust_7="13000.00000" pt_clust_8="13000.00000" pt_clust_9="64.41200"></scales>
<clustering>
<clus scale="   64.412">  2  9  1 -1</clus>
<clus scale="   80.669">  5  6 -1 -1</clus>
<clus scale="   87.620">  2  5  1 -1</clus>
<clus scale="   89.592">  7  8 -1 -1</clus>
<clus scale="   64.412">  2  5  1 -1</clus>
</clustering>
</event>
<event>
 9    1  0.9171696E-005  0.2009729E+03  0.7546771E-02  0.1150298E+00
          3   -1    0    0  502    0 -0.00000000000E+00  0.00000000000E+00  0.13827642243E+04  0.13827642243E+04  0.00000000000E+00 0. -1.
         21   -1    0    0  501  502  0.00000000000E+00 -0.00000000000E+00 -0.45372757682E+02  0.45372757682E+02  0.00000000000E+00 0.  1.
        -24    2    1    2    0    0 -0.16139197232E+03  0.46932110164E+02  0.54742728228E+03  0.57817719456E+03  0.79763696201E+02 0.  0.
         23    2    1    2    0    0  0.16270259206E+03 -0.11699165812E+03  0.43515046887E+03  0.48829304763E+03  0.94419215609E+02 0.  0.
         11    1    3    3    0    0 -0.10905312425E+03  0.68749223601E+02  0.36171593106E+03  0.38400189379E+03  0.00000000000E+00 0. -1.
        -12    1    3    3    0    0 -0.52338848070E+02 -0.21817113437E+02  0.18571135122E+03  0.19417530076E+03  0.00000000000E+00 0.  1.
        -13    1    4    4    0    0  0.16298855165E+03 -0.76443215841E+02  0.33639845636E+03  0.38153997780E+03  0.00000000000E+00 0.  1.
         13    1    4    4    0    0 -0.28595959196E+00 -0.40548442280E+02  0.98752012503E+02  0.10675306983E+03  0.00000000000E+00 0. -1.
          4    1    1    2  501    0 -0.13106197407E+01  0.70059547958E+02  0.35481371549E+03  0.36166673981E+03  0.00000000000E+00 0. -1.
<scales pt_clust_5="13000.00000" pt_clust_6="13000.00000" pt_clust_7="13000.00000" pt_clust_8="13000.00000" pt_clust_9="70.07184"></scales>
<clustering>
<clus scale="   70.072">  2  9  1 -1</clus>
<clus scale="   79.764">  5  6 -1 -1</clus>
<clus scale="   94.419">  7  8 -1 -1</clus>
<clus scale="  194.518">  1  5  2 -1</clus>
<clus scale="   70.072">  2  5  1 -1</clus>
</clustering>
</event>
<event>
 9    1  0.9171696E-005  0.1732569E+03  0.7546771E-02  0.1203496E+00
          1   -1    0    0  502    0 -0.00000000000E+00  0.00000000000E+00  0.30949664091E+03  0.30949664091E+03  0.00000000000E+00 0. -1.
         21   -1    0    0  501  502  0.00000000000E+00 -0.00000000000E+00 -0.25003702998E+03  0.25003702998E+03  0.00000000000E+00 0. -1.
         23    2    1    2    0    0 -0.28666293859E+01 -0.15069996897E+02  0.35354165498E+02  0.97789720007E+02  0.89875413493E+02 0.  0.
        -24    2    1    2    0    0  0.88692176335E+02  0.12803979167E+03 -0.15449633486E+03  0.23365012158E+03  0.80391364174E+02 0.  0.
         11    1    4    4    0    0  0.73212057312E+02  0.41227431596E+02 -0.53660415975E+02  0.99695269168E+02  0.00000000000E+00 0. -1.
        -12    1    4    4    0    0  0.15480119024E+02  0.86812360070E+02 -0.10083591889E+03  0.13395485241E+03  0.00000000000E+00 0.  1.
        -11    1    3    3    0    0  0.57990369459E+01 -0.35418595273E+02 -0.17913991205E+02  0.40112551670E+02  0.00000000000E+00 0.  1.
         11    1    3    3    0    0 -0.86656663318E+01  0.20348598376E+02  0.53268156703E+02  0.57677168337E+02  0.00000000000E+00 0. -1.
          2    1    1    2  501    0 -0.85825546949E+02 -0.11296979477E+03  0.17860178031E+03  0.22809382931E+03  0.00000000000E+00 0. -1.
<scales pt_clust_5="13000.00000" pt_clust_6="13000.00000" pt_clust_7="13000.00000" pt_clust_8="13000.00000" pt_clust_9="153.47702"></scales>
<clustering>
<clus scale="   80.391">  5  6 -1 -1</clus>
<clus scale="   89.875">  7  8 -1 -1</clus>
<clus scale="   91.175">  1  7  2 -1</clus>
<clus scale="  153.477">  2  9  1 -1</clus>
<clus scale="  153.477">  2  5  1 -1</clus>
</clustering>
</event>
<event>
 9    1  0.9171696E-005  0.2454580E+03  0.7546771E-02  0.1131883E+00
          3   -1    0    0  502    0 -0.00000000000E+00  0.00000000000E+00  0.73189231402E+03  0.73189231402E+03  0.00000000000E+00 0. -1.
         21   -1    0    0  501  502  0.00000000000E+00 -0.00000000000E+00 -0.20227427003E+03  0.20227427003E+03  0.00000000000E+00 0. -1.
        -24    2    1    2    0    0 -0.33377918969E+02 -0.14281569802E+03 -0.33727673512E+02  0.16971805819E+03  0.78461801134E+02 0.  0.
         23    2    1    2    0    0 -0.18397468278E+03  0.16888221067E+03  0.17347995902E+03  0.31732781933E+03  0.90740089026E+02 0.  0.
         11    1    3    3    0    0 -0.40409537524E+02 -0.14924128040E+03 -0.38095100119E+02  0.15923921361E+03  0.00000000000E+00 0. -1.
        -12    1    3    3    0    0  0.70316185553E+01  0.64255823790E+01  0.43674266068E+01  0.10478844573E+02  0.00000000000E+00 0.  1.
        -13    1    4    4    0    0 -0.90257681700E+02  0.13877859459E+03  0.91021441988E+02  0.18892022211E+03  0.00000000000E+00 0.  1.
         13    1    4    4    0    0 -0.93717001079E+02  0.30103616080E+02  0.82458517037E+02  0.12840759722E+03  0.00000000000E+00 0. -1.
          4    1    1    2  501    0  0.21735260175E+03 -0.26066512643E+02  0.38986575848E+03  0.44712070653E+03  0.00000000000E+00 0. -1.
<scales pt_clust_5="13000.00000" pt_clust_6="13000.00000" pt_clust_7="13000.00000" pt_clust_8="13000.00000" pt_clust_9="228.07001"></scales>
<clustering>
<clus scale="   78.462">  5  6 -1 -1</clus>
<clus scale="   90.740">  7  8 -1 -1</clus>
<clus scale="  166.333">  1  5  2 -1</clus>
<clus scale="  228.070">  2  9  1 -1</clus>
<clus scale="  228.070">  2  5  1 -1</clus>
</clustering>
</event>
<event>
 9    1  0.9171696E-005  0.1254742E+03  0.7546771E-02  0.1237061E+00
          3   -1    0    0  502    0 -0.00000000000E+00  0.00000000000E+00  0.16416210449E+03  0.16416210449E+03  0.00000000000E+00 0. -1.
         21   -1    0    0  501  502  0.00000000000E+00 -0.00000000000E+00 -0.17401735798E+03  0.17401735798E+03  0.00000000000E+00 0.  1.
         23    2    1    2    0    0  0.46315230283E+02 -0.71297933999E+02  0.73854053508E+02  0.14476898895E+03  0.90967812953E+02 0.  0.
        -24    2    1    2    0    0 -0.15600920098E+02  0.93645755377E+02 -0.31600839726E+02  0.12892724831E+03  0.81306248706E+02 0.  0.
         13    1    4    4    0    0 -0.37377926513E+02  0.62542749000E+02  0.89111534745E+01  0.73403770333E+02  0.00000000000E+00 0. -1.
        -14    1    4    4    0    0  0.21777006415E+02  0.31103006376E+02 -0.40511993201E+02  0.55523477982E+02  0.00000000000E+00 0.  1.
        -13    1    3    3    0    0  0.28979134700E+02  0.17308989849E+02  0.14615622169E+02  0.36783254192E+02  0.00000000000E+00 0. -1.
         13    1    3    3    0    0  0.17336095583E+02 -0.88606923848E+02  0.59238431339E+02  0.10798573476E+03  0.00000000000E+00 0.  1.
          4    1    1    2  501    0 -0.30714310186E+02 -0.22347821378E+02 -0.52108467274E+02  0.64483225200E+02  0.00000000000E+00 0. -1.
<scales pt_clust_5="13000.00000" pt_clust_6="13000.00000" pt_clust_7="13000.00000" pt_clust_8="13000.00000" pt_clust_9="37.98413"></scales>
<clustering>
<clus scale="   37.984">  2  9  1 -1</clus>
<clus scale="   81.306">  5  6 -1 -1</clus>
<clus scale="   90.968">  7  8 -1 -1</clus>
<clus scale="  118.656">  2  5  1 -1</clus>
<clus scale="   37.984">  2  5  1 -1</clus>
</clustering>
</event>
<event>
 9    1  0.9171696E-005  0.9855961E+02  0.7546771E-02  0.1292321E+00
         21   -1    0    0  501  502  0.00000000000E+00  0.00000000000E+00  0.93665040598E+02  0.93665040598E+02  0.00000000000E+00 0. -1.
          1   -1    0    0  502    0 -0.00000000000E+00 -0.00000000000E+00 -0.28664485988E+03  0.28664485988E+03  0.00000000000E+00 0. -1.
        -24    2    1    2    0    0  0.26650842112E+01  0.34732865244E+02 -0.19655341663E+03  0.21364675419E+03  0.76146013579E+02 0.  0.
         23    2    1    2    0    0 -0.38063321372E+02 -0.22370894337E+02 -0.39152904995E+02  0.10981767574E+03  0.92615865742E+02 0.  0.
         11    1    3    3    0    0 -0.27151921818E+02  0.18462210320E+02 -0.32810458690E+02  0.46417736565E+02  0.00000000000E+00 0. -1.
        -12    1    3    3    0    0  0.29817006030E+02  0.16270654924E+02 -0.16374295794E+03  0.16722901763E+03  0.00000000000E+00 0.  1.
        -13    1    4    4    0    0 -0.33165648001E+02  0.32967526252E+02 -0.21963257595E+02  0.51664326945E+02  0.00000000000E+00 0. -1.
         13    1    4    4    0    0 -0.48976733713E+01 -0.55338420589E+02 -0.17189647400E+02  0.58153348790E+02  0.00000000000E+00 0.  1.
          2    1    1    2  501    0  0.35398237161E+02 -0.12361970907E+02  0.42726502349E+02  0.56845470548E+02  0.00000000000E+00 0. -1.
<scales pt_clust_5="13000.00000" pt_clust_6="13000.00000" pt_clust_7="13000.00000" pt_clust_8="13000.00000" pt_clust_9="37.49471"></scales>
<clustering>
<clus scale="   37.495">  1  9  2 -1</clus>
<clus scale="   76.146">  5  6 -1 -1</clus>
<clus scale="   83.274">  2  5  1 -1</clus>
<clus scale="   92.616">  7  8 -1 -1</clus>
<clus scale="   37.495">  1  5  2 -1</clus>
</clustering>
</event>
<event>
 9    1  0.9171696E-005  0.1271448E+03  0.7546771E-02  0.1234791E+00
         21   -1    0    0  501  502  0.00000000000E+00  0.00000000000E+00  0.10661134983E+04  0.10661134983E+04  0.00000000000E+00 0.  1.
         -2   -1    0    0    0  501 -0.00000000000E+00 -0.00000000000E+00 -0.64362524330E+02  0.64362524330E+02  0.00000000000E+00 0.  1.
         23    2    1    2    0    0  0.85870223640E+02 -0.37603504255E+02  0.43497158111E+02  0.13866976951E+03  0.92463957150E+02 0.  0.
        -24    2    1    2    0    0 -0.90786135975E+01  0.40787436844E+02  0.86984400359E+03  0.87465940635E+03  0.81574814187E+02 0.  0.
         13    1    4    4    0    0 -0.35134473590E+02  0.23045145257E+02  0.21559045130E+03  0.21964688172E+03  0.00000000000E+00 0. -1.
        -14    1    4    4    0    0  0.26055859992E+02  0.17742291587E+02  0.65425355228E+03  0.65501252463E+03  0.00000000000E+00 0.  1.
        -11    1    3    3    0    0  0.80419254990E+02  0.12346808828E+02  0.24805084786E+02  0.85058759059E+02  0.00000000000E+00 0.  1.
         11    1    3    3    0    0  0.54509686494E+01 -0.49950313083E+02  0.18692073325E+02  0.53611010450E+02  0.00000000000E+00 0. -1.
         -1    1    1    2    0  502 -0.76791610042E+02 -0.31839325896E+01  0.88409812223E+02  0.11714684672E+03  0.00000000000E+00 0.  1.
<scales pt_clust_5="13000.00000" pt_clust_6="13000.00000" pt_clust_7="13000.00000" pt_clust_8="13000.00000" pt_clust_9="76.85763"></scales>
<clustering>
<clus scale="   76.858">  1  9  2 -1</clus>
<clus scale="   81.575">  5  6 -1 -1</clus>
<clus scale="   92.464">  7  8 -1 -1</clus>
<clus scale="  119.460">  1  5  2 -1</clus>
<clus scale="   76.858">  1  5  2 -1</clus>
</clustering>
</event>
<event>
 9    1  0.9171696E-005  0.1259442E+03  0.7546771E-02  0.1246831E+00
         21   -1    0    0  501  502  0.00000000000E+00  0.00000000000E+00  0.45742995933E+02  0.45742995933E+02  0.00000000000E+00 0. -1.
          3   -1    0    0  502    0 -0.00000000000E+00 -0.00000000000E+00 -0.60084200586E+03  0.60084200586E+03  0.00000000000E+00 0. -1.
         23    2    1    2    0    0 -0.35125552140E+02  0.60436495518E+01 -0.21761769987E+03  0.23796362577E+03  0.89436534942E+02 0.  0.
        -24    2    1    2    0    0  0.39131769772E+02  0.93165458037E+02 -0.15549580341E+03  0.20131189375E+03  0.78335405215E+02 0.  0.
         13    1    4    4    0    0  0.51510262777E+02  0.90382910209E+02 -0.15720552961E+03  0.18850983043E+03  0.00000000000E+00 0. -1.
        -14    1    4    4    0    0 -0.12378493005E+02  0.27825478275E+01  0.17097262022E+01  0.12802063317E+02  0.00000000000E+00 0.  1.
        -11    1    3    3    0    0 -0.38665614187E+02  0.43565829224E+02 -0.14170202401E+03  0.15320729357E+03  0.00000000000E+00 0. -1.
         11    1    3    3    0    0  0.35400620473E+01 -0.37522179672E+02 -0.75915675861E+02  0.84756332200E+02  0.00000000000E+00 0.  1.
          4    1    1    2  501    0 -0.40062176329E+01 -0.99209107589E+02 -0.18198550665E+03  0.20730948227E+03  0.00000000000E+00 0. -1.
<scales pt_clust_5="13000.00000" pt_clust_6="13000.00000" pt_clust_7="13000.00000" pt_clust_8="13000.00000" pt_clust_9="98.61797"></scales>
<clustering>
<clus scale="   78.335">  5  6 -1 -1</clus>
<clus scale="   89.437">  7  8 -1 -1</clus>
<clus scale="   96.277">  2  7  1 -1</clus>
<clus scale="   98.618">  1  9  2 -1</clus>
<clus scale="   98.618">  1  5  2 -1</clus>
</clustering>
</event>
<event>
 9    1  0.9171696E-005  0.1098972E+03  0.7546771E-02  0.1264344E+00
         21   -1    0    0  501  502  0.00000000000E+00  0.00000000000E+00  0.97872888100E+02  0.97872888100E+02  0.00000000000E+00 0. -1.
          1   -1    0    0  502    0 -0.00000000000E+00 -0.00000000000E+00 -0.37927276622E+03  0.37927276622E+03  0.00000000000E+00 0. -1.
         23    2    1    2    0    0 -0.20041575053E+02  0.50678349068E+02 -0.17514667784E+03  0.20417844162E+03  0.89680084028E+02 0.  0.
        -24    2    1    2    0    0 -0.15027433998E+02 -0.78905505206E+02 -0.16413809024E+03  0.19963735367E+03  0.80385681484E+02 0.  0.
         11    1    4    4    0    0  0.23780512149E+02 -0.43681029608E+02 -0.36599537930E+02  0.61750071112E+02  0.00000000000E+00 0. -1.
        -12    1    4    4    0    0 -0.38807946146E+02 -0.35224475597E+02 -0.12753855231E+03  0.13788728256E+03  0.00000000000E+00 0.  1.
        -13    1    3    3    0    0 -0.41690860904E+02 -0.45764310595E+01 -0.99892840383E+02  0.10834044104E+03  0.00000000000E+00 0. -1.
         13    1    3    3    0    0  0.21649285851E+02  0.55254780128E+02 -0.75253837456E+02  0.95838000588E+02  0.00000000000E+00 0.  1.
          2    1    1    2  501    0  0.35069009051E+02  0.28227156137E+02  0.57884889959E+02  0.73329859028E+02  0.00000000000E+00 0. -1.
<scales pt_clust_5="13000.00000" pt_clust_6="13000.00000" pt_clust_7="13000.00000" pt_clust_8="13000.00000" pt_clust_9="45.01786"></scales>
<clustering>
<clus scale="   45.018">  1  9  2 -1</clus>
<clus scale="   80.386">  5  6 -1 -1</clus>
<clus scale="   89.680">  7  8 -1 -1</clus>
<clus scale="  102.454">  1  5  2 -1</clus>
<clus scale="   45.018">  1  5  2 -1</clus>
</clustering>
</event>
<event>
 9    1  0.9171696E-005  0.8963204E+02  0.7546771E-02  0.1306996E+00
          1   -1    0    0  502    0 -0.00000000000E+00  0.00000000000E+00  0.43179542363E+02  0.43179542363E+02  0.00000000000E+00 0. -1.
         21   -1    0    0  501  502  0.00000000000E+00 -0.00000000000E+00 -0.41564045866E+03  0.41564045866E+03  0.00000000000E+00 0. -1.
        -24    2    1    2    0    0 -0.23579765433E+02 -0.28902566566E+02 -0.82280148145E+02  0.12227453753E+03  0.82399490631E+02 0.  0.
         23    2    1    2    0    0 -0.35878905646E+02 -0.60059805669E+01 -0.21210553801E+03  0.23238365768E+03  0.87692858487E+02 0.  0.
         13    1    3    3    0    0 -0.21415495140E+02 -0.40565420365E+02 -0.74044570540E+01  0.46465070168E+02  0.00000000000E+00 0. -1.
        -14    1    3    3    0    0 -0.21642702935E+01  0.11662853799E+02 -0.74875691091E+02  0.75809467357E+02  0.00000000000E+00 0.  1.
        -11    1    4    4    0    0 -0.50454533293E+02 -0.35735988887E+02 -0.13823436695E+03  0.15143137402E+03  0.00000000000E+00 0.  1.
         11    1    4    4    0    0  0.14575627648E+02  0.29730008320E+02 -0.73871171065E+02  0.80952283665E+02  0.00000000000E+00 0. -1.
          2    1    1    2  501    0  0.59458671079E+02  0.34908547133E+02 -0.78075230143E+02  0.10416180582E+03  0.00000000000E+00 0. -1.
<scales pt_clust_5="13000.00000" pt_clust_6="13000.00000" pt_clust_7="13000.00000" pt_clust_8="13000.00000" pt_clust_9="68.94886"></scales>
<clustering>
<clus scale="   68.949">  2  9  1 -1</clus>
<clus scale="   82.399">  5  6 -1 -1</clus>
<clus scale="   84.460">  1  5  2 -1</clus>
<clus scale="   87.693">  7  8 -1 -1</clus>
<clus scale="   68.949">  2  5  1 -1</clus>
</clustering>
</event>
<event>
 9    1  0.9171696E-005  0.1268161E+03  0.7546771E-02  0.1234812E+00
         21   -1    0    0  501  502  0.00000000000E+00  0.00000000000E+00  0.40834487034E+02  0.40834487034E+02  0.00000000000E+00 0. -1.
         -2   -1    0    0    0  501 -0.00000000000E+00 -0.00000000000E+00 -0.68494639909E+03  0.68494639909E+03  0.00000000000E+00 0.  1.
        -24    2    1    2    0    0 -0.84626799477E+02  0.11915470994E+02 -0.44576605224E+03  0.46100502522E+03  0.80712987206E+02 0.  0.
         23    2    1    2    0    0  0.10131562144E+03  0.88167853193E+01 -0.19541268427E+03  0.23799999960E+03  0.90084914306E+02 0.  0.
         11    1    3    3    0    0 -0.59247783684E+01 -0.20241887773E+02 -0.30227496185E+02  0.36858357871E+02  0.00000000000E+00 0. -1.
        -12    1    3    3    0    0 -0.78702021109E+02  0.32157358767E+02 -0.41553855606E+03  0.42414666735E+03  0.00000000000E+00 0.  1.
        -13    1    4    4    0    0  0.23762544352E+02  0.14960491390E+01  0.37887704002E+01  0.24109157145E+02  0.00000000000E+00 0. -1.
         13    1    4    4    0    0  0.77553077087E+02  0.73207361803E+01 -0.19920145467E+03  0.21389084245E+03  0.00000000000E+00 0.  1.
         -1    1    1    2    0  502 -0.16688821962E+02 -0.20732256313E+02 -0.29331755509E+01  0.26775861314E+02  0.00000000000E+00 0.  1.
<scales pt_clust_5="13000.00000" pt_clust_6="13000.00000" pt_clust_7="13000.00000" pt_clust_8="13000.00000" pt_clust_9="26.61472"></scales>
<clustering>
<clus scale="   26.615">  1  9  2 -1</clus>
<clus scale="   80.713">  5  6 -1 -1</clus>
<clus scale="   90.085">  7  8 -1 -1</clus>
<clus scale="  120.340">  2  5  1 -1</clus>
<clus scale="   26.615">  1  5  2 -1</clus>
</clustering>
</event>
<event>
 9    1  0.9171696E-005  0.1018779E+03  0.7546771E-02  0.1286308E+00
         21   -1    0    0  501  502  0.00000000000E+00  0.00000000000E+00  0.32623617454E+03  0.32623617454E+03  0.00000000000E+00 0. -1.
          1   -1    0    0  502    0 -0.00000000000E+00 -0.00000000000E+00 -0.32105823874E+03  0.32105823874E+03  0.00000000000E+00 0. -1.
         23    2    1    2    0    0  0.51717678323E+02  0.21804853736E+02 -0.26258142009E+03  0.28452073938E+03  0.94089739411E+02 0.  0.
        -24    2    1    2    0    0  0.97597342726E+01  0.14908400639E+02 -0.85115856882E+01  0.77374009461E+02  0.74811612912E+02 0.  0.
         11    1    4    4    0    0  0.39453840307E+02 -0.64817180346E+01 -0.88985187544E+00  0.39992624570E+02  0.00000000000E+00 0. -1.
        -12    1    4    4    0    0 -0.29694106034E+02  0.21390118674E+02 -0.76217338127E+01  0.37381384891E+02  0.00000000000E+00 0.  1.
        -11    1    3    3    0    0  0.21029577495E+02 -0.37346738105E+02 -0.10739083126E+03  0.11562790587E+03  0.00000000000E+00 0.  1.
         11    1    3    3    0    0  0.30688100828E+02  0.59151591841E+02 -0.15519058883E+03  0.16889283351E+03  0.00000000000E+00 0. -1.
          2    1    1    2  501    0 -0.61477412596E+02 -0.36713254375E+02  0.27627094158E+03  0.28539966445E+03  0.00000000000E+00 0. -1.
<scales pt_clust_5="13000.00000" pt_clust_6="13000.00000" pt_clust_7="13000.00000" pt_clust_8="13000.00000" pt_clust_9="71.60541"></scales>
<clustering>
<clus scale="   71.605">  1  9  2 -1</clus>
<clus scale="   74.812">  5  6 -1 -1</clus>
<clus scale="   84.398">  1  5  2 -1</clus>
<clus scale="   94.090">  7  8 -1 -1</clus>
<clus scale="   71.605">  1  5  2 -1</clus>
</clustering>
</event>
<event>
 9    1  0.9171696E-005  0.1313895E+03  0.7546771E-02  0.1227935E+00
         21   -1    0    0  501  502  0.00000000000E+00  0.00000000000E+00  0.13634985225E+03  0.13634985225E+03  0.00000000000E+00 0. -1.
          1   -1    0    0  502    0 -0.00000000000E+00 -0.00000000000E+00 -0.34011632467E+03  0.34011632467E+03  0.00000000000E+00 0. -1.
        -24    2    1    2    0    0 -0.84819607541E+02  0.66068104836E+02 -0.21721236140E+03  0.25545496908E+03  0.80725900333E+02 0.  0.
         23    2    1    2    0    0  0.45718084920E+02 -0.58118474297E+02 -0.64345756132E+02  0.13358314743E+03  0.90753405457E+02 0.  0.
         13    1    3    3    0    0 -0.62904916958E+02  0.70244678788E+02 -0.10533376396E+03  0.14137377871E+03  0.00000000000E+00 0. -1.
        -14    1    3    3    0    0 -0.21914690583E+02 -0.41765739518E+01 -0.11187859743E+03  0.11408119037E+03  0.00000000000E+00 0.  1.
        -11    1    4    4    0    0  0.24817836844E+02  0.43482350965E+01  0.15878008415E+02  0.29781593733E+02  0.00000000000E+00 0.  1.
         11    1    4    4    0    0  0.20900248076E+02 -0.62466709394E+02 -0.80223764547E+02  0.10380155370E+03  0.00000000000E+00 0. -1.
          2    1    1    2  501    0  0.39101522621E+02 -0.79496305386E+01  0.77791645110E+02  0.87428060403E+02  0.00000000000E+00 0. -1.
<scales pt_clust_5="13000.00000" pt_clust_6="13000.00000" pt_clust_7="13000.00000" pt_clust_8="13000.00000" pt_clust_9="39.90145"></scales>
<clustering>
<clus scale="   39.901">  1  9  2 -1</clus>
<clus scale="   80.726">  5  6 -1 -1</clus>
<clus scale="   90.753">  7  8 -1 -1</clus>
<clus scale="  124.674">  2  5  1 -1</clus>
<clus scale="   39.901">  1  5  2 -1</clus>
</clustering>
</event>
<event>
 9    1  0.9171696E-005  0.1001345E+03  0.7546771E-02  0.1285166E+00
         21   -1    0    0  501  502  0.00000000000E+00  0.00000000000E+00  0.22321179631E+03  0.22321179631E+03  0.00000000000E+00 0.  1.
          1   -1    0    0  502    0 -0.00000000000E+00 -0.00000000000E+00 -0.81009841858E+02  0.81009841858E+02  0.00000000000E+00 0. -1.
        -24    2    1    2    0    0  0.34028544484E+02 -0.20711638925E+02 -0.26740595787E+02  0.94637312255E+02  0.81573571585E+02 0.  0.
         23    2    1    2    0    0 -0.44861506824E+02  0.17806449887E+01  0.13952852228E+03  0.17296574258E+03  0.91832532830E+02 0.  0.
         13    1    3    3    0    0 -0.34434155401E+01 -0.45582916195E+02 -0.15623575626E+02  0.48308958535E+02  0.00000000000E+00 0. -1.
        -14    1    3    3    0    0  0.37471960024E+02  0.24871277270E+02 -0.11117020161E+02  0.46328353719E+02  0.00000000000E+00 0.  1.
        -11    1    4    4    0    0 -0.20776658166E+02  0.33277134517E+02  0.12454784715E+03  0.13058025668E+03  0.00000000000E+00 0.  1.
         11    1    4    4    0    0 -0.24084848659E+02 -0.31496489528E+02  0.14980675132E+02  0.42385485899E+02  0.00000000000E+00 0. -1.
          2    1    1    2  501    0  0.10832962341E+02  0.18930993936E+02  0.29414027962E+02  0.36618583334E+02  0.00000000000E+00 0. -1.
<scales pt_clust_5="13000.00000" pt_clust_6="13000.00000" pt_clust_7="13000.00000" pt_clust_8="13000.00000" pt_clust_9="21.81136"></scales>
<clustering>
<clus scale="   21.811">  1  9  2 -1</clus>
<clus scale="   81.574">  5  6 -1 -1</clus>
<clus scale="   90.818">  2  5  1 -1</clus>
<clus scale="   91.833">  7  8 -1 -1</clus>
<clus scale="   21.811">  1  5  2 -1</clus>
</clustering>
</event>
<event>
 9    1  0.9171696E-005  0.9503080E+02  0.7546771E-02  0.1298938E+00
         -4   -1    0    0    0  501 -0.00000000000E+00  0.00000000000E+00  0.11447983824E+03  0.11447983824E+03  0.00000000000E+00 0.  1.
         21   -1    0    0  501  502  0.00000000000E+00 -0.00000000000E+00 -0.49005271442E+03  0.49005271442E+03  0.00000000000E+00 0.  1.
         23    2    1    2    0    0  0.66300200945E+01 -0.33208244943E+02  0.49831999757E+02  0.11129195867E+03  0.93573111342E+02 0.  0.
        -24    2    1    2    0    0 -0.24945314088E+02 -0.39788213428E+02 -0.41444045566E+02  0.10197361073E+03  0.80471347381E+02 0.  0.
         11    1    4    4    0    0 -0.68637835244E+01  0.24576668765E+02 -0.56377235811E+01  0.26132510385E+02  0.00000000000E+00 0. -1.
        -12    1    4    4    0    0 -0.18081530564E+02 -0.64364882193E+02 -0.35806321985E+02  0.75841100343E+02  0.00000000000E+00 0.  1.
        -13    1    3    3    0    0  0.45592722416E+02 -0.31074400418E+01  0.40744391269E+02  0.61224651414E+02  0.00000000000E+00 0.  1.
         13    1    3    3    0    0 -0.38962702321E+02 -0.30100804901E+02  0.90876084883E+01  0.50067307256E+02  0.00000000000E+00 0. -1.
         -3    1    1    2    0  502  0.18315293994E+02  0.72996458371E+02 -0.38396083037E+03  0.39126698326E+03  0.00000000000E+00 0.  1.
<scales pt_clust_5="13000.00000" pt_clust_6="13000.00000" pt_clust_7="13000.00000" pt_clust_8="13000.00000" pt_clust_9="75.25911"></scales>
<clustering>
<clus scale="   75.259">  2  9  1 -1</clus>
<clus scale="   80.471">  5  6 -1 -1</clus>
<clus scale="   82.162">  2  5  1 -1</clus>
<clus scale="   93.573">  7  8 -1 -1</clus>
<clus scale="   75.259">  2  5  1 -1</clus>
</clustering>
</event>
<event>
 9    1  0.9171696E-005  0.1541618E+03  0.7546771E-02  0.1196674E+00
         21   -1    0    0  501  502  0.00000000000E+00  0.00000000000E+00  0.32450104405E+02  0.32450104405E+02  0.00000000000E+00 0. -1.
          1   -1    0    0  502    0 -0.00000000000E+00 -0.00000000000E+00 -0.15036505461E+04  0.15036505461E+04  0.00000000000E+00 0. -1.
        -24    2    1    2    0    0 -0.37894483278E+01 -0.87036812137E+02 -0.36937415854E+03  0.38799524235E+03  0.80704848100E+02 0.  0.
         23    2    1    2    0    0  0.89118421761E+00  0.19494872356E+03 -0.69267928539E+03  0.72495691608E+03  0.88046230669E+02 0.  0.
         11    1    3    3    0    0 -0.30555655505E+02 -0.69152749421E+02 -0.17019193642E+03  0.18622847810E+03  0.00000000000E+00 0. -1.
        -12    1    3    3    0    0  0.26766207177E+02 -0.17884062717E+02 -0.19918222212E+03  0.20176676425E+03  0.00000000000E+00 0.  1.
        -11    1    4    4    0    0 -0.31799630245E+02  0.14059760783E+03 -0.55426738128E+03  0.57270518922E+03  0.00000000000E+00 0. -1.
         11    1    4    4    0    0  0.32690814463E+02  0.54351115733E+02 -0.13841190411E+03  0.15225172686E+03  0.00000000000E+00 0.  1.
          2    1    1    2  501    0  0.28982641101E+01 -0.10791191142E+03 -0.40914699774E+03  0.42314849205E+03  0.00000000000E+00 0. -1.
<scales pt_clust_5="13000.00000" pt_clust_6="13000.00000" pt_clust_7="13000.00000" pt_clust_8="13000.00000" pt_clust_9="107.95088"></scales>
<clustering>
<clus scale="   80.705">  5  6 -1 -1</clus>
<clus scale="   88.046">  7  8 -1 -1</clus>
<clus scale="  107.951">  1  9  2 -1</clus>
<clus scale="  150.090">  2  5  1 -1</clus>
<clus scale="  107.951">  1  5  2 -1</clus>
</clustering>
</event>
<event>
 9    1  0.9171696E-005  0.1182779E+03  0.7546771E-02  0.1249327E+00
         -2   -1    0    0    0  501 -0.00000000000E+00  0.00000000000E+00  0.16587930676E+03  0.16587930676E+03  0.00000000000E+00 0.  1.
         21   -1    0    0  501  502  0.00000000000E+00 -0.00000000000E+00 -0.17852539168E+03  0.17852539168E+03  0.00000000000E+00 0.  1.
         23    2    1    2    0    0  0.45185126317E+02  0.44599970236E+02  0.52998585517E+02  0.12198647775E+03  0.89671610346E+02 0.  0.
        -24    2    1    2    0    0 -0.10604426542E+03 -0.62467202389E+02 -0.61781925656E+02  0.15887301163E+03  0.79221776569E+02 0.  0.
         11    1    4    4    0    0 -0.65078168623E+02  0.25869989762E+01 -0.93027104763E+01  0.65790584564E+02  0.00000000000E+00 0. -1.
        -12    1    4    4    0    0 -0.40966096799E+02 -0.65054201365E+02 -0.52479215180E+02  0.93082427064E+02  0.00000000000E+00 0.  1.
        -11    1    3    3    0    0  0.32172218800E+02  0.67759034414E+02  0.58172127383E+02  0.94922783416E+02  0.00000000000E+00 0.  1.
         11    1    3    3    0    0  0.13012907518E+02 -0.23159064178E+02 -0.51735418659E+01  0.27063694336E+02  0.00000000000E+00 0. -1.
         -1    1    1    2    0  502  0.60859139105E+02  0.17867232153E+02 -0.38627447810E+01  0.63545209061E+02  0.00000000000E+00 0.  1.
<scales pt_clust_5="13000.00000" pt_clust_6="13000.00000" pt_clust_7="13000.00000" pt_clust_8="13000.00000" pt_clust_9="63.42770"></scales>
<clustering>
<clus scale="   63.428">  2  9  1 -1</clus>
<clus scale="   79.222">  5  6 -1 -1</clus>
<clus scale="   89.672">  7  8 -1 -1</clus>
<clus scale="  110.566">  2  5  1 -1</clus>
<clus scale="   63.428">  2  5  1 -1</clus>
</clustering>
</event>
<event>
 9    1  0.9171696E-005  0.9744366E+02  0.7546771E-02  0.1291692E+00
         -4   -1    0    0    0  501 -0.00000000000E+00  0.00000000000E+00  0.26464779425E+03  0.26464779425E+03  0.00000000000E+00 0.  1.
         21   -1    0    0  501  502  0.00000000000E+00 -0.00000000000E+00 -0.63119614386E+02  0.63119614386E+02  0.00000000000E+00 0. -1.
         23    2    1    2    0    0  0.13473209440E+02 -0.35699462148E+02  0.13345582211E+03  0.16648984294E+03  0.91937110984E+02 0.  0.
        -24    2    1    2    0    0 -0.45318487423E+02 -0.63924112603E+01  0.49136820667E+02  0.10520259712E+03  0.80984758262E+02 0.  0.
         11    1    4    4    0    0  0.99457814019E+00  0.32483871420E+02  0.15442493930E+02  0.35981407795E+02  0.00000000000E+00 0. -1.
        -12    1    4    4    0    0 -0.46313065563E+02 -0.38876282680E+02  0.33694326737E+02  0.69221189322E+02  0.00000000000E+00 0.  1.
        -13    1    3    3    0    0  0.49987833095E+02 -0.41108997157E+01  0.55618100243E+02  0.74893631430E+02  0.00000000000E+00 0.  1.
         13    1    3    3    0    0 -0.36514623655E+02 -0.31588562432E+02  0.77837721869E+02  0.91596211510E+02  0.00000000000E+00 0. -1.
         -3    1    1    2    0  502  0.31845277982E+02  0.42091873408E+02  0.18935537087E+02  0.56074968583E+02  0.00000000000E+00 0.  1.
<scales pt_clust_5="13000.00000" pt_clust_6="13000.00000" pt_clust_7="13000.00000" pt_clust_8="13000.00000" pt_clust_9="52.78113"></scales>
<clustering>
<clus scale="   52.781">  2  9  1 -1</clus>
<clus scale="   80.985">  5  6 -1 -1</clus>
<clus scale="   87.186">  2  5  1 -1</clus>
<clus scale="   91.937">  7  8 -1 -1</clus>
<clus scale="   52.781">  2  5  1 -1</clus>
</clustering>
</event>
<event>
 9    1  0.9171696E-005  0.9702351E+02  0.7546771E-02  0.1293979E+00
          1   -1    0    0  502    0 -0.00000000000E+00  0.00000000000E+00  0.15824581111E+03  0.15824581111E+03  0.00000000000E+00 0. -1.
         21   -1    0    0  501  502  0.00000000000E+00 -0.00000000000E+00 -0.13824508897E+03  0.13824508897E+03  0.00000000000E+00 0. -1.
         23    2    1    2    0    0  0.88691077349E+01  0.30433699266E+02  0.20456503715E+02  0.99608132894E+02  0.92186986453E+02 0.  0.
        -24    2    1    2    0    0 -0.34976046869E+02 -0.13058894273E+02 -0.75525447638E+02  0.11552607796E+03  0.79046333709E+02 0.  0.
         11    1    4    4    0    0 -0.11096414807E+00 -0.40888564414E+02 -0.48221443169E+02  0.63223370633E+02  0.00000000000E+00 0. -1.
        -12    1    4    4    0    0 -0.34865082721E+02  0.27829670141E+02 -0.27304004468E+02  0.52302707323E+02  0.00000000000E+00 0.  1.
        -11    1    3    3    0    0  0.30069651181E+02 -0.22404340751E+02  0.20372948704E+02  0.42675466553E+02  0.00000000000E+00 0. -1.
         11    1    3    3    0    0 -0.21200543446E+02  0.52838040017E+02  0.83555010834E-01  0.56932666341E+02  0.00000000000E+00 0.  1.
          2    1    1    2  501    0  0.26106939134E+02 -0.17374804992E+02  0.75069666061E+02  0.81356689227E+02  0.00000000000E+00 0. -1.
<scales pt_clust_5="13000.00000" pt_clust_6="13000.00000" pt_clust_7="13000.00000" pt_clust_8="13000.00000" pt_clust_9="31.36012"></scales>
<clustering>
<clus scale="   31.360">  2  9  1 -1</clus>
<clus scale="   79.046">  5  6 -1 -1</clus>
<clus scale="   84.637">  2  5  1 -1</clus>
<clus scale="   92.187">  7  8 -1 -1</clus>
<clus scale="   31.360">  2  5  1 -1</clus>
</clustering>
</event>
<event>
 9    1  0.9171696E-005  0.9082383E+02  0.7546771E-02  0.1306620E+00
          3   -1    0    0  502    0 -0.00000000000E+00  0.00000000000E+00  0.11542130045E+03  0.11542130045E+03  0.00000000000E+00 0. -1.
         21   -1    0    0  501  502  0.00000000000E+00 -0.00000000000E+00 -0.21997154718E+03  0.21997154718E+03  0.00000000000E+00 0. -1.
        -24    2    1    2    0    0  0.19582507836E+00 -0.45774987579E+01  0.67913649762E+02  0.10609297070E+03  0.81378515384E+02 0.  0.
         23    2    1    2    0    0 -0.43462501612E+02 -0.94131275753E+00 -0.84941307759E+02  0.13151099147E+03  0.90499944738E+02 0.  0.
         13    1    3    3    0    0 -0.33054974404E+02  0.16818200468E+01  0.34341868371E+01  0.33275418716E+02  0.00000000000E+00 0. -1.
        -14    1    3    3    0    0  0.33250799482E+02 -0.62593188048E+01  0.64479462925E+02  0.72817551986E+02  0.00000000000E+00 0.  1.
        -11    1    4    4    0    0  0.21227903585E+02  0.75966221966E+01 -0.55539481391E+02  0.59941359282E+02  0.00000000000E+00 0.  1.
         11    1    4    4    0    0 -0.64690405196E+02 -0.85379349541E+01 -0.29401826368E+02  0.71569632188E+02  0.00000000000E+00 0. -1.
          4    1    1    2  501    0  0.43266676533E+02  0.55188115155E+01 -0.87522588739E+02  0.97788885454E+02  0.00000000000E+00 0. -1.
<scales pt_clust_5="13000.00000" pt_clust_6="13000.00000" pt_clust_7="13000.00000" pt_clust_8="13000.00000" pt_clust_9="43.61723"></scales>
<clustering>
<clus scale="   43.617">  2  9  1 -1</clus>
<clus scale="   81.379">  5  6 -1 -1</clus>
<clus scale="   81.739">  1  5  2 -1</clus>
<clus scale="   90.500">  7  8 -1 -1</clus>
<clus scale="   43.617">  2  5  1 -1</clus>
</clustering>
</event>
<event>
 9    1  0.9171696E-005  0.1687584E+03  0.7546771E-02  0.1211894E+00
         21   -1    0    0  501  502  0.00000000000E+00  0.00000000000E+00  0.61253467491E+02  0.61253467491E+02  0.00000000000E+00 0. -1.
          3   -1    0    0  502    0 -0.00000000000E+00 -0.00000000000E+00 -0.89408414393E+03  0.89408414393E+03  0.00000000000E+00 0. -1.
        -24    2    1    2    0    0 -0.17652210243E+02  0.79673699697E+01 -0.41916994415E+02  0.92455278701E+02  0.80099092556E+02 0.  0.
         23    2    1    2    0    0  0.14187956060E+03 -0.56435468166E+01 -0.65275437532E+03  0.67707106084E+03  0.11034168562E+03 0.  0.
         11    1    3    3    0    0 -0.41840789681E+02 -0.14617794663E+02 -0.79422075673E+01  0.45026772736E+02  0.00000000000E+00 0. -1.
        -12    1    3    3    0    0  0.24188579439E+02  0.22585164633E+02 -0.33974786847E+02  0.47428505965E+02  0.00000000000E+00 0.  1.
        -13    1    4    4    0    0  0.41122985726E+02 -0.18380606582E+02 -0.56639653704E+02  0.72367099051E+02  0.00000000000E+00 0.  1.
         13    1    4    4    0    0  0.10075657487E+03  0.12737059765E+02 -0.59611472162E+03  0.60470396179E+03  0.00000000000E+00 0. -1.
          4    1    1    2  501    0 -0.12422735035E+03 -0.23238231531E+01 -0.13815930670E+03  0.18581127188E+03  0.00000000000E+00 0. -1.
<scales pt_clust_5="13000.00000" pt_clust_6="13000.00000" pt_clust_7="13000.00000" pt_clust_8="13000.00000" pt_clust_9="127.68761"></scales>
<clustering>
<clus scale="   80.099">  5  6 -1 -1</clus>
<clus scale="   82.407">  2  5  1 -1</clus>
<clus scale="  110.342">  7  8 -1 -1</clus>
<clus scale="  127.688">  1  9  2 -1</clus>
<clus scale="  127.688">  1  5  2 -1</clus>
</clustering>
</event>
<event>
 9    1  0.9171696E-005  0.2145086E+03  0.7546771E-02  0.1165305E+00
          1   -1    0    0  502    0 -0.00000000000E+00  0.00000000000E+00  0.23084723426E+03  0.23084723426E+03  0.00000000000E+00 0. -1.
         21   -1    0    0  501  502  0.00000000000E+00 -0.00000000000E+00 -0.59580404182E+03  0.59580404182E+03  0.00000000000E+00 0. -1.
         23    2    1    2    0    0 -0.40156349662E+02 -0.52185316231E+02 -0.26948863660E+03  0.29208443178E+03  0.91396665029E+02 0.  0.
        -24    2    1    2    0    0 -0.26059422429E+01  0.20965099196E+03 -0.23134288460E+03  0.32223222525E+03  0.79710396888E+02 0.  0.
         11    1    4    4    0    0  0.25484290600E+02  0.17329445023E+03 -0.15916685808E+03  0.23667383518E+03  0.00000000000E+00 0. -1.
        -12    1    4    4    0    0 -0.28090232843E+02  0.36356541728E+02 -0.72176026514E+02  0.85558390068E+02  0.00000000000E+00 0.  1.
        -13    1    3    3    0    0  0.61709784113E+01 -0.63816755965E+02 -0.17099782551E+03  0.18262233063E+03  0.00000000000E+00 0. -1.
         13    1    3    3    0    0 -0.46327328073E+02  0.11631439734E+02 -0.98490811093E+02  0.10946210114E+03  0.00000000000E+00 0.  1.
          2    1    1    2  501    0  0.42762291904E+02 -0.15746567573E+03  0.13587471364E+03  0.21233461905E+03  0.00000000000E+00 0. -1.
<scales pt_clust_5="13000.00000" pt_clust_6="13000.00000" pt_clust_7="13000.00000" pt_clust_8="13000.00000" pt_clust_9="199.14872"></scales>
<clustering>
<clus scale="   79.710">  5  6 -1 -1</clus>
<clus scale="   91.397">  7  8 -1 -1</clus>
<clus scale="  112.646">  1  7  2 -1</clus>
<clus scale="  199.149">  2  9  1 -1</clus>
<clus scale="  199.149">  2  5  1 -1</clus>
</clustering>
</event>
<event>
 9    1  0.9171696E-005  0.9540036E+02  0.7546771E-02  0.1298424E+00
          3   -1    0    0  502    0 -0.00000000000E+00  0.00000000000E+00  0.39271036987E+02  0.39271036987E+02  0.00000000000E+00 0. -1.
         21   -1    0    0  501  502  0.00000000000E+00 -0.00000000000E+00 -0.48959183945E+03  0.48959183945E+03  0.00000000000E+00 0. -1.
         23    2    1    2    0    0 -0.31550711958E+02  0.13756842902E+02 -0.62961638524E+02  0.11750530921E+03  0.93051768469E+02 0.  0.
        -24    2    1    2    0    0  0.17534288686E+01  0.14819313012E+02 -0.14870992064E+03  0.16916356215E+03  0.79240038570E+02 0.  0.
         13    1    4    4    0    0 -0.30865323920E+02  0.59578679597E+01 -0.22899186206E+02  0.38891350455E+02  0.00000000000E+00 0. -1.
        -14    1    4    4    0    0  0.32618752789E+02  0.88614450520E+01 -0.12581073443E+03  0.13027221170E+03  0.00000000000E+00 0.  1.
        -11    1    3    3    0    0 -0.19507030858E+02 -0.39571947091E+02 -0.22757900334E+02  0.49642575247E+02  0.00000000000E+00 0.  1.
         11    1    3    3    0    0 -0.12043681100E+02  0.53328789993E+02 -0.40203738190E+02  0.67862733963E+02  0.00000000000E+00 0. -1.
          4    1    1    2  501    0  0.29797283089E+02 -0.28576155913E+02 -0.23864924330E+03  0.24219400508E+03  0.00000000000E+00 0. -1.
<scales pt_clust_5="13000.00000" pt_clust_6="13000.00000" pt_clust_7="13000.00000" pt_clust_8="13000.00000" pt_clust_9="41.28529"></scales>
<clustering>
<clus scale="   41.285">  2  9  1 -1</clus>
<clus scale="   79.240">  5  6 -1 -1</clus>
<clus scale="   81.985">  2  5  1 -1</clus>
<clus scale="   93.052">  7  8 -1 -1</clus>
<clus scale="   41.285">  2  5  1 -1</clus>
</clustering>
</event>
<event>
 9    1  0.9171696E-005  0.9507229E+02  0.7546771E-02  0.1297661E+00
          1   -1    0    0  502    0 -0.00000000000E+00  0.00000000000E+00  0.59291216627E+03  0.59291216627E+03  0.00000000000E+00 0. -1.
         21   -1    0    0  501  502  0.00000000000E+00 -0.00000000000E+00 -0.33906813752E+02  0.33906813752E+02  0.00000000000E+00 0.  1.
         23    2    1    2    0    0  0.20460009082E+02 -0.25970602915E+02  0.49374959147E+03  0.50309679696E+03  0.90689822142E+02 0.  0.
        -24    2    1    2    0    0 -0.26095547837E+01  0.76459193934E+01  0.51630174902E+02  0.94737888310E+02  0.79021026705E+02 0.  0.
         13    1    4    4    0    0  0.30924583193E+01 -0.22919664517E+02  0.58490777031E+02  0.62897101027E+02  0.00000000000E+00 0. -1.
        -14    1    4    4    0    0 -0.57020131029E+01  0.30565583910E+02 -0.68606021289E+01  0.31840787282E+02  0.00000000000E+00 0.  1.
        -11    1    3    3    0    0 -0.20286276539E+02 -0.46062782966E+02  0.29088813362E+03  0.29521046606E+03  0.00000000000E+00 0.  1.
         11    1    3    3    0    0  0.40746285621E+02  0.20092180052E+02  0.20286145785E+03  0.20788633089E+03  0.00000000000E+00 0. -1.
          2    1    1    2  501    0 -0.17850454298E+02  0.18324683521E+02  0.13625586145E+02  0.28984294757E+02  0.00000000000E+00 0. -1.
<scales pt_clust_5="13000.00000" pt_clust_6="13000.00000" pt_clust_7="13000.00000" pt_clust_8="13000.00000" pt_clust_9="25.58188"></scales>
<clustering>
<clus scale="   25.582">  2  9  1 -1</clus>
<clus scale="   79.021">  5  6 -1 -1</clus>
<clus scale="   84.014">  2  5  1 -1</clus>
<clus scale="   90.690">  7  8 -1 -1</clus>
<clus scale="   25.582">  2  5  1 -1</clus>
</clustering>
</event>
<event>
 9    1  0.9171696E-005  0.1262920E+03  0.7546771E-02  0.1235743E+00
         21   -1    0    0  501  502  0.00000000000E+00  0.00000000000E+00  0.22014611250E+03  0.22014611250E+03  0.00000000000E+00 0. -1.
          3   -1    0    0  502    0 -0.00000000000E+00 -0.00000000000E+00 -0.87859819808E+02  0.87859819808E+02  0.00000000000E+00 0. -1.
         23    2    1    2    0    0 -0.48820463877E+02  0.82244988223E+02  0.39286066220E+02  0.13805046751E+03  0.91470546076E+02 0.  0.
        -24    2    1    2    0    0  0.29024416137E+02 -0.73321043327E+02  0.55251050575E+02  0.12640640534E+03  0.81899380920E+02 0.  0.
         11    1    4    4    0    0 -0.21054582453E+02 -0.21752996822E+02 -0.72743246220E+01  0.31135255125E+02  0.00000000000E+00 0. -1.
        -12    1    4    4    0    0  0.50078998590E+02 -0.51568046506E+02  0.62525375197E+02  0.95271150217E+02  0.00000000000E+00 0.  1.
        -11    1    3    3    0    0 -0.57038523127E+02  0.37226502712E+02  0.57162910369E+02  0.88920211125E+02  0.00000000000E+00 0. -1.
         11    1    3    3    0    0  0.82180592501E+01  0.45018485511E+02 -0.17876844150E+02  0.49130256384E+02  0.00000000000E+00 0.  1.
          4    1    1    2  501    0  0.19796047740E+02 -0.89239448958E+01  0.37749175893E+02  0.43549059453E+02  0.00000000000E+00 0. -1.
<scales pt_clust_5="13000.00000" pt_clust_6="13000.00000" pt_clust_7="13000.00000" pt_clust_8="13000.00000" pt_clust_9="21.71452"></scales>
<clustering>
<clus scale="   21.715">  1  9  2 -1</clus>
<clus scale="   81.899">  5  6 -1 -1</clus>
<clus scale="   91.471">  7  8 -1 -1</clus>
<clus scale="  119.542">  1  5  2 -1</clus>
<clus scale="   21.715">  1  5  2 -1</clus>
</clustering>
</event>
<event>
 9    1  0.9171696E-005  0.1024517E+03  0.7546771E-02  0.1281491E+00
         21   -1    0    0  501  502  0.00000000000E+00  0.00000000000E+00  0.17285808738E+03  0.17285808738E+03  0.00000000000E+00 0. -1.
          1   -1    0    0  502    0 -0.00000000000E+00 -0.00000000000E+00 -0.98510927888E+02  0.98510927888E+02  0.00000000000E+00 0. -1.
         23    2    1    2    0    0  0.47344965073E+02 -0.12684527277E+02 -0.28418948671E+02  0.10933559063E+03  0.93510383298E+02 0.  0.
        -24    2    1    2    0    0 -0.21729022658E+02 -0.71793455547E+00  0.10360833734E+03  0.13311091024E+03  0.80691765399E+02 0.  0.
         13    1    4    4    0    0  0.12126104557E+02 -0.17235762480E+02  0.90967727766E+02  0.93376878374E+02  0.00000000000E+00 0. -1.
        -14    1    4    4    0    0 -0.33855127215E+02  0.16517827924E+02  0.12640609575E+02  0.39734031868E+02  0.00000000000E+00 0.  1.
        -13    1    3    3    0    0  0.75541686620E+02 -0.10604659404E+02 -0.27366212071E+02  0.81042672597E+02  0.00000000000E+00 0. -1.
         13    1    3    3    0    0 -0.28196721547E+02 -0.20798678729E+01 -0.10527365993E+01  0.28292918031E+02  0.00000000000E+00 0.  1.
          2    1    1    2  501    0 -0.25615942415E+02  0.13402461832E+02 -0.84222918020E+00  0.28922514396E+02  0.00000000000E+00 0. -1.
<scales pt_clust_5="13000.00000" pt_clust_6="13000.00000" pt_clust_7="13000.00000" pt_clust_8="13000.00000" pt_clust_9="28.91026"></scales>
<clustering>
<clus scale="   28.910">  1  9  2 -1</clus>
<clus scale="   80.692">  5  6 -1 -1</clus>
<clus scale="   90.903">  1  5  2 -1</clus>
<clus scale="   93.510">  7  8 -1 -1</clus>
<clus scale="   28.910">  1  5  2 -1</clus>
</clustering>
</event>
<event>
 9    1  0.9171696E-005  0.1456450E+03  0.7546771E-02  0.1208828E+00
          1   -1    0    0  502    0 -0.00000000000E+00  0.00000000000E+00  0.13778082593E+04  0.13778082593E+04  0.00000000000E+00 0. -1.
         21   -1    0    0  501  502  0.00000000000E+00 -0.00000000000E+00 -0.49237192866E+02  0.49237192866E+02  0.00000000000E+00 0. -1.
        -24    2    1    2    0    0  0.85685220228E+02  0.11324277853E+02  0.46953328870E+03  0.48372878158E+03  0.77857746597E+02 0.  0.
         23    2    1    2    0    0 -0.15001505296E+03  0.75190197728E+02  0.79535675257E+03  0.81810343316E+03  0.92427168861E+02 0.  0.
         11    1    3    3    0    0  0.87119280481E+02 -0.16163658008E+02  0.34588992948E+03  0.35705864531E+03  0.00000000000E+00 0. -1.
        -12    1    3    3    0    0 -0.14340602534E+01  0.27487935861E+02  0.12364335922E+03  0.12667013628E+03  0.00000000000E+00 0.  1.
        -13    1    4    4    0    0 -0.13332087294E+03  0.48304824107E+02  0.74680497782E+03  0.76014833164E+03  0.00000000000E+00 0.  1.
         13    1    4    4    0    0 -0.16694180022E+02  0.26885373621E+02  0.48551774744E+02  0.57955101520E+02  0.00000000000E+00 0. -1.
          2    1    1    2  501    0  0.64329832732E+02 -0.86514475581E+02  0.63681025216E+02  0.12521323747E+03  0.00000000000E+00 0. -1.
<scales pt_clust_5="13000.00000" pt_clust_6="13000.00000" pt_clust_7="13000.00000" pt_clust_8="13000.00000" pt_clust_9="107.81040"></scales>
<clustering>
<clus scale="   77.858">  5  6 -1 -1</clus>
<clus scale="   92.427">  7  8 -1 -1</clus>
<clus scale="  107.810">  2  9  1 -1</clus>
<clus scale="  136.863">  1  5  2 -1</clus>
<clus scale="  107.810">  2  5  1 -1</clus>
</clustering>
</event>
<event>
 9    1  0.9171696E-005  0.1251567E+03  0.7546771E-02  0.1237275E+00
          1   -1    0    0  502    0 -0.00000000000E+00  0.00000000000E+00  0.22098411962E+03  0.22098411962E+03  0.00000000000E+00 0. -1.
         21   -1    0    0  501  502  0.00000000000E+00 -0.00000000000E+00 -0.12662826879E+03  0.12662826879E+03  0.00000000000E+00 0. -1.
         23    2    1    2    0    0  0.78235009427E+01 -0.69494321394E+02  0.44633017466E+02  0.12327205655E+03  0.91176892927E+02 0.  0.
        -24    2    1    2    0    0 -0.75400069897E+01  0.11744847396E+03 -0.14151282127E+02  0.14446803538E+03  0.82581830458E+02 0.  0.
         11    1    4    4    0    0 -0.90360020115E+01  0.10738287545E+03  0.19323054711E+02  0.10948110209E+03  0.00000000000E+00 0. -1.
        -12    1    4    4    0    0  0.14959950218E+01  0.10065598508E+02 -0.33474336838E+02  0.34986933292E+02  0.00000000000E+00 0.  1.
        -11    1    3    3    0    0  0.20013601280E+02 -0.34640916473E+02  0.68485186975E+02  0.79314299879E+02  0.00000000000E+00 0.  1.
         11    1    3    3    0    0 -0.12190100338E+02 -0.34853404921E+02 -0.23852169509E+02  0.43957756666E+02  0.00000000000E+00 0. -1.
          2    1    1    2  501    0 -0.28349395302E+00 -0.47954152562E+02  0.63874115487E+02  0.79872296487E+02  0.00000000000E+00 0. -1.
<scales pt_clust_5="13000.00000" pt_clust_6="13000.00000" pt_clust_7="13000.00000" pt_clust_8="13000.00000" pt_clust_9="47.95501"></scales>
<clustering>
<clus scale="   47.955">  2  9  1 -1</clus>
<clus scale="   82.582">  5  6 -1 -1</clus>
<clus scale="   91.177">  7  8 -1 -1</clus>
<clus scale="  119.041">  2  5  1 -1</clus>
<clus scale="   47.955">  2  5  1 -1</clus>
</clustering>
</event>
<event>
 9    1  0.9171696E-005  0.1345737E+03  0.7546771E-02  0.1225161E+00
         21   -1    0    0  501  502  0.00000000000E+00  0.00000000000E+00  0.49320232690E+03  0.49320232690E+03  0.00000000000E+00 0.  1.
         -2   -1    0    0    0  501 -0.00000000000E+00 -0.00000000000E+00 -0.77664994642E+02  0.77664994642E+02  0.00000000000E+00 0.  1.
        -24    2    1    2    0    0 -0.11010489059E+03 -0.27089737845E+02  0.15937628486E+02  0.13651745476E+03  0.74337518277E+02 0.  0.
         23    2    1    2    0    0  0.50761720422E+02  0.59651475461E+01  0.21966281704E+03  0.24370584414E+03  0.92349607659E+02 0.  0.
         11    1    3    3    0    0 -0.39415171774E+01 -0.21203457528E+02  0.20957984596E+02  0.30072567019E+02  0.00000000000E+00 0. -1.
        -12    1    3    3    0    0 -0.10616337341E+03 -0.58862803176E+01 -0.50203561101E+01  0.10644488774E+03  0.00000000000E+00 0.  1.
        -11    1    4    4    0    0 -0.20752852566E+02  0.11448166264E+02  0.11102658239E+03  0.11352816125E+03  0.00000000000E+00 0.  1.
         11    1    4    4    0    0  0.71514572988E+02 -0.54830187182E+01  0.10863623465E+03  0.13017768289E+03  0.00000000000E+00 0. -1.
         -1    1    1    2    0  502  0.59343170169E+02  0.21124590299E+02  0.17993688673E+03  0.19064402264E+03  0.00000000000E+00 0.  1.
<scales pt_clust_5="13000.00000" pt_clust_6="13000.00000" pt_clust_7="13000.00000" pt_clust_8="13000.00000" pt_clust_9="62.99095"></scales>
<clustering>
<clus scale="   62.991">  1  9  2 -1</clus>
<clus scale="   74.338">  5  6 -1 -1</clus>
<clus scale="   92.350">  7  8 -1 -1</clus>
<clus scale="  122.913">  2  5  1 -1</clus>
<clus scale="   62.991">  1  5  2 -1</clus>
</clustering>
</event>
<event>
 9    1  0.9171696E-005  0.1254330E+03  0.7546771E-02  0.1244146E+00
         21   -1    0    0  501  502  0.00000000000E+00  0.00000000000E+00  0.90146885613E+02  0.90146885613E+02  0.00000000000E+00 0. -1.
          3   -1    0    0  502    0 -0.00000000000E+00 -0.00000000000E+00 -0.50511312451E+03  0.50511312451E+03  0.00000000000E+00 0. -1.
         23    2    1    2    0    0  0.32440190681E+02 -0.34622939205E+02  0.18525649661E+02  0.10452601602E+03  0.91276362982E+02 0.  0.
        -24    2    1    2    0    0  0.46161978232E+02 -0.46299810558E+02 -0.29143516267E+03  0.30933138729E+03  0.80478894331E+02 0.  0.
         11    1    4    4    0    0  0.38567566232E+02 -0.67161231193E+02 -0.18414779868E+03  0.19977111878E+03  0.00000000000E+00 0. -1.
        -12    1    4    4    0    0  0.75944120002E+01  0.20861420635E+02 -0.10728736399E+03  0.10956026852E+03  0.00000000000E+00 0.  1.
        -11    1    3    3    0    0  0.51954537759E+02 -0.40105785132E+02  0.38480279814E+02  0.76082060496E+02  0.00000000000E+00 0. -1.
         11    1    3    3    0    0 -0.19514347078E+02  0.54828459267E+01 -0.19954630153E+02  0.28443955525E+02  0.00000000000E+00 0.  1.
          4    1    1    2  501    0 -0.78602168913E+02  0.80922749763E+02 -0.14205672589E+03  0.18140260681E+03  0.00000000000E+00 0. -1.
<scales pt_clust_5="13000.00000" pt_clust_6="13000.00000" pt_clust_7="13000.00000" pt_clust_8="13000.00000" pt_clust_9="96.21118"></scales>
<clustering>
<clus scale="   80.479">  5  6 -1 -1</clus>
<clus scale="   91.276">  7  8 -1 -1</clus>
<clus scale="  102.871">  2  7  1 -1</clus>
<clus scale="   96.211">  1  9  2 -1</clus>
<clus scale="   96.211">  1  5  2 -1</clus>
</clustering>
</event>
<event>
 9    1  0.9171696E-005  0.1014819E+03  0.7546771E-02  0.1282652E+00
         21   -1    0    0  501  502  0.00000000000E+00  0.00000000000E+00  0.49425407935E+02  0.49425407935E+02  0.00000000000E+00 0. -1.
          1   -1    0    0  502    0 -0.00000000000E+00 -0.00000000000E+00 -0.33926422548E+03  0.33926422548E+03  0.00000000000E+00 0. -1.
        -24    2    1    2    0    0 -0.46150264808E+01  0.47173519110E+02 -0.23372061543E+03  0.25198314906E+03  0.81385145794E+02 0.  0.
         23    2    1    2    0    0  0.70742599731E+01 -0.20147157044E+02 -0.31298872171E+02  0.99930524619E+02  0.92469115170E+02 0.  0.
         13    1    3    3    0    0 -0.42596818348E+02  0.24323449446E+02 -0.13908226879E+03  0.14747880057E+03  0.00000000000E+00 0. -1.
        -14    1    3    3    0    0  0.37981791867E+02  0.22850069664E+02 -0.94638346638E+02  0.10450434848E+03  0.00000000000E+00 0.  1.
        -11    1    4    4    0    0  0.89036851132E+01 -0.55597690592E+02 -0.31324242212E+02  0.64432809638E+02  0.00000000000E+00 0.  1.
         11    1    4    4    0    0 -0.18294251402E+01  0.35450533548E+02  0.25370041430E-01  0.35497714980E+02  0.00000000000E+00 0. -1.
          2    1    1    2  501    0 -0.24592334922E+01 -0.27026362066E+02 -0.24819329939E+02  0.36775959736E+02  0.00000000000E+00 0. -1.
<scales pt_clust_5="13000.00000" pt_clust_6="13000.00000" pt_clust_7="13000.00000" pt_clust_8="13000.00000" pt_clust_9="27.13802"></scales>
<clustering>
<clus scale="   27.138">  1  9  2 -1</clus>
<clus scale="   81.385">  5  6 -1 -1</clus>
<clus scale="   91.496">  2  5  1 -1</clus>
<clus scale="   92.469">  7  8 -1 -1</clus>
<clus scale="   27.138">  1  5  2 -1</clus>
</clustering>
</event>
<event>
 9    1  0.9171696E-005  0.1165013E+03  0.7546771E-02  0.1251787E+00
         21   -1    0    0  501  502  0.00000000000E+00  0.00000000000E+00  0.14568801388E+03  0.14568801388E+03  0.00000000000E+00 0. -1.
          1   -1    0    0  502    0 -0.00000000000E+00 -0.00000000000E+00 -0.21114237580E+03  0.21114237580E+03  0.00000000000E+00 0. -1.
        -24    2    1    2    0    0  0.25656079334E+02  0.52360643309E+02 -0.41086339394E+02  0.10684104292E+03  0.79542754499E+02 0.  0.
         23    2    1    2    0    0  0.36039776494E+02 -0.12076844717E+03 -0.33596593406E+02  0.15740871825E+03  0.88118614215E+02 0.  0.
         11    1    3    3    0    0  0.30185957332E+02 -0.66382425140E+01  0.56727513134E+01  0.31423532443E+02  0.00000000000E+00 0. -1.
        -12    1    3    3    0    0 -0.45298779980E+01  0.58998885823E+02 -0.46759090707E+02  0.75417510479E+02  0.00000000000E+00 0.  1.
        -13    1    4    4    0    0  0.80538729283E+01 -0.33789667365E+02  0.30152390762E+02  0.45997534265E+02  0.00000000000E+00 0.  1.
         13    1    4    4    0    0  0.27985903565E+02 -0.86978779804E+02 -0.63748984168E+02  0.11141118398E+03  0.00000000000E+00 0. -1.
          2    1    1    2  501    0 -0.61695855827E+02  0.68407803860E+02  0.92285708784E+01  0.92580628512E+02  0.00000000000E+00 0. -1.
<scales pt_clust_5="13000.00000" pt_clust_6="13000.00000" pt_clust_7="13000.00000" pt_clust_8="13000.00000" pt_clust_9="92.11952"></scales>
<clustering>
<clus scale="   79.543">  5  6 -1 -1</clus>
<clus scale="   88.119">  7  8 -1 -1</clus>
<clus scale="   92.120">  1  9  2 -1</clus>
<clus scale="  110.158">  2  5  1 -1</clus>
<clus scale="   92.120">  1  5  2 -1</clus>
</clustering>
</event>
<event>
 9    1  0.9171696E-005  0.1040150E+03  0.7546771E-02  0.1281774E+00
         21   -1    0    0  501  502  0.00000000000E+00  0.00000000000E+00  0.10527397178E+03  0.10527397178E+03  0.00000000000E+00 0.  1.
         -2   -1    0    0    0  501 -0.00000000000E+00 -0.00000000000E+00 -0.19950007735E+03  0.19950007735E+03  0.00000000000E+00 0.  1.
         23    2    1    2    0    0 -0.79530218321E+00 -0.25085393510E+02  0.83831373115E+01  0.95151333577E+02  0.91397974908E+02 0.  0.
        -24    2    1    2    0    0 -0.50759157301E+02  0.55744189764E+02 -0.16481553442E+02  0.10466652007E+03  0.70707369331E+02 0.  0.
         13    1    4    4    0    0 -0.41482498029E+01  0.55759161076E+02 -0.23585925100E+01  0.55962978646E+02  0.00000000000E+00 0. -1.
        -14    1    4    4    0    0 -0.46610907498E+02 -0.14971311399E-01 -0.14122960932E+02  0.48703541426E+02  0.00000000000E+00 0.  1.
        -13    1    3    3    0    0 -0.32365428528E+02 -0.33769043708E+01  0.35541567425E+02  0.48188457767E+02  0.00000000000E+00 0.  1.
         13    1    3    3    0    0  0.31570126344E+02 -0.21708489140E+02 -0.27158430114E+02  0.46962875810E+02  0.00000000000E+00 0. -1.
         -1    1    1    2    0  502  0.51554459484E+02 -0.30658796254E+02 -0.86127689438E+02  0.10495619547E+03  0.00000000000E+00 0.  1.
<scales pt_clust_5="13000.00000" pt_clust_6="13000.00000" pt_clust_7="13000.00000" pt_clust_8="13000.00000" pt_clust_9="59.98189"></scales>
<clustering>
<clus scale="   59.982">  1  9  2 -1</clus>
<clus scale="   70.707">  5  6 -1 -1</clus>
<clus scale="   86.401">  1  5  2 -1</clus>
<clus scale="   91.398">  7  8 -1 -1</clus>
<clus scale="   59.982">  1  5  2 -1</clus>
</clustering>
</event>
<event>
 9    1  0.9171696E-005  0.1170020E+03  0.7546771E-02  0.1263654E+00
         21   -1    0    0  501  502  0.00000000000E+00  0.00000000000E+00  0.33658990618E+03  0.33658990618E+03  0.00000000000E+00 0. -1.
         -4   -1    0    0    0  501 -0.00000000000E+00 -0.00000000000E+00 -0.16775645943E+03  0.16775645943E+03  0.00000000000E+00 0.  1.
        -24    2    1    2    0    0  0.17358323375E+02 -0.19211986444E+02 -0.50731524080E+02  0.99892333158E+02  0.82063261420E+02 0.  0.
         23    2    1    2    0    0  0.22567684453E+02 -0.65012490721E+02  0.27350176790E+03  0.29676454024E+03  0.92358275031E+02 0.  0.
         11    1    3    3    0    0  0.41987082802E+02 -0.27966907367E+02 -0.98997023989E+01  0.51410768692E+02  0.00000000000E+00 0. -1.
        -12    1    3    3    0    0 -0.24628759427E+02  0.87549209236E+01 -0.40831821681E+02  0.48481564466E+02  0.00000000000E+00 0.  1.
        -13    1    4    4    0    0  0.41843346576E+02 -0.80212218579E+02  0.20849674873E+03  0.22727903531E+03  0.00000000000E+00 0. -1.
         13    1    4    4    0    0 -0.19275662124E+02  0.15199727858E+02  0.65005019176E+02  0.69485504930E+02  0.00000000000E+00 0.  1.
         -3    1    1    2    0  502 -0.39926007828E+02  0.84224477164E+02 -0.53936797067E+02  0.10768949221E+03  0.00000000000E+00 0.  1.
<scales pt_clust_5="13000.00000" pt_clust_6="13000.00000" pt_clust_7="13000.00000" pt_clust_8="13000.00000" pt_clust_9="71.82912"></scales>
<clustering>
<clus scale="   82.063">  5  6 -1 -1</clus>
<clus scale="   86.051">  2  5  1 -1</clus>
<clus scale="   71.829">  1  9  2 -1</clus>
<clus scale="   92.358">  7  8 -1 -1</clus>
<clus scale="   71.829">  1  5  2 -1</clus>
</clustering>
</event>
<event>
 9    1  0.9171696E-005  0.2484928E+03  0.7546771E-02  0.1114700E+00
          3   -1    0    0  502    0 -0.00000000000E+00  0.00000000000E+00  0.18353035601E+03  0.18353035601E+03  0.00000000000E+00 0. -1.
         21   -1    0    0  501  502  0.00000000000E+00 -0.00000000000E+00 -0.81757814474E+03  0.81757814474E+03  0.00000000000E+00 0.  1.
         23    2    1    2    0    0 -0.22918715000E+03  0.32283225152E+02  0.41652951346E+02  0.25145887702E+03  0.89037307480E+02 0.  0.
        -24    2    1    2    0    0  0.22213056452E+03 -0.98287939253E+02 -0.56925205569E+03  0.62419947392E+03  0.81083744562E+02 0.  0.
         11    1    4    4    0    0  0.41374213926E+02 -0.45498616902E+02 -0.87475240765E+02  0.10692926384E+03  0.00000000000E+00 0. -1.
        -12    1    4    4    0    0  0.18075635059E+03 -0.52789322351E+02 -0.48177681493E+03  0.51727021008E+03  0.00000000000E+00 0.  1.
        -11    1    3    3    0    0 -0.59951972930E+02 -0.10061852118E+02 -0.23587831822E+02  0.65206332027E+02  0.00000000000E+00 0.  1.
         11    1    3    3    0    0 -0.16923517707E+03  0.42345077271E+02  0.65240783169E+02  0.18625254499E+03  0.00000000000E+00 0. -1.
          4    1    1    2  501    0  0.70565854778E+01  0.66004714101E+02 -0.10644868438E+03  0.12545014981E+03  0.00000000000E+00 0. -1.
<scales pt_clust_5="13000.00000" pt_clust_6="13000.00000" pt_clust_7="13000.00000" pt_clust_8="13000.00000" pt_clust_9="66.38085"></scales>
<clustering>
<clus scale="   66.381">  2  9  1 -1</clus>
<clus scale="   81.084">  5  6 -1 -1</clus>
<clus scale="   89.037">  7  8 -1 -1</clus>
<clus scale="  245.755">  2  5  1 -1</clus>
<clus scale="   66.381">  2  5  1 -1</clus>
</clustering>
</event>
<event>
 9    1  0.9171696E-005  0.1020567E+03  0.7546771E-02  0.1281557E+00
         21   -1    0    0  501  502  0.00000000000E+00  0.00000000000E+00  0.26338846261E+02  0.26338846261E+02  0.00000000000E+00 0.  1.
          1   -1    0    0  502    0 -0.00000000000E+00 -0.00000000000E+00 -0.77370523239E+03  0.77370523239E+03  0.00000000000E+00 0. -1.
        -24    2    1    2    0    0 -0.23066084545E+02  0.43297009334E+02 -0.38063038280E+03  0.39201888700E+03  0.79954012901E+02 0.  0.
         23    2    1    2    0    0 -0.41342694582E+02 -0.49097287026E+02 -0.19875050647E+03  0.22802168834E+03  0.91500625914E+02 0.  0.
         11    1    3    3    0    0 -0.18956223199E+02  0.61101299044E+02 -0.18929910790E+03  0.19981706483E+03  0.00000000000E+00 0. -1.
        -12    1    3    3    0    0 -0.41098613456E+01 -0.17804289710E+02 -0.19133127490E+03  0.19220182217E+03  0.00000000000E+00 0.  1.
        -11    1    4    4    0    0 -0.22980246268E+02 -0.75880057209E+02 -0.14248672765E+03  0.16305932159E+03  0.00000000000E+00 0.  1.
         11    1    4    4    0    0 -0.18362448315E+02  0.26782770183E+02 -0.56263778815E+02  0.64962366747E+02  0.00000000000E+00 0. -1.
          2    1    1    2  501    0  0.64408779127E+02  0.58002776913E+01 -0.16798549686E+03  0.18000350331E+03  0.00000000000E+00 0. -1.
<scales pt_clust_5="13000.00000" pt_clust_6="13000.00000" pt_clust_7="13000.00000" pt_clust_8="13000.00000" pt_clust_9="64.66942"></scales>
<clustering>
<clus scale="   64.669">  1  9  2 -1</clus>
<clus scale="   79.954">  5  6 -1 -1</clus>
<clus scale="   91.501">  7  8 -1 -1</clus>
<clus scale="   91.847">  2  5  1 -1</clus>
<clus scale="   64.669">  1  5  2 -1</clus>
</clustering>
</event>
<event>
 9    1  0.9171696E-005  0.1109001E+03  0.7546771E-02  0.1262807E+00
         21   -1    0    0  501  502  0.00000000000E+00  0.00000000000E+00  0.29301869513E+03  0.29301869513E+03  0.00000000000E+00 0.  1.
         -4   -1    0    0    0  501 -0.00000000000E+00 -0.00000000000E+00 -0.20216669612E+03  0.20216669612E+03  0.00000000000E+00 0.  1.
         23    2    1    2    0    0 -0.63794050846E+02 -0.10867426383E+02 -0.16429614688E+03  0.19906630154E+03  0.91904225420E+02 0.  0.
        -24    2    1    2    0    0  0.45988163251E+02 -0.22131405656E+01  0.91987556349E+02  0.13146937412E+03  0.81869876373E+02 0.  0.
         13    1    4    4    0    0  0.23577254406E+02  0.15363939315E+02 -0.65538468273E+01  0.28894471181E+02  0.00000000000E+00 0. -1.
        -14    1    4    4    0    0  0.22410908845E+02 -0.17577079881E+02  0.98541403176E+02  0.10257490294E+03  0.00000000000E+00 0.  1.
        -13    1    3    3    0    0  0.82177273141E+01 -0.27154459179E+02 -0.14047991962E+02  0.31658202312E+02  0.00000000000E+00 0. -1.
         13    1    3    3    0    0 -0.72011778160E+02  0.16287032796E+02 -0.15024815492E+03  0.16740809923E+03  0.00000000000E+00 0.  1.
         -3    1    1    2    0  502  0.17805887595E+02  0.13080566948E+02  0.16316058955E+03  0.16464971560E+03  0.00000000000E+00 0.  1.
<scales pt_clust_5="13000.00000" pt_clust_6="13000.00000" pt_clust_7="13000.00000" pt_clust_8="13000.00000" pt_clust_9="22.09414"></scales>
<clustering>
<clus scale="   22.094">  1  9  2 -1</clus>
<clus scale="   81.870">  5  6 -1 -1</clus>
<clus scale="   91.904">  7  8 -1 -1</clus>
<clus scale="  102.738">  1  5  2 -1</clus>
<clus scale="   22.094">  1  5  2 -1</clus>
</clustering>
</event>
<event>
 9    1  0.9171696E-005  0.1670665E+03  0.7546771E-02  0.1204443E+00
          1   -1    0    0  502    0 -0.00000000000E+00  0.00000000000E+00  0.10886606076E+03  0.10886606076E+03  0.00000000000E+00 0. -1.
         21   -1    0    0  501  502  0.00000000000E+00 -0.00000000000E+00 -0.95914938308E+03  0.95914938308E+03  0.00000000000E+00 0. -1.
        -24    2    1    2    0    0 -0.70911128924E+01  0.63664151664E+02  0.36435328834E+02  0.10608654353E+03  0.76311293011E+02 0.  0.
         23    2    1    2    0    0  0.90568541356E+02  0.91637964067E+02 -0.63653951557E+03  0.65586219500E+03  0.91501294043E+02 0.  0.
         13    1    3    3    0    0 -0.66121375503E+01  0.79060482154E+02  0.41926147171E+02  0.89733394108E+02  0.00000000000E+00 0. -1.
        -14    1    3    3    0    0 -0.47897534207E+00 -0.15396330490E+02 -0.54908183370E+01  0.16353149420E+02  0.00000000000E+00 0.  1.
        -11    1    4    4    0    0  0.87734056785E+02  0.35988252881E+02 -0.48988247576E+03  0.49897621098E+03  0.00000000000E+00 0. -1.
         11    1    4    4    0    0  0.28344845708E+01  0.55649711186E+02 -0.14665703981E+03  0.15688598402E+03  0.00000000000E+00 0.  1.
          2    1    1    2  501    0 -0.83477428464E+02 -0.15530211573E+03 -0.25017913559E+03  0.30606670531E+03  0.00000000000E+00 0. -1.
<scales pt_clust_5="13000.00000" pt_clust_6="13000.00000" pt_clust_7="13000.00000" pt_clust_8="13000.00000" pt_clust_9="139.78113"></scales>
<clustering>
<clus scale="   76.311">  5  6 -1 -1</clus>
<clus scale="   91.501">  7  8 -1 -1</clus>
<clus scale="   99.633">  1  5  2 -1</clus>
<clus scale="  139.781">  2  9  1 -1</clus>
<clus scale="  139.781">  2  5  1 -1</clus>
</clustering>
</event>
<event>
 9    1  0.9171696E-005  0.8555080E+02  0.7546771E-02  0.1314630E+00
         -4   -1    0    0    0  501 -0.00000000000E+00  0.00000000000E+00  0.27126244948E+02  0.27126244948E+02  0.00000000000E+00 0.  1.
         21   -1    0    0  501  502  0.00000000000E+00 -0.00000000000E+00 -0.69463989367E+03  0.69463989367E+03  0.00000000000E+00 0.  1.
         23    2    1    2    0    0 -0.61610370991E+01  0.44768114394E+02 -0.15273738433E+03  0.17891771380E+03  0.81490473636E+02 0.  0.
        -24    2    1    2    0    0  0.27522340551E+02  0.26466059640E+02 -0.36385830972E+03  0.37460205227E+03  0.80472954890E+02 0.  0.
         13    1    4    4    0    0 -0.45083186844E+01  0.48433166011E+02 -0.23661062641E+03  0.24155886454E+03  0.00000000000E+00 0. -1.
        -14    1    4    4    0    0  0.32030659235E+02 -0.21967106371E+02 -0.12724768332E+03  0.13304318773E+03  0.00000000000E+00 0.  1.
        -13    1    3    3    0    0  0.25756571557E+02  0.26022067054E+02 -0.13093659071E+03  0.13595933120E+03  0.00000000000E+00 0.  1.
         13    1    3    3    0    0 -0.31917608656E+02  0.18746047339E+02 -0.21800793618E+02  0.42958382599E+02  0.00000000000E+00 0. -1.
         -3    1    1    2    0  502 -0.21361303452E+02 -0.71234174034E+02 -0.15091795467E+03  0.16824637255E+03  0.00000000000E+00 0.  1.
<scales pt_clust_5="13000.00000" pt_clust_6="13000.00000" pt_clust_7="13000.00000" pt_clust_8="13000.00000" pt_clust_9="74.36813"></scales>
<clustering>
<clus scale="   74.368">  2  9  1 -1</clus>
<clus scale="   80.473">  5  6 -1 -1</clus>
<clus scale="   81.490">  7  8 -1 -1</clus>
<clus scale="   84.582">  2  5  1 -1</clus>
<clus scale="   74.368">  2  5  1 -1</clus>
</clustering>
</event>
<event>
 9    1  0.9171696E-005  0.1192044E+03  0.7546771E-02  0.1247311E+00
         21   -1    0    0  501  502  0.00000000000E+00  0.00000000000E+00  0.28753290403E+03  0.28753290403E+03  0.00000000000E+00 0. -1.
          3   -1    0    0  502    0 -0.00000000000E+00 -0.00000000000E+00 -0.92704561004E+02  0.92704561004E+02  0.00000000000E+00 0. -1.
        -24    2    1    2    0    0  0.16190396002E+02 -0.75528835962E+02 -0.64834448378E+01  0.11392684890E+03  0.83489866802E+02 0.  0.
         23    2    1    2    0    0 -0.56766071609E+02  0.56257625377E+02  0.10926365687E+03  0.16388687168E+03  0.92374524076E+02 0.  0.
         13    1    3    3    0    0  0.98544921265E+01 -0.91246045874E+02 -0.17883716127E+02  0.93502829931E+02  0.00000000000E+00 0. -1.
        -14    1    3    3    0    0  0.63359038756E+01  0.15717209912E+02  0.11400271289E+02  0.20424018968E+02  0.00000000000E+00 0.  1.
        -13    1    4    4    0    0 -0.31546460820E+02  0.39005591609E+02 -0.27460997539E+00  0.50166630121E+02  0.00000000000E+00 0.  1.
         13    1    4    4    0    0 -0.25219610789E+02  0.17252033768E+02  0.10953826684E+03  0.11372024156E+03  0.00000000000E+00 0. -1.
          4    1    1    2  501    0  0.40575675606E+02  0.19271210585E+02  0.92048130996E+02  0.10242374445E+03  0.00000000000E+00 0. -1.
<scales pt_clust_5="13000.00000" pt_clust_6="13000.00000" pt_clust_7="13000.00000" pt_clust_8="13000.00000" pt_clust_9="44.91954"></scales>
<clustering>
<clus scale="   44.920">  1  9  2 -1</clus>
<clus scale="   83.490">  5  6 -1 -1</clus>
<clus scale="   92.375">  7  8 -1 -1</clus>
<clus scale="  112.460">  2  5  1 -1</clus>
<clus scale="   44.920">  1  5  2 -1</clus>
</clustering>
</event>
<event>
 9    1  0.9171696E-005  0.4501237E+03  0.7546771E-02  0.1081063E+00
         21   -1    0    0  501  502  0.00000000000E+00  0.00000000000E+00  0.71064031579E+02  0.71064031579E+02  0.00000000000E+00 0. -1.
          1   -1    0    0  502    0 -0.00000000000E+00 -0.00000000000E+00 -0.37554788527E+04  0.37554788527E+04  0.00000000000E+00 0. -1.
        -24    2    1    2    0    0  0.71170611331E+01 -0.57600449706E+02 -0.56456664541E+03  0.57323776918E+03  0.80607558833E+02 0.  0.
         23    2    1    2    0    0 -0.26357538998E+03  0.37757617821E+03 -0.11648955145E+04  0.12558078689E+04  0.89644225524E+02 0.  0.
         11    1    3    3    0    0  0.29192386760E+02  0.52136872690E+01 -0.11472434413E+03  0.11849494975E+03  0.00000000000E+00 0. -1.
        -12    1    3    3    0    0 -0.22075325627E+02 -0.62814136975E+02 -0.44984230128E+03  0.45474281944E+03  0.00000000000E+00 0.  1.
        -11    1    4    4    0    0 -0.21069063608E+03  0.24330743973E+03 -0.73633664262E+03  0.80360481932E+03  0.00000000000E+00 0. -1.
         11    1    4    4    0    0 -0.52884753899E+02  0.13426873848E+03 -0.42855887192E+03  0.45220304956E+03  0.00000000000E+00 0.  1.
          2    1    1    2  501    0  0.25645832884E+03 -0.31997572850E+03 -0.19549526612E+04  0.19974972462E+04  0.00000000000E+00 0. -1.
<scales pt_clust_5="13000.00000" pt_clust_6="13000.00000" pt_clust_7="13000.00000" pt_clust_8="13000.00000" pt_clust_9="441.10709"></scales>
<clustering>
<clus scale="   80.608">  5  6 -1 -1</clus>
<clus scale="   89.644">  7  8 -1 -1</clus>
<clus scale="   99.328">  2  5  1 -1</clus>
<clus scale="  441.107">  1  9  2 -1</clus>
<clus scale="  441.107">  1  5  2 -1</clus>
</clustering>
</event>
<event>
 9    1  0.9171696E-005  0.1477523E+03  0.7546771E-02  0.1204834E+00
         21   -1    0    0  501  502  0.00000000000E+00  0.00000000000E+00  0.19701003639E+03  0.19701003639E+03  0.00000000000E+00 0. -1.
          1   -1    0    0  502    0 -0.00000000000E+00 -0.00000000000E+00 -0.50528971944E+03  0.50528971944E+03  0.00000000000E+00 0. -1.
         23    2    1    2    0    0 -0.26341499868E+02 -0.11433096709E+03 -0.44407615298E+03  0.46776735352E+03  0.88528090036E+02 0.  0.
        -24    2    1    2    0    0  0.11583232061E+02  0.12876623735E+03  0.73468247450E+02  0.16887426637E+03  0.80037611875E+02 0.  0.
         11    1    4    4    0    0 -0.20859510769E+02  0.61174600765E+02  0.10580758620E+01  0.64641863314E+02  0.00000000000E+00 0. -1.
        -12    1    4    4    0    0  0.32442742830E+02  0.67591636581E+02  0.72410171588E+02  0.10423240306E+03  0.00000000000E+00 0.  1.
        -13    1    3    3    0    0 -0.35447582306E+02 -0.49586413455E+02 -0.96815861215E+02  0.11440565752E+03  0.00000000000E+00 0.  1.
         13    1    3    3    0    0  0.91060824381E+01 -0.64744553636E+02 -0.34726029176E+03  0.35336169600E+03  0.00000000000E+00 0. -1.
          2    1    1    2  501    0  0.14758267807E+02 -0.14435270254E+02  0.62328222486E+02  0.65658135933E+02  0.00000000000E+00 0. -1.
<scales pt_clust_5="13000.00000" pt_clust_6="13000.00000" pt_clust_7="13000.00000" pt_clust_8="13000.00000" pt_clust_9="20.64421"></scales>
<clustering>
<clus scale="   20.644">  1  9  2 -1</clus>
<clus scale="   80.038">  5  6 -1 -1</clus>
<clus scale="   88.528">  7  8 -1 -1</clus>
<clus scale="  142.827">  1  5  2 -1</clus>
<clus scale="   20.644">  1  5  2 -1</clus>
</clustering>
</event>
<event>
 9    1  0.9171696E-005  0.2751002E+03  0.7546771E-02  0.1098895E+00
         21   -1    0    0  501  502  0.00000000000E+00  0.00000000000E+00  0.72427706397E+03  0.72427706397E+03  0.00000000000E+00 0.  1.
         -2   -1    0    0    0  501 -0.00000000000E+00 -0.00000000000E+00 -0.21552991758E+03  0.21552991758E+03  0.00000000000E+00 0.  1.
        -24    2    1    2    0    0 -0.45896197878E+02 -0.30643155491E+03 -0.86548483890E+01  0.32023061093E+03  0.80411311079E+02 0.  0.
         23    2    1    2    0    0  0.45698514061E+01  0.15103740750E+03  0.31361249770E+03  0.35998945438E+03  0.91686566881E+02 0.  0.
         11    1    3    3    0    0 -0.48977590893E+02 -0.82803403294E+02 -0.85275530691E+01  0.96581194692E+02  0.00000000000E+00 0. -1.
        -12    1    3    3    0    0  0.30813930146E+01 -0.22362815162E+03 -0.12729531992E+00  0.22364941623E+03  0.00000000000E+00 0.  1.
        -11    1    4    4    0    0  0.38799637185E+02  0.30861946429E+02  0.65075959063E+02  0.81809241722E+02  0.00000000000E+00 0.  1.
         11    1    4    4    0    0 -0.34229785779E+02  0.12017546107E+03  0.24853653864E+03  0.27818021266E+03  0.00000000000E+00 0. -1.
         -1    1    1    2    0  502  0.41326346472E+02  0.15539414741E+03  0.20378949708E+03  0.25958691624E+03  0.00000000000E+00 0.  1.
<scales pt_clust_5="13000.00000" pt_clust_6="13000.00000" pt_clust_7="13000.00000" pt_clust_8="13000.00000" pt_clust_9="160.79555"></scales>
<clustering>
<clus scale="   80.411">  5  6 -1 -1</clus>
<clus scale="   91.687">  7  8 -1 -1</clus>
<clus scale="  160.796">  1  9  2 -1</clus>
<clus scale="  271.550">  2  5  1 -1</clus>
<clus scale="  160.796">  1  5  2 -1</clus>
</clustering>
</event>
<event>
 9    1  0.9171696E-005  0.1203101E+03  0.7546771E-02  0.1245948E+00
         21   -1    0    0  501  502  0.00000000000E+00  0.00000000000E+00  0.55288630165E+02  0.55288630165E+02  0.00000000000E+00 0. -1.
          1   -1    0    0  502    0 -0.00000000000E+00 -0.00000000000E+00 -0.11980532705E+04  0.11980532705E+04  0.00000000000E+00 0. -1.
        -24    2    1    2    0    0  0.33002773172E+02 -0.69224268319E+02 -0.53562183598E+03  0.54706223123E+03  0.80654518155E+02 0.  0.
         23    2    1    2    0    0  0.74006119528E+02  0.92861299734E+02 -0.57185453994E+03  0.59114985586E+03  0.91325848085E+02 0.  0.
         13    1    3    3    0    0  0.76193737952E+01 -0.66044351297E+02 -0.20628879536E+03  0.21673711792E+03  0.00000000000E+00 0. -1.
        -14    1    3    3    0    0  0.25383399377E+02 -0.31799170217E+01 -0.32933304062E+03  0.33032511330E+03  0.00000000000E+00 0.  1.
        -13    1    4    4    0    0  0.80767874341E+02  0.57329969444E+02 -0.50972740554E+03  0.51926120872E+03  0.00000000000E+00 0. -1.
         13    1    4    4    0    0 -0.67617548123E+01  0.35531330289E+02 -0.62127134397E+02  0.71888647147E+02  0.00000000000E+00 0.  1.
          2    1    1    2  501    0 -0.10700889270E+03 -0.23637031415E+02 -0.35288264445E+02  0.11512981360E+03  0.00000000000E+00 0. -1.
<scales pt_clust_5="13000.00000" pt_clust_6="13000.00000" pt_clust_7="13000.00000" pt_clust_8="13000.00000" pt_clust_9="109.58838"></scales>
<clustering>
<clus scale="   80.655">  5  6 -1 -1</clus>
<clus scale="   91.326">  7  8 -1 -1</clus>
<clus scale="  109.588">  1  9  2 -1</clus>
<clus scale="  112.424">  2  5  1 -1</clus>
<clus scale="  109.588">  1  5  2 -1</clus>
</clustering>
</event>
<event>
 9    1  0.9171696E-005  0.1550994E+03  0.7546771E-02  0.1208081E+00
          1   -1    0    0  502    0 -0.00000000000E+00  0.00000000000E+00  0.72687913581E+03  0.72687913581E+03  0.00000000000E+00 0. -1.
         21   -1    0    0  501  502  0.00000000000E+00 -0.00000000000E+00 -0.27842949441E+03  0.27842949441E+03  0.00000000000E+00 0. -1.
        -24    2    1    2    0    0 -0.48206959935E+02  0.66129897133E+02 -0.60489350365E+02  0.13007764102E+03  0.81019484730E+02 0.  0.
         23    2    1    2    0    0  0.37295454758E+02 -0.19041805140E+03  0.65160127593E+03  0.68570755118E+03  0.89222405844E+02 0.  0.
         11    1    3    3    0    0 -0.70453972969E+02  0.51261096700E+02 -0.37722469423E+02  0.94944441866E+02  0.00000000000E+00 0. -1.
        -12    1    3    3    0    0  0.22247013034E+02  0.14868800433E+02 -0.22766880942E+02  0.35133199158E+02  0.00000000000E+00 0.  1.
        -11    1    4    4    0    0 -0.27548222285E+02 -0.31204217757E+02  0.12253388683E+03  0.12941082327E+03  0.00000000000E+00 0.  1.
         11    1    4    4    0    0  0.64843677044E+02 -0.15921383364E+03  0.52906738910E+03  0.55629672791E+03  0.00000000000E+00 0. -1.
          2    1    1    2  501    0  0.10911505177E+02  0.12428815426E+03 -0.14266228416E+03  0.18952343802E+03  0.00000000000E+00 0. -1.
<scales pt_clust_5="13000.00000" pt_clust_6="13000.00000" pt_clust_7="13000.00000" pt_clust_8="13000.00000" pt_clust_9="126.86681"></scales>
<clustering>
<clus scale="   81.019">  5  6 -1 -1</clus>
<clus scale="   89.222">  7  8 -1 -1</clus>
<clus scale="  115.157">  1  5  2 -1</clus>
<clus scale="  126.867">  2  9  1 -1</clus>
<clus scale="  126.867">  2  5  1 -1</clus>
</clustering>
</event>
<event>
 9    1  0.9171696E-005  0.9956620E+02  0.7546771E-02  0.1286807E+00
         -2   -1    0    0    0  501 -0.00000000000E+00  0.00000000000E+00  0.11296037719E+03  0.11296037719E+03  0.00000000000E+00 0.  1.
         21   -1    0    0  501  502  0.00000000000E+00 -0.00000000000E+00 -0.14532949279E+03  0.14532949279E+03  0.00000000000E+00 0. -1.
         23    2    1    2    0    0  0.81918704422E+01  0.23230521024E+02 -0.23610971616E+02  0.96203334107E+02  0.89949094850E+02 0.  0.
        -24    2    1    2    0    0  0.34116480858E+02 -0.59036023041E+02 -0.18561709763E+02  0.10580029896E+03  0.78739951152E+02 0.  0.
         11    1    4    4    0    0 -0.29655823240E+01 -0.62672960226E+02 -0.25805676364E+02  0.67842667655E+02  0.00000000000E+00 0. -1.
        -12    1    4    4    0    0  0.37082063182E+02  0.36369371846E+01  0.72439666006E+01  0.37957631302E+02  0.00000000000E+00 0.  1.
        -11    1    3    3    0    0 -0.39372697730E+02  0.21476033485E+02 -0.17803489985E+02  0.48253430929E+02  0.00000000000E+00 0.  1.
         11    1    3    3    0    0  0.47564568172E+02  0.17544875389E+01 -0.58074816302E+01  0.47949903178E+02  0.00000000000E+00 0. -1.
         -1    1    1    2    0  502 -0.42308351300E+02  0.35805502017E+02  0.98035657741E+01  0.56286236917E+02  0.00000000000E+00 0.  1.
<scales pt_clust_5="13000.00000" pt_clust_6="13000.00000" pt_clust_7="13000.00000" pt_clust_8="13000.00000" pt_clust_9="55.42593"></scales>
<clustering>
<clus scale="   55.426">  2  9  1 -1</clus>
<clus scale="   78.740">  5  6 -1 -1</clus>
<clus scale="   89.569">  2  5  1 -1</clus>
<clus scale="   89.949">  7  8 -1 -1</clus>
<clus scale="   55.426">  2  5  1 -1</clus>
</clustering>
</event>
<event>
 9    1  0.9171696E-005  0.1351170E+03  0.7546771E-02  0.1223688E+00
         21   -1    0    0  501  502  0.00000000000E+00  0.00000000000E+00  0.82477615349E+03  0.82477615349E+03  0.00000000000E+00 0.  1.
         -4   -1    0    0    0  501 -0.00000000000E+00 -0.00000000000E+00 -0.42524546131E+02  0.42524546131E+02  0.00000000000E+00 0.  1.
         23    2    1    2    0    0 -0.12146025391E+02  0.96200335511E+02  0.18091172837E+03  0.22507425204E+03  0.92343570344E+02 0.  0.
        -24    2    1    2    0    0 -0.57842834522E+02 -0.98430900006E+02  0.26507665527E+03  0.29874956109E+03  0.77144225315E+02 0.  0.
         13    1    4    4    0    0 -0.43389317000E+02 -0.10473047829E+03  0.18372547065E+03  0.21588458601E+03  0.00000000000E+00 0. -1.
        -14    1    4    4    0    0 -0.14453517521E+02  0.62995782804E+01  0.81351184621E+02  0.82864975077E+02  0.00000000000E+00 0.  1.
        -11    1    3    3    0    0  0.82197187356E+00  0.67979225430E+02  0.36109790232E+02  0.76979008038E+02  0.00000000000E+00 0.  1.
         11    1    3    3    0    0 -0.12967997265E+02  0.28221110081E+02  0.14480193814E+03  0.14809524400E+03  0.00000000000E+00 0. -1.
         -3    1    1    2    0  502  0.69988859913E+02  0.22305644951E+01  0.33626322372E+03  0.34347688649E+03  0.00000000000E+00 0.  1.
<scales pt_clust_5="13000.00000" pt_clust_6="13000.00000" pt_clust_7="13000.00000" pt_clust_8="13000.00000" pt_clust_9="70.02440"></scales>
<clustering>
<clus scale="   70.024">  1  9  2 -1</clus>
<clus scale="   77.144">  5  6 -1 -1</clus>
<clus scale="   92.344">  7  8 -1 -1</clus>
<clus scale="  125.222">  1  5  2 -1</clus>
<clus scale="   70.024">  1  5  2 -1</clus>
</clustering>
</event>
<event>
 9    1  0.9171696E-005  0.1299604E+03  0.7546771E-02  0.1246804E+00
          1   -1    0    0  502    0 -0.00000000000E+00  0.00000000000E+00  0.12803559134E+03  0.12803559134E+03  0.00000000000E+00 0. -1.
         21   -1    0    0  501  502  0.00000000000E+00 -0.00000000000E+00 -0.30091735445E+03  0.30091735445E+03  0.00000000000E+00 0. -1.
        -24    2    1    2    0    0 -0.17937604162E+02 -0.29945574253E+02  0.91234051084E+01  0.88146070335E+02  0.80423865452E+02 0.  0.
         23    2    1    2    0    0 -0.69655919654E+02  0.60902921681E+02 -0.20678892022E+03  0.24465482327E+03  0.92375386401E+02 0.  0.
         13    1    3    3    0    0 -0.13602969090E+02  0.18995915495E+02  0.27142155712E+02  0.35813156664E+02  0.00000000000E+00 0. -1.
        -14    1    3    3    0    0 -0.43346350717E+01 -0.48941489748E+02 -0.18018750604E+02  0.52332913671E+02  0.00000000000E+00 0.  1.
        -11    1    4    4    0    0 -0.44403501079E+02  0.26599473383E+02 -0.19309447454E+03  0.19991167797E+03  0.00000000000E+00 0. -1.
         11    1    4    4    0    0 -0.25252418575E+02  0.34303448298E+02 -0.13694445684E+02  0.44743145304E+02  0.00000000000E+00 0.  1.
          2    1    1    2  501    0  0.87593523816E+02 -0.30957347428E+02  0.24783752004E+02  0.96152052176E+02  0.00000000000E+00 0. -1.
<scales pt_clust_5="13000.00000" pt_clust_6="13000.00000" pt_clust_7="13000.00000" pt_clust_8="13000.00000" pt_clust_9="91.41397"></scales>
<clustering>
<clus scale="   80.424">  5  6 -1 -1</clus>
<clus scale="   87.673">  1  5  2 -1</clus>
<clus scale="   91.414">  2  9  1 -1</clus>
<clus scale="   92.375">  7  8 -1 -1</clus>
<clus scale="   91.414">  2  5  1 -1</clus>
</clustering>
</event>
<event>
 9    1  0.9171696E-005  0.1042807E+03  0.7546771E-02  0.1277343E+00
         21   -1    0    0  501  502  0.00000000000E+00  0.00000000000E+00  0.69376207913E+02  0.69376207913E+02  0.00000000000E+00 0.  1.
         -4   -1    0    0    0  501 -0.00000000000E+00 -0.00000000000E+00 -0.24891440633E+03  0.24891440633E+03  0.00000000000E+00 0.  1.
         23    2    1    2    0    0 -0.75078237629E+01  0.48900718664E+02 -0.16665873792E+03  0.19794561578E+03  0.94655608258E+02 0.  0.
        -24    2    1    2    0    0  0.18173886262E+02 -0.23757826210E+02  0.48409117113E+01  0.87788255369E+02  0.82393075598E+02 0.  0.
         11    1    4    4    0    0 -0.25915743497E+02 -0.45030280554E+01 -0.20558047716E+02  0.33384672360E+02  0.00000000000E+00 0. -1.
        -12    1    4    4    0    0  0.44089629759E+02 -0.19254798155E+02  0.25398959427E+02  0.54403583009E+02  0.00000000000E+00 0.  1.
        -11    1    3    3    0    0 -0.44790954084E+02  0.76032081227E+01 -0.10764671024E+03  0.11684114244E+03  0.00000000000E+00 0. -1.
         11    1    3    3    0    0  0.37283130322E+02  0.41297510541E+02 -0.59012027688E+02  0.81104473337E+02  0.00000000000E+00 0.  1.
         -3    1    1    2    0  502 -0.10666062499E+02 -0.25142892454E+02 -0.17720372206E+02  0.32556743100E+02  0.00000000000E+00 0.  1.
<scales pt_clust_5="13000.00000" pt_clust_6="13000.00000" pt_clust_7="13000.00000" pt_clust_8="13000.00000" pt_clust_9="27.31172"></scales>
<clustering>
<clus scale="   27.312">  1  9  2 -1</clus>
<clus scale="   82.393">  5  6 -1 -1</clus>
<clus scale="   93.292">  1  5  2 -1</clus>
<clus scale="   94.656">  7  8 -1 -1</clus>
<clus scale="   27.312">  1  5  2 -1</clus>
</clustering>
</event>
<event>
 9    1  0.9171696E-005  0.1516310E+03  0.7546771E-02  0.1206904E+00
         -2   -1    0    0    0  501 -0.00000000000E+00  0.00000000000E+00  0.15890505686E+03  0.15890505686E+03  0.00000000000E+00 0.  1.
         21   -1    0    0  501  502  0.00000000000E+00 -0.00000000000E+00 -0.25474730114E+03  0.25474730114E+03  0.00000000000E+00 0. -1.
        -24    2    1    2    0    0  0.54087216779E+02 -0.77593984362E+02  0.69650345820E+02  0.14073959211E+03  0.77525535697E+02 0.  0.
         23    2    1    2    0    0 -0.68163600928E+02  0.97663412731E+02 -0.78788316964E+02  0.18280972751E+03  0.11413754380E+03 0.  0.
         13    1    3    3    0    0 -0.19024346044E+02 -0.12888058081E+02  0.46391347494E+01  0.23442469041E+02  0.00000000000E+00 0. -1.
        -14    1    3    3    0    0  0.73111562823E+02 -0.64705926281E+02  0.65011211071E+02  0.11729712306E+03  0.00000000000E+00 0.  1.
        -13    1    4    4    0    0  0.30866587307E+02  0.29916689938E+02 -0.87133418513E+01  0.43859740937E+02  0.00000000000E+00 0.  1.
         13    1    4    4    0    0 -0.99030188235E+02  0.67746722792E+02 -0.70074975112E+02  0.13894998657E+03  0.00000000000E+00 0. -1.
         -1    1    1    2    0  502  0.14076384149E+02 -0.20069428368E+02 -0.86704273134E+02  0.90103038381E+02  0.00000000000E+00 0.  1.
<scales pt_clust_5="13000.00000" pt_clust_6="13000.00000" pt_clust_7="13000.00000" pt_clust_8="13000.00000" pt_clust_9="24.51380"></scales>
<clustering>
<clus scale="   24.514">  2  9  1 -1</clus>
<clus scale="   77.526">  5  6 -1 -1</clus>
<clus scale="  114.138">  7  8 -1 -1</clus>
<clus scale="  126.391">  1  5  2 -1</clus>
<clus scale="   24.514">  2  5  1 -1</clus>
</clustering>
</event>
<event>
 9    1  0.9171696E-005  0.1028242E+03  0.7546771E-02  0.1285443E+00
          3   -1    0    0  502    0 -0.00000000000E+00  0.00000000000E+00  0.15958199232E+03  0.15958199232E+03  0.00000000000E+00 0. -1.
         21   -1    0    0  501  502  0.00000000000E+00 -0.00000000000E+00 -0.16244567860E+03  0.16244567860E+03  0.00000000000E+00 0.  1.
         23    2    1    2    0    0  0.87009566215E+01 -0.10844309665E+02  0.91648739149E+02  0.13665108855E+03  0.10040280333E+03 0.  0.
        -24    2    1    2    0    0  0.53102886181E+01  0.64928010641E+02 -0.64449542764E+02  0.12193260221E+03  0.80436124888E+02 0.  0.
         13    1    4    4    0    0 -0.28321414568E+02  0.91309879504E+00 -0.31795409038E+02  0.42589720689E+02  0.00000000000E+00 0. -1.
        -14    1    4    4    0    0  0.33631703186E+02  0.64014911846E+02 -0.32654133727E+02  0.79342881516E+02  0.00000000000E+00 0.  1.
        -11    1    3    3    0    0  0.27008390649E+02  0.35189850882E+02  0.17960434857E+02  0.47857663867E+02  0.00000000000E+00 0.  1.
         11    1    3    3    0    0 -0.18307434027E+02 -0.46034160547E+02  0.73688304292E+02  0.88793424685E+02  0.00000000000E+00 0. -1.
          4    1    1    2  501    0 -0.14011245240E+02 -0.54083700976E+02 -0.30062882671E+02  0.63443980163E+02  0.00000000000E+00 0. -1.
<scales pt_clust_5="13000.00000" pt_clust_6="13000.00000" pt_clust_7="13000.00000" pt_clust_8="13000.00000" pt_clust_9="55.86915"></scales>
<clustering>
<clus scale="   55.869">  2  9  1 -1</clus>
<clus scale="   80.436">  5  6 -1 -1</clus>
<clus scale="   83.439">  2  5  1 -1</clus>
<clus scale="  100.403">  7  8 -1 -1</clus>
<clus scale="   55.869">  2  5  1 -1</clus>
</clustering>
</event>
<event>
 9    1  0.1061359E-004  0.1113817E+03  0.7546771E-02  0.1261530E+00
         -2   -1    0    0    0  501 -0.00000000000E+00  0.00000000000E+00  0.27331449867E+03  0.27331449867E+03  0.00000000000E+00 0.  1.
         21   -1    0    0  501  502  0.00000000000E+00 -0.00000000000E+00 -0.18629504446E+03  0.18629504446E+03  0.00000000000E+00 0.  1.
        -24    2    1    2    0    0  0.64766224098E+02 -0.12949898571E+02  0.20870193797E+03  0.23472539632E+03  0.84718056569E+02 0.  0.
         23    2    1    2    0    0  0.40130024826E+01  0.10743957413E+02 -0.12425790107E+03  0.15602137778E+03  0.93654191228E+02 0.  0.
         13    1    3    3    0    0 -0.18174509546E+02  0.10806550279E+02  0.41592108996E+02  0.46658309623E+02  0.00000000000E+00 0. -1.
        -14    1    3    3    0    0  0.82940733643E+02 -0.23756448851E+02  0.16710982898E+03  0.18806708670E+03  0.00000000000E+00 0.  1.
        -13    1    4    4    0    0 -0.15494824384E+02  0.32034267403E+02 -0.12196972224E+03  0.12705470087E+03  0.00000000000E+00 0.  1.
         13    1    4    4    0    0  0.19507826867E+02 -0.21290309990E+02 -0.22881788333E+01  0.28966676904E+02  0.00000000000E+00 0. -1.
         -1    1    1    2    0  502 -0.68779226580E+02  0.22059411582E+01  0.25754173116E+01  0.68862769039E+02  0.00000000000E+00 0.  1.
<scales pt_clust_5="13000.00000" pt_clust_6="13000.00000" pt_clust_7="13000.00000" pt_clust_8="13000.00000" pt_clust_9="68.81459"></scales>
<clustering>
<clus scale="   68.815">  2  9  1 -1</clus>
<clus scale="   84.718">  5  6 -1 -1</clus>
<clus scale="   93.654">  7  8 -1 -1</clus>
<clus scale="  103.980">  1  5  2 -1</clus>
<clus scale="   68.815">  2  5  1 -1</clus>
</clustering>
</event>
<event>
 9    1  0.9171696E-005  0.2708247E+03  0.7546771E-02  0.1111558E+00
          1   -1    0    0  502    0 -0.00000000000E+00  0.00000000000E+00  0.50004184079E+03  0.50004184079E+03  0.00000000000E+00 0. -1.
         21   -1    0    0  501  502  0.00000000000E+00 -0.00000000000E+00 -0.82093357012E+03  0.82093357012E+03  0.00000000000E+00 0. -1.
         23    2    1    2    0    0  0.14146894433E+03 -0.11751825971E+03 -0.53483968690E+03  0.57298190728E+03  0.91819234405E+02 0.  0.
        -24    2    1    2    0    0  0.20835801397E+03  0.12308100689E+03 -0.10093111749E+03  0.27729330519E+03  0.90235748928E+02 0.  0.
         11    1    4    4    0    0  0.17701846885E+03  0.13253937573E+03 -0.69225341230E+02  0.23172046155E+03  0.00000000000E+00 0. -1.
        -12    1    4    4    0    0  0.31339545120E+02 -0.94583688419E+01 -0.31705776255E+02  0.45572843640E+02  0.00000000000E+00 0.  1.
        -13    1    3    3    0    0  0.14059079966E+03 -0.97038379741E+02 -0.52089072793E+03  0.54818734985E+03  0.00000000000E+00 0. -1.
         13    1    3    3    0    0  0.87814466570E+00 -0.20479879969E+02 -0.13948958974E+02  0.24794557428E+02  0.00000000000E+00 0.  1.
          2    1    1    2  501    0 -0.34982695830E+03 -0.55627471800E+01  0.31487907506E+03  0.47070019845E+03  0.00000000000E+00 0. -1.
<scales pt_clust_5="13000.00000" pt_clust_6="13000.00000" pt_clust_7="13000.00000" pt_clust_8="13000.00000" pt_clust_9="255.34990"></scales>
<clustering>
<clus scale="   90.236">  5  6 -1 -1</clus>
<clus scale="   91.819">  7  8 -1 -1</clus>
<clus scale="  205.560">  1  7  2 -1</clus>
<clus scale="  255.350">  2  9  1 -1</clus>
<clus scale="  255.350">  2  5  1 -1</clus>
</clustering>
</event>
<event>
 9    1  0.9171696E-005  0.9310041E+02  0.7546771E-02  0.1304267E+00
          1   -1    0    0  502    0 -0.00000000000E+00  0.00000000000E+00  0.62059013245E+02  0.62059013245E+02  0.00000000000E+00 0. -1.
         21   -1    0    0  501  502  0.00000000000E+00 -0.00000000000E+00 -0.20909960442E+03  0.20909960442E+03  0.00000000000E+00 0. -1.
         23    2    1    2    0    0  0.12731297950E+02  0.73479274014E+01 -0.31795255749E+01  0.93725255069E+02  0.92510734892E+02 0.  0.
        -24    2    1    2    0    0 -0.27423478012E+01  0.11554943727E+02 -0.12866438522E+03  0.15120290784E+03  0.78528708896E+02 0.  0.
         13    1    4    4    0    0 -0.15973993998E+02 -0.12206200541E+02 -0.12139901271E+03  0.12305234700E+03  0.00000000000E+00 0. -1.
        -14    1    4    4    0    0  0.13231646197E+02  0.23761144268E+02 -0.72653725083E+01  0.28150560842E+02  0.00000000000E+00 0.  1.
        -13    1    3    3    0    0 -0.27596820836E+02 -0.20252673427E+02 -0.22730749436E+02  0.41090659171E+02  0.00000000000E+00 0.  1.
         13    1    3    3    0    0  0.40328118785E+02  0.27600600829E+02  0.19551223861E+02  0.52634595898E+02  0.00000000000E+00 0. -1.
          2    1    1    2  501    0 -0.99889501483E+01 -0.18902871129E+02 -0.15196680385E+02  0.26230454756E+02  0.00000000000E+00 0. -1.
<scales pt_clust_5="13000.00000" pt_clust_6="13000.00000" pt_clust_7="13000.00000" pt_clust_8="13000.00000" pt_clust_9="21.37984"></scales>
<clustering>
<clus scale="   21.380">  2  9  1 -1</clus>
<clus scale="   78.529">  5  6 -1 -1</clus>
<clus scale="   79.223">  2  5  1 -1</clus>
<clus scale="   92.511">  7  8 -1 -1</clus>
<clus scale="   21.380">  2  5  1 -1</clus>
</clustering>
</event>
<event>
 9    1  0.9171696E-005  0.1119214E+03  0.7546771E-02  0.1257746E+00
         21   -1    0    0  501  502  0.00000000000E+00  0.00000000000E+00  0.23045620037E+02  0.23045620037E+02  0.00000000000E+00 0.  1.
         -4   -1    0    0    0  501 -0.00000000000E+00 -0.00000000000E+00 -0.10273629592E+04  0.10273629592E+04  0.00000000000E+00 0.  1.
        -24    2    1    2    0    0 -0.27865394906E+02 -0.49961428210E+02 -0.25883466893E+03  0.27740378510E+03  0.81760929565E+02 0.  0.
         23    2    1    2    0    0 -0.15280429319E+02  0.10084926014E+03 -0.40257615603E+03  0.42366826432E+03  0.83804367391E+02 0.  0.
         11    1    3    3    0    0  0.10486024606E+02 -0.51006809554E+02 -0.87471726805E+02  0.10179859686E+03  0.00000000000E+00 0. -1.
        -12    1    3    3    0    0 -0.38351419512E+02  0.10453813443E+01 -0.17136294212E+03  0.17560518823E+03  0.00000000000E+00 0.  1.
        -13    1    4    4    0    0 -0.34069416391E+02  0.21052628515E+02 -0.21882040688E+03  0.22245518373E+03  0.00000000000E+00 0. -1.
         13    1    4    4    0    0  0.18788987072E+02  0.79796631624E+02 -0.18375574915E+03  0.20121308059E+03  0.00000000000E+00 0.  1.
         -3    1    1    2    0  502  0.43145824225E+02 -0.50887831929E+02 -0.34290651416E+03  0.34933652978E+03  0.00000000000E+00 0.  1.
<scales pt_clust_5="13000.00000" pt_clust_6="13000.00000" pt_clust_7="13000.00000" pt_clust_8="13000.00000" pt_clust_9="66.71685"></scales>
<clustering>
<clus scale="   66.717">  1  9  2 -1</clus>
<clus scale="   81.761">  5  6 -1 -1</clus>
<clus scale="   83.804">  7  8 -1 -1</clus>
<clus scale="  110.400">  2  5  1 -1</clus>
<clus scale="   66.717">  1  5  2 -1</clus>
</clustering>
</event>
