<event>
 9    2  0.3764910E-005  0.1133620E+03  0.7546771E-02  0.1259876E+00
         21   -1    0    0  501  502  0.00000000000E+00  0.00000000000E+00  0.14317972912E+03  0.14317972912E+03  0.00000000000E+00 0.  1.
         -3   -1    0    0    0  501 -0.00000000000E+00 -0.00000000000E+00 -0.32719858167E+03  0.32719858167E+03  0.00000000000E+00 0.  1.
         23    2    1    2    0    0 -0.66902658919E+02  0.21183883850E+02 -0.28289894072E+03  0.30558876529E+03  0.91803922077E+02 0.  0.
         24    2    1    2    0    0  0.33401834931E+02  0.75044229059E+00  0.91124719969E+02  0.12400271421E+03  0.77179743467E+02 0.  0.
        -13    1    4    4    0    0  0.56388281220E+02  0.90588875971E+01  0.48769389145E+02  0.75100965513E+02  0.00000000000E+00 0.  1.
         14    1    4    4    0    0 -0.22986446289E+02 -0.83084453065E+01  0.42355330824E+02  0.48901748697E+02  0.00000000000E+00 0. -1.
        -11    1    3    3    0    0 -0.12163365192E+02 -0.33838657778E+02 -0.65051061434E+02  0.74327940956E+02  0.00000000000E+00 0. -1.
         11    1    3    3    0    0 -0.54739293727E+02  0.55022541627E+02 -0.21784787928E+03  0.23126082434E+03  0.00000000000E+00 0.  1.
         -4    1    1    2    0  502  0.33500823988E+02 -0.21934326140E+02  0.77553681981E+01  0.40786831294E+02  0.00000000000E+00 0.  1.
<scales pt_clust_5="13000.00000" pt_clust_6="13000.00000" pt_clust_7="13000.00000" pt_clust_8="13000.00000" pt_clust_9="40.04273"></scales>
<clustering>
<clus scale="   40.043">  1  9  2 -1</clus>
<clus scale="   77.180">  5  6 -1 -1</clus>
<clus scale="   91.804">  7  8 -1 -1</clus>
<clus scale="  101.881">  1  5  2 -1</clus>
<clus scale="   40.043">  1  5  2 -1</clus>
</clustering>
</event>
<event>
 9    2  0.3764910E-005  0.1168434E+03  0.7546771E-02  0.1252973E+00
         -1   -1    0    0    0  501 -0.00000000000E+00  0.00000000000E+00  0.32442445948E+03  0.32442445948E+03  0.00000000000E+00 0.  1.
         21   -1    0    0  501  502  0.00000000000E+00 -0.00000000000E+00 -0.99005423881E+02  0.99005423881E+02  0.00000000000E+00 0. -1.
         23    2    1    2    0    0 -0.45728002660E+02 -0.51751149547E+02  0.23757400115E+03  0.26389642068E+03  0.91818751461E+02 0.  0.
         24    2    1    2    0    0  0.81929842215E+02  0.42477844891E+02 -0.34586962798E+01  0.12116430233E+03  0.78434426294E+02 0.  0.
        -13    1    4    4    0    0  0.31272267699E+02  0.54172947851E+02  0.17740425853E+02  0.65018349067E+02  0.00000000000E+00 0.  1.
         14    1    4    4    0    0  0.50657574516E+02 -0.11695102960E+02 -0.21199122133E+02  0.56145953267E+02  0.00000000000E+00 0. -1.
        -11    1    3    3    0    0 -0.33467443836E+02 -0.75081633045E+02  0.21109821929E+03  0.22653869340E+03  0.00000000000E+00 0.  1.
         11    1    3    3    0    0 -0.12260558824E+02  0.23330483498E+02  0.26475781855E+02  0.37357727283E+02  0.00000000000E+00 0. -1.
         -2    1    1    2    0  502 -0.36201839555E+02  0.92733046557E+01 -0.86962692700E+01  0.38369160346E+02  0.00000000000E+00 0.  1.
<scales pt_clust_5="13000.00000" pt_clust_6="13000.00000" pt_clust_7="13000.00000" pt_clust_8="13000.00000" pt_clust_9="37.37068"></scales>
<clustering>
<clus scale="   37.371">  2  9  1 -1</clus>
<clus scale="   78.434">  5  6 -1 -1</clus>
<clus scale="   91.819">  7  8 -1 -1</clus>
<clus scale="  106.647">  2  5  1 -1</clus>
<clus scale="   37.371">  2  5  1 -1</clus>
</clustering>
</event>
<event>
 9    2  0.3764910E-005  0.1027525E+03  0.7546771E-02  0.1280531E+00
          2   -1    0    0  502    0 -0.00000000000E+00  0.00000000000E+00  0.17721191021E+03  0.17721191021E+03  0.00000000000E+00 0. -1.
         21   -1    0    0  501  502  0.00000000000E+00 -0.00000000000E+00 -0.23016393538E+03  0.23016393538E+03  0.00000000000E+00 0. -1.
         23    2    1    2    0    0  0.39620955321E+02 -0.28629918260E+02  0.10860534619E+03  0.15154860017E+03  0.93714271438E+02 0.  0.
         24    2    1    2    0    0 -0.18208346695E+02  0.24322039418E+02  0.56689557123E+01  0.87180567142E+02  0.81518149743E+02 0.  0.
        -13    1    4    4    0    0 -0.45236584414E+02 -0.93294450173E-01 -0.11850547086E+02  0.46763155791E+02  0.00000000000E+00 0.  1.
         14    1    4    4    0    0  0.27028237718E+02  0.24415333869E+02  0.17519502798E+02  0.40417411352E+02  0.00000000000E+00 0. -1.
        -13    1    3    3    0    0  0.68081506737E+02 -0.24679926675E+02  0.55759761322E+02  0.91396615490E+02  0.00000000000E+00 0. -1.
         13    1    3    3    0    0 -0.28460551416E+02 -0.39499915853E+01  0.52845584869E+02  0.60151984677E+02  0.00000000000E+00 0.  1.
          1    1    1    2  501    0 -0.21412608626E+02  0.43078788417E+01 -0.16722632708E+03  0.16864667828E+03  0.00000000000E+00 0. -1.
<scales pt_clust_5="13000.00000" pt_clust_6="13000.00000" pt_clust_7="13000.00000" pt_clust_8="13000.00000" pt_clust_9="21.84165"></scales>
<clustering>
<clus scale="   21.842">  2  9  1 -1</clus>
<clus scale="   81.518">  5  6 -1 -1</clus>
<clus scale="   91.766">  2  5  1 -1</clus>
<clus scale="   93.714">  7  8 -1 -1</clus>
<clus scale="   21.842">  2  5  1 -1</clus>
</clustering>
</event>
<event>
 9    2  0.3764910E-005  0.1228439E+03  0.7546771E-02  0.1247506E+00
         21   -1    0    0  501  502  0.00000000000E+00  0.00000000000E+00  0.10636295293E+03  0.10636295293E+03  0.00000000000E+00 0. -1.
         -3   -1    0    0    0  501 -0.00000000000E+00 -0.00000000000E+00 -0.45482125243E+03  0.45482125243E+03  0.00000000000E+00 0.  1.
         23    2    1    2    0    0 -0.21030712068E+02  0.37536178580E+02 -0.32037714725E+03  0.33633048720E+03  0.92873164009E+02 0.  0.
         24    2    1    2    0    0  0.48629569180E+02  0.65646995964E+02 -0.43956362213E+01  0.11544865386E+03  0.81453710677E+02 0.  0.
        -13    1    4    4    0    0 -0.19059811520E+02  0.21778420839E+02 -0.17365219257E+02  0.33750953606E+02  0.00000000000E+00 0.  1.
         14    1    4    4    0    0  0.67689380701E+02  0.43868575124E+02  0.12969583036E+02  0.81697700257E+02  0.00000000000E+00 0. -1.
        -11    1    3    3    0    0  0.43072090762E+01  0.62435659586E+02 -0.15454689878E+03  0.16673784082E+03  0.00000000000E+00 0. -1.
         11    1    3    3    0    0 -0.25337921144E+02 -0.24899481006E+02 -0.16583024846E+03  0.16959264638E+03  0.00000000000E+00 0.  1.
         -4    1    1    2    0  502 -0.27598857112E+02 -0.10318317454E+03 -0.23685516032E+02  0.10940506429E+03  0.00000000000E+00 0.  1.
<scales pt_clust_5="13000.00000" pt_clust_6="13000.00000" pt_clust_7="13000.00000" pt_clust_8="13000.00000" pt_clust_9="91.95605"></scales>
<clustering>
<clus scale="   81.454">  5  6 -1 -1</clus>
<clus scale="   92.873">  7  8 -1 -1</clus>
<clus scale="  102.356">  2  7  1 -1</clus>
<clus scale="   91.956">  1  9  2 -1</clus>
<clus scale="   91.956">  1  5  2 -1</clus>
</clustering>
</event>
<event>
 9    2  0.3764910E-005  0.1166084E+03  0.7546771E-02  0.1252727E+00
         21   -1    0    0  501  502  0.00000000000E+00  0.00000000000E+00  0.28260583076E+03  0.28260583076E+03  0.00000000000E+00 0.  1.
         -3   -1    0    0    0  501 -0.00000000000E+00 -0.00000000000E+00 -0.75008437775E+02  0.75008437775E+02  0.00000000000E+00 0.  1.
         23    2    1    2    0    0 -0.64852530249E+02  0.29415033603E+02  0.18944671704E+02  0.11729948866E+03  0.91264311603E+02 0.  0.
         24    2    1    2    0    0  0.77740850474E+02 -0.68489323406E+01  0.10683382151E+03  0.15446799727E+03  0.79726714809E+02 0.  0.
        -11    1    4    4    0    0  0.41545334374E+02  0.10185359945E+02  0.26380959462E+01  0.42856923778E+02  0.00000000000E+00 0.  1.
         12    1    4    4    0    0  0.36195516100E+02 -0.17034292285E+02  0.10419572556E+03  0.11161107349E+03  0.00000000000E+00 0. -1.
        -11    1    3    3    0    0 -0.27891241161E+02  0.14120219962E+02 -0.37054995000E+02  0.48480662121E+02  0.00000000000E+00 0. -1.
         11    1    3    3    0    0 -0.36961289088E+02  0.15294813641E+02  0.55999666703E+02  0.68818826539E+02  0.00000000000E+00 0.  1.
         -4    1    1    2    0  502 -0.12888320225E+02 -0.22566101262E+02  0.81818899770E+02  0.85846782607E+02  0.00000000000E+00 0.  1.
<scales pt_clust_5="13000.00000" pt_clust_6="13000.00000" pt_clust_7="13000.00000" pt_clust_8="13000.00000" pt_clust_9="25.98726"></scales>
<clustering>
<clus scale="   25.987">  1  9  2 -1</clus>
<clus scale="   79.727">  5  6 -1 -1</clus>
<clus scale="   91.264">  7  8 -1 -1</clus>
<clus scale="  107.818">  1  5  2 -1</clus>
<clus scale="   25.987">  1  5  2 -1</clus>
</clustering>
</event>
<event>
 9    2  0.3764910E-005  0.1035837E+03  0.7546771E-02  0.1277486E+00
         -3   -1    0    0    0  501 -0.00000000000E+00  0.00000000000E+00  0.10985229883E+03  0.10985229883E+03  0.00000000000E+00 0.  1.
         21   -1    0    0  501  502  0.00000000000E+00 -0.00000000000E+00 -0.51259236232E+03  0.51259236232E+03  0.00000000000E+00 0.  1.
         23    2    1    2    0    0 -0.48833953197E+02 -0.33679610374E+01  0.74282421498E+02  0.12700378181E+03  0.90642066960E+02 0.  0.
         24    2    1    2    0    0  0.65179467622E+02  0.24815424557E+02 -0.36736309567E+03  0.38251457063E+03  0.80607595114E+02 0.  0.
        -11    1    4    4    0    0  0.71952831469E+02  0.17957179293E+02 -0.17700505612E+03  0.19191263673E+03  0.00000000000E+00 0.  1.
         12    1    4    4    0    0 -0.67733638467E+01  0.68582452639E+01 -0.19035803955E+03  0.19060193390E+03  0.00000000000E+00 0. -1.
        -11    1    3    3    0    0  0.24747997255E+02  0.12335536465E+02  0.17241466711E+02  0.32586761151E+02  0.00000000000E+00 0. -1.
         11    1    3    3    0    0 -0.73581950452E+02 -0.15703497502E+02  0.57040954787E+02  0.94417020654E+02  0.00000000000E+00 0.  1.
         -4    1    1    2    0  502 -0.16345514425E+02 -0.21447463520E+02 -0.10965938932E+03  0.11292630871E+03  0.00000000000E+00 0.  1.
<scales pt_clust_5="13000.00000" pt_clust_6="13000.00000" pt_clust_7="13000.00000" pt_clust_8="13000.00000" pt_clust_9="26.96608"></scales>
<clustering>
<clus scale="   26.966">  2  9  1 -1</clus>
<clus scale="   80.608">  5  6 -1 -1</clus>
<clus scale="   90.642">  7  8 -1 -1</clus>
<clus scale="   94.927">  2  5  1 -1</clus>
<clus scale="   26.966">  2  5  1 -1</clus>
</clustering>
</event>
<event>
 9    2  0.3764910E-005  0.1202789E+03  0.7546771E-02  0.1259502E+00
         21   -1    0    0  501  502  0.00000000000E+00  0.00000000000E+00  0.72224333412E+03  0.72224333412E+03  0.00000000000E+00 0. -1.
         -1   -1    0    0    0  501 -0.00000000000E+00 -0.00000000000E+00 -0.39685737872E+02  0.39685737872E+02  0.00000000000E+00 0.  1.
         24    2    1    2    0    0  0.25656655123E+02  0.12264300012E+02  0.71135266117E+02  0.11154909037E+03  0.81082035437E+02 0.  0.
         23    2    1    2    0    0  0.11544697056E+02  0.69237103464E+02  0.45987400513E+03  0.47433080047E+03  0.92620468326E+02 0.  0.
        -13    1    3    3    0    0  0.54023506455E+02  0.30850218571E+01  0.33922310662E+02  0.63865325258E+02  0.00000000000E+00 0.  1.
         14    1    3    3    0    0 -0.28366851332E+02  0.91792781551E+01  0.37212955454E+02  0.47683765115E+02  0.00000000000E+00 0. -1.
        -11    1    4    4    0    0 -0.35448755106E+02  0.50366541805E+01  0.11751278414E+03  0.12284639417E+03  0.00000000000E+00 0.  1.
         11    1    4    4    0    0  0.46993452162E+02  0.64200449284E+02  0.34236122098E+03  0.35148440629E+03  0.00000000000E+00 0. -1.
         -2    1    1    2    0  502 -0.37201352179E+02 -0.81501403477E+02  0.15154832500E+03  0.17604918115E+03  0.00000000000E+00 0.  1.
<scales pt_clust_5="13000.00000" pt_clust_6="13000.00000" pt_clust_7="13000.00000" pt_clust_8="13000.00000" pt_clust_9="76.73639"></scales>
<clustering>
<clus scale="   81.082">  5  6 -1 -1</clus>
<clus scale="   85.924">  2  5  1 -1</clus>
<clus scale="   76.736">  1  9  2 -1</clus>
<clus scale="   92.620">  7  8 -1 -1</clus>
<clus scale="   76.736">  1  5  2 -1</clus>
</clustering>
</event>
<event>
 9    2  0.3764910E-005  0.1679197E+03  0.7546771E-02  0.1204478E+00
         -1   -1    0    0    0  501 -0.00000000000E+00  0.00000000000E+00  0.15551424868E+03  0.15551424868E+03  0.00000000000E+00 0.  1.
         21   -1    0    0  501  502  0.00000000000E+00 -0.00000000000E+00 -0.58483579108E+03  0.58483579108E+03  0.00000000000E+00 0.  1.
         23    2    1    2    0    0  0.33949417464E+02  0.99634408999E+01  0.86604109528E+02  0.13081898518E+03  0.91441248879E+02 0.  0.
         24    2    1    2    0    0  0.12001845112E+03 -0.35729258701E+02 -0.15542477827E+03  0.21668138633E+03  0.84338324304E+02 0.  0.
        -13    1    4    4    0    0  0.12742755225E+03 -0.48098656698E+02 -0.14464007467E+03  0.19867564786E+03  0.00000000000E+00 0.  1.
         14    1    4    4    0    0 -0.74091011345E+01  0.12369397996E+02 -0.10784703595E+02  0.18005738475E+02  0.00000000000E+00 0. -1.
        -13    1    3    3    0    0  0.32798496648E+02 -0.28980553294E+02  0.80157582719E+02  0.91328264623E+02  0.00000000000E+00 0.  1.
         13    1    3    3    0    0  0.11509208167E+01  0.38943994194E+02  0.64465268090E+01  0.39490720561E+02  0.00000000000E+00 0. -1.
         -2    1    1    2    0  502 -0.15396786858E+03  0.25765817801E+02 -0.36050087367E+03  0.39284966824E+03  0.00000000000E+00 0.  1.
<scales pt_clust_5="13000.00000" pt_clust_6="13000.00000" pt_clust_7="13000.00000" pt_clust_8="13000.00000" pt_clust_9="145.20357"></scales>
<clustering>
<clus scale="   84.338">  5  6 -1 -1</clus>
<clus scale="   91.441">  7  8 -1 -1</clus>
<clus scale="   98.048">  1  7  2 -1</clus>
<clus scale="  145.204">  2  9  1 -1</clus>
<clus scale="  145.204">  2  5  1 -1</clus>
</clustering>
</event>
<event>
 9    2  0.3764910E-005  0.9468508E+02  0.7546771E-02  0.1295919E+00
          2   -1    0    0  502    0 -0.00000000000E+00  0.00000000000E+00  0.99618721175E+03  0.99618721175E+03  0.00000000000E+00 0. -1.
         21   -1    0    0  501  502  0.00000000000E+00 -0.00000000000E+00 -0.22138333307E+02  0.22138333307E+02  0.00000000000E+00 0. -1.
         24    2    1    2    0    0  0.58310708646E+02 -0.13129729557E+02  0.59480181894E+03  0.60317613384E+03  0.80372358898E+02 0.  0.
         23    2    1    2    0    0  0.15212153125E+02  0.15957986713E+02  0.25688397660E+03  0.27236869018E+03  0.87802386168E+02 0.  0.
        -11    1    3    3    0    0  0.13917976907E+02 -0.17039731596E+02  0.33319651262E+02  0.39928206750E+02  0.00000000000E+00 0.  1.
         12    1    3    3    0    0  0.44392731740E+02  0.39100020389E+01  0.56148216768E+03  0.56324792709E+03  0.00000000000E+00 0. -1.
        -13    1    4    4    0    0  0.34912776616E+02 -0.18249260614E+02  0.19519632546E+03  0.19913197372E+03  0.00000000000E+00 0. -1.
         13    1    4    4    0    0 -0.19700623491E+02  0.34207247327E+02  0.61687651138E+02  0.73236716465E+02  0.00000000000E+00 0.  1.
          1    1    1    2  501    0 -0.73522861771E+02 -0.28282571558E+01  0.12236308290E+03  0.14278072104E+03  0.00000000000E+00 0. -1.
<scales pt_clust_5="13000.00000" pt_clust_6="13000.00000" pt_clust_7="13000.00000" pt_clust_8="13000.00000" pt_clust_9="73.57724"></scales>
<clustering>
<clus scale="   73.577">  2  9  1 -1</clus>
<clus scale="   80.372">  5  6 -1 -1</clus>
<clus scale="   87.802">  7  8 -1 -1</clus>
<clus scale="   87.839">  1  5  2 -1</clus>
<clus scale="   73.577">  2  5  1 -1</clus>
</clustering>
</event>
<event>
 9    2  0.3764910E-005  0.2113813E+03  0.7546771E-02  0.1141216E+00
          2   -1    0    0  502    0 -0.00000000000E+00  0.00000000000E+00  0.23976485806E+04  0.23976485806E+04  0.00000000000E+00 0. -1.
         21   -1    0    0  501  502  0.00000000000E+00 -0.00000000000E+00 -0.46397670248E+02  0.46397670248E+02  0.00000000000E+00 0. -1.
         24    2    1    2    0    0 -0.19640371186E+03 -0.81592203227E+02  0.17641866293E+04  0.17788119952E+04  0.81153837591E+02 0.  0.
         23    2    1    2    0    0  0.15435651644E+03  0.10452680271E+02  0.54258867663E+03  0.57138928912E+03  0.90266577515E+02 0.  0.
        -13    1    3    3    0    0 -0.21407749316E+02  0.15164238227E+02  0.14866308507E+03  0.15096012293E+03  0.00000000000E+00 0.  1.
         14    1    3    3    0    0 -0.17499596254E+03 -0.96756441454E+02  0.16155235443E+04  0.16278518722E+04  0.00000000000E+00 0. -1.
        -11    1    4    4    0    0  0.11919831357E+03  0.29959086736E+02  0.49007044627E+03  0.50524729306E+03  0.00000000000E+00 0.  1.
         11    1    4    4    0    0  0.35158202870E+02 -0.19506406464E+02  0.52518230360E+02  0.66141996057E+02  0.00000000000E+00 0. -1.
          1    1    1    2  501    0  0.42047195419E+02  0.71139522955E+02  0.44475604429E+02  0.93844966611E+02  0.00000000000E+00 0. -1.
<scales pt_clust_5="13000.00000" pt_clust_6="13000.00000" pt_clust_7="13000.00000" pt_clust_8="13000.00000" pt_clust_9="82.63654"></scales>
<clustering>
<clus scale="   81.154">  5  6 -1 -1</clus>
<clus scale="   82.637">  2  9  1 -1</clus>
<clus scale="   90.267">  7  8 -1 -1</clus>
<clus scale="  207.653">  1  5  2 -1</clus>
<clus scale="   82.637">  2  5  1 -1</clus>
</clustering>
</event>
<event>
 9    2  0.3764910E-005  0.9948119E+02  0.7546771E-02  0.1286483E+00
          2   -1    0    0  502    0 -0.00000000000E+00  0.00000000000E+00  0.88673518879E+03  0.88673518879E+03  0.00000000000E+00 0. -1.
         21   -1    0    0  501  502  0.00000000000E+00 -0.00000000000E+00 -0.23229395436E+02  0.23229395436E+02  0.00000000000E+00 0. -1.
         24    2    1    2    0    0 -0.51066281297E+01 -0.32144216321E+02  0.27205651893E+03  0.28553970649E+03  0.80366947146E+02 0.  0.
         23    2    1    2    0    0 -0.72330554715E+02  0.35434521198E+02  0.32164069050E+03  0.34370434883E+03  0.90513154742E+02 0.  0.
        -13    1    3    3    0    0 -0.54352601500E+01 -0.46029849179E+02  0.76185909962E+02  0.89177250154E+02  0.00000000000E+00 0.  1.
         14    1    3    3    0    0  0.32863202029E+00  0.13885632858E+02  0.19587060897E+03  0.19636245633E+03  0.00000000000E+00 0. -1.
        -11    1    4    4    0    0 -0.52230863647E+02 -0.22748947878E+02  0.19047327857E+03  0.19881058221E+03  0.00000000000E+00 0. -1.
         11    1    4    4    0    0 -0.20099691068E+02  0.58183469076E+02  0.13116741192E+03  0.14489376662E+03  0.00000000000E+00 0.  1.
          1    1    1    2  501    0  0.77437182844E+02 -0.32903048765E+01  0.26980858393E+03  0.28072052892E+03  0.00000000000E+00 0. -1.
<scales pt_clust_5="13000.00000" pt_clust_6="13000.00000" pt_clust_7="13000.00000" pt_clust_8="13000.00000" pt_clust_9="77.50709"></scales>
<clustering>
<clus scale="   77.507">  2  9  1 -1</clus>
<clus scale="   80.367">  5  6 -1 -1</clus>
<clus scale="   90.348">  1  5  2 -1</clus>
<clus scale="   90.513">  7  8 -1 -1</clus>
<clus scale="   77.507">  2  5  1 -1</clus>
</clustering>
</event>
<event>
 9    2  0.3764910E-005  0.9370366E+02  0.7546771E-02  0.1299357E+00
          2   -1    0    0  502    0 -0.00000000000E+00  0.00000000000E+00  0.11412605386E+04  0.11412605386E+04  0.00000000000E+00 0. -1.
         21   -1    0    0  501  502  0.00000000000E+00 -0.00000000000E+00 -0.32763461707E+02  0.32763461707E+02  0.00000000000E+00 0. -1.
         24    2    1    2    0    0  0.26494137002E+02  0.97668982908E+01  0.37903003062E+03  0.38848508113E+03  0.80371403799E+02 0.  0.
         23    2    1    2    0    0  0.21002523690E+02 -0.76500280350E+02  0.11592291827E+03  0.16655129890E+03  0.89486386054E+02 0.  0.
        -13    1    3    3    0    0  0.46275339986E+02  0.24989689098E+02  0.16944634715E+03  0.17742028129E+03  0.00000000000E+00 0.  1.
         14    1    3    3    0    0 -0.19781202983E+02 -0.15222790808E+02  0.20958368348E+03  0.21106479984E+03  0.00000000000E+00 0. -1.
        -11    1    4    4    0    0  0.99741553189E+01  0.17879226044E+02  0.39955578237E+02  0.44895419928E+02  0.00000000000E+00 0.  1.
         11    1    4    4    0    0  0.11028368371E+02 -0.94379506394E+02  0.75967340037E+02  0.12165587897E+03  0.00000000000E+00 0. -1.
          1    1    1    2  501    0 -0.47496660692E+02  0.66733382060E+02  0.61354412801E+03  0.61898762029E+03  0.00000000000E+00 0. -1.
<scales pt_clust_5="13000.00000" pt_clust_6="13000.00000" pt_clust_7="13000.00000" pt_clust_8="13000.00000" pt_clust_9="81.91022"></scales>
<clustering>
<clus scale="   80.371">  5  6 -1 -1</clus>
<clus scale="   81.910">  2  9  1 -1</clus>
<clus scale="   85.042">  1  5  2 -1</clus>
<clus scale="   89.486">  7  8 -1 -1</clus>
<clus scale="   81.910">  2  5  1 -1</clus>
</clustering>
</event>
<event>
 9    2  0.3764910E-005  0.1626103E+03  0.7546771E-02  0.1186987E+00
         21   -1    0    0  501  502  0.00000000000E+00  0.00000000000E+00  0.16324608216E+03  0.16324608216E+03  0.00000000000E+00 0.  1.
         -1   -1    0    0    0  501 -0.00000000000E+00 -0.00000000000E+00 -0.28336606310E+03  0.28336606310E+03  0.00000000000E+00 0.  1.
         24    2    1    2    0    0  0.63488224217E+01 -0.14656579377E+03 -0.18064773217E+03  0.24667787128E+03  0.81820105068E+02 0.  0.
         23    2    1    2    0    0 -0.28834520242E+02  0.99692424993E+02  0.54094967725E+02  0.14755011596E+03  0.89859679665E+02 0.  0.
        -11    1    3    3    0    0 -0.25632462989E+02 -0.12133135563E+03 -0.15514418204E+03  0.19861530213E+03  0.00000000000E+00 0.  1.
         12    1    3    3    0    0  0.31981285410E+02 -0.25234438146E+02 -0.25503550126E+02  0.48062569158E+02  0.00000000000E+00 0. -1.
        -13    1    4    4    0    0  0.48000237651E+00  0.74651651653E+02 -0.73470927071E+01  0.75013860506E+02  0.00000000000E+00 0. -1.
         13    1    4    4    0    0 -0.29314522618E+02  0.25040773340E+02  0.61442060432E+02  0.72536255458E+02  0.00000000000E+00 0.  1.
         -2    1    1    2    0  502  0.22485697820E+02  0.46873368782E+02  0.64327834983E+01  0.52384158015E+02  0.00000000000E+00 0.  1.
<scales pt_clust_5="13000.00000" pt_clust_6="13000.00000" pt_clust_7="13000.00000" pt_clust_8="13000.00000" pt_clust_9="51.98768"></scales>
<clustering>
<clus scale="   51.988">  1  9  2 -1</clus>
<clus scale="   81.820">  5  6 -1 -1</clus>
<clus scale="   89.860">  7  8 -1 -1</clus>
<clus scale="  158.309">  2  5  1 -1</clus>
<clus scale="   51.988">  1  5  2 -1</clus>
</clustering>
</event>
<event>
 9    2  0.3764910E-005  0.1587483E+03  0.7546771E-02  0.1192704E+00
         21   -1    0    0  501  502  0.00000000000E+00  0.00000000000E+00  0.13533242800E+03  0.13533242800E+03  0.00000000000E+00 0. -1.
          2   -1    0    0  502    0 -0.00000000000E+00 -0.00000000000E+00 -0.58222682275E+03  0.58222682275E+03  0.00000000000E+00 0. -1.
         23    2    1    2    0    0  0.90820966395E+02 -0.92646459200E+02 -0.48488649244E+03  0.51115312565E+03  0.96596029777E+02 0.  0.
         24    2    1    2    0    0 -0.53785889889E+02  0.98289969739E+02 -0.17395555391E+02  0.13953880711E+03  0.81330395546E+02 0.  0.
        -11    1    4    4    0    0 -0.55995863653E+02  0.11164924461E+03 -0.16049279615E+02  0.12593121116E+03  0.00000000000E+00 0.  1.
         12    1    4    4    0    0  0.22099737632E+01 -0.13359274870E+02 -0.13462757755E+01  0.13607595950E+02  0.00000000000E+00 0. -1.
        -13    1    3    3    0    0  0.65746603757E+02 -0.44188987403E+02 -0.41499002517E+03  0.42248313991E+03  0.00000000000E+00 0. -1.
         13    1    3    3    0    0  0.25074362638E+02 -0.48457471797E+02 -0.69896467269E+02  0.88669985741E+02  0.00000000000E+00 0.  1.
          1    1    1    2  501    0 -0.37035076505E+02 -0.56435105386E+01  0.55387653079E+02  0.66867318000E+02  0.00000000000E+00 0. -1.
<scales pt_clust_5="13000.00000" pt_clust_6="13000.00000" pt_clust_7="13000.00000" pt_clust_8="13000.00000" pt_clust_9="37.46260"></scales>
<clustering>
<clus scale="   37.463">  1  9  2 -1</clus>
<clus scale="   81.330">  5  6 -1 -1</clus>
<clus scale="   96.596">  7  8 -1 -1</clus>
<clus scale="  149.950">  1  5  2 -1</clus>
<clus scale="   37.463">  1  5  2 -1</clus>
</clustering>
</event>
<event>
 9    2  0.3764910E-005  0.1822121E+03  0.7546771E-02  0.1184445E+00
          2   -1    0    0  502    0 -0.00000000000E+00  0.00000000000E+00  0.45346182380E+03  0.45346182380E+03  0.00000000000E+00 0. -1.
         21   -1    0    0  501  502  0.00000000000E+00 -0.00000000000E+00 -0.12550454441E+03  0.12550454441E+03  0.00000000000E+00 0. -1.
         24    2    1    2    0    0 -0.77712378920E+02  0.37336581595E+02  0.80162108739E+02  0.14353596873E+03  0.82118064268E+02 0.  0.
         23    2    1    2    0    0  0.58318459771E+02 -0.17585663913E+03  0.85958211938E+02  0.22152590760E+03  0.85780611227E+02 0.  0.
        -13    1    3    3    0    0 -0.39111553117E+02 -0.23318616737E+02  0.42883577360E+02  0.62549761638E+02  0.00000000000E+00 0.  1.
         14    1    3    3    0    0 -0.38600825804E+02  0.60655198332E+02  0.37278531379E+02  0.80986207092E+02  0.00000000000E+00 0. -1.
        -13    1    4    4    0    0  0.60807237167E+02 -0.58143753122E+02  0.19640358088E+02  0.86394211524E+02  0.00000000000E+00 0. -1.
         13    1    4    4    0    0 -0.24887773959E+01 -0.11771288601E+03  0.66317853850E+02  0.13513169608E+03  0.00000000000E+00 0.  1.
          1    1    1    2  501    0  0.19393919149E+02  0.13852005754E+03  0.16183695871E+03  0.21390449188E+03  0.00000000000E+00 0. -1.
<scales pt_clust_5="13000.00000" pt_clust_6="13000.00000" pt_clust_7="13000.00000" pt_clust_8="13000.00000" pt_clust_9="160.75745"></scales>
<clustering>
<clus scale="   82.118">  5  6 -1 -1</clus>
<clus scale="   85.781">  7  8 -1 -1</clus>
<clus scale="  119.066">  1  5  2 -1</clus>
<clus scale="  160.757">  2  9  1 -1</clus>
<clus scale="  160.757">  2  5  1 -1</clus>
</clustering>
</event>
<event>
 9    2  0.3764910E-005  0.2245444E+03  0.7546771E-02  0.1131435E+00
         21   -1    0    0  501  502  0.00000000000E+00  0.00000000000E+00  0.45049185761E+02  0.45049185761E+02  0.00000000000E+00 0. -1.
          2   -1    0    0  502    0 -0.00000000000E+00 -0.00000000000E+00 -0.15425205830E+04  0.15425205830E+04  0.00000000000E+00 0. -1.
         24    2    1    2    0    0 -0.17461192648E+03 -0.11587420768E+03 -0.11126399895E+04  0.11370171645E+04  0.10451855946E+03 0.  0.
         23    2    1    2    0    0  0.14046147620E+03  0.10335104323E+03 -0.32743126872E+03  0.38259777469E+03  0.93589299740E+02 0.  0.
        -11    1    3    3    0    0 -0.17388824299E+02  0.13237796088E+02 -0.43366872426E+02  0.48562290718E+02  0.00000000000E+00 0.  1.
         12    1    3    3    0    0 -0.15722310218E+03 -0.12911200377E+03 -0.10692731171E+04  0.10884548738E+04  0.00000000000E+00 0. -1.
        -11    1    4    4    0    0  0.11426251428E+03  0.54075084308E+02 -0.28723323381E+03  0.31381996035E+03  0.00000000000E+00 0.  1.
         11    1    4    4    0    0  0.26198961916E+02  0.49275958926E+02 -0.40198034914E+02  0.68777814334E+02  0.00000000000E+00 0. -1.
          1    1    1    2  501    0  0.34150450282E+02  0.12523164444E+02 -0.57400139007E+02  0.67954829557E+02  0.00000000000E+00 0. -1.
<scales pt_clust_5="13000.00000" pt_clust_6="13000.00000" pt_clust_7="13000.00000" pt_clust_8="13000.00000" pt_clust_9="36.37421"></scales>
<clustering>
<clus scale="   36.374">  1  9  2 -1</clus>
<clus scale="   93.589">  7  8 -1 -1</clus>
<clus scale="  104.519">  5  6 -1 -1</clus>
<clus scale="  219.670">  1  7  2 -1</clus>
<clus scale="   36.374">  1  5  2 -1</clus>
</clustering>
</event>
<event>
 9    2  0.3764910E-005  0.1029872E+03  0.7546771E-02  0.1280995E+00
          2   -1    0    0  502    0 -0.00000000000E+00  0.00000000000E+00  0.97578992318E+02  0.97578992318E+02  0.00000000000E+00 0. -1.
         21   -1    0    0  501  502  0.00000000000E+00 -0.00000000000E+00 -0.23939662357E+03  0.23939662357E+03  0.00000000000E+00 0. -1.
         24    2    1    2    0    0 -0.76379561950E+01  0.44489893339E+02  0.54434630096E+02  0.10676249417E+03  0.79983824759E+02 0.  0.
         23    2    1    2    0    0  0.31682581480E+01 -0.22596219937E+02 -0.14523690633E+03  0.17451861945E+03  0.94033837306E+02 0.  0.
        -13    1    3    3    0    0  0.31086501778E+02  0.77832202159E+01  0.22439771672E+01  0.32124516233E+02  0.00000000000E+00 0.  1.
         14    1    3    3    0    0 -0.38724457973E+02  0.36706673124E+02  0.52190652929E+02  0.74637977935E+02  0.00000000000E+00 0. -1.
        -11    1    4    4    0    0  0.46494873324E+02  0.17434207844E+01 -0.61055363520E+02  0.76763078209E+02  0.00000000000E+00 0. -1.
         11    1    4    4    0    0 -0.43326615176E+02 -0.24339640721E+02 -0.84181542811E+02  0.97755541240E+02  0.00000000000E+00 0.  1.
          1    1    1    2  501    0  0.44696980470E+01 -0.21893673403E+02 -0.51015355014E+02  0.55694502268E+02  0.00000000000E+00 0. -1.
<scales pt_clust_5="13000.00000" pt_clust_6="13000.00000" pt_clust_7="13000.00000" pt_clust_8="13000.00000" pt_clust_9="22.34527"></scales>
<clustering>
<clus scale="   22.345">  2  9  1 -1</clus>
<clus scale="   79.984">  5  6 -1 -1</clus>
<clus scale="   90.340">  1  5  2 -1</clus>
<clus scale="   94.034">  7  8 -1 -1</clus>
<clus scale="   22.345">  2  5  1 -1</clus>
</clustering>
</event>
<event>
 9    2  0.3764910E-005  0.1006510E+03  0.7546771E-02  0.1283432E+00
         21   -1    0    0  501  502  0.00000000000E+00  0.00000000000E+00  0.12147212591E+03  0.12147212591E+03  0.00000000000E+00 0. -1.
          4   -1    0    0  502    0 -0.00000000000E+00 -0.00000000000E+00 -0.27897126841E+03  0.27897126841E+03  0.00000000000E+00 0. -1.
         24    2    1    2    0    0  0.13644114086E+02  0.50356959281E+02 -0.20020670247E+03  0.22153529519E+03  0.79203397028E+02 0.  0.
         23    2    1    2    0    0 -0.26421061154E+02 -0.25645489802E+02 -0.30372477190E+02  0.10071219814E+03  0.88683120509E+02 0.  0.
        -11    1    3    3    0    0  0.12369063442E+02 -0.20039968580E+02 -0.64228947144E+02  0.68410172653E+02  0.00000000000E+00 0.  1.
         12    1    3    3    0    0  0.12750506439E+01  0.70396927862E+02 -0.13597775533E+03  0.15312512253E+03  0.00000000000E+00 0. -1.
        -13    1    4    4    0    0 -0.20626672864E+02 -0.54664582295E+02 -0.16713491897E+00  0.58426912677E+02  0.00000000000E+00 0.  1.
         13    1    4    4    0    0 -0.57943882899E+01  0.29019092492E+02 -0.30205342271E+02  0.42285285460E+02  0.00000000000E+00 0. -1.
          3    1    1    2  501    0  0.12776947068E+02 -0.24711469479E+02  0.73080037162E+02  0.78195900991E+02  0.00000000000E+00 0. -1.
<scales pt_clust_5="13000.00000" pt_clust_6="13000.00000" pt_clust_7="13000.00000" pt_clust_8="13000.00000" pt_clust_9="27.81919"></scales>
<clustering>
<clus scale="   27.819">  1  9  2 -1</clus>
<clus scale="   79.203">  5  6 -1 -1</clus>
<clus scale="   88.683">  7  8 -1 -1</clus>
<clus scale="   92.407">  2  5  1 -1</clus>
<clus scale="   27.819">  1  5  2 -1</clus>
</clustering>
</event>
<event>
 9    2  0.3764910E-005  0.2104202E+03  0.7546771E-02  0.1141796E+00
         21   -1    0    0  501  502  0.00000000000E+00  0.00000000000E+00  0.22173648707E+03  0.22173648707E+03  0.00000000000E+00 0.  1.
         -1   -1    0    0    0  501 -0.00000000000E+00 -0.00000000000E+00 -0.41320034555E+03  0.41320034555E+03  0.00000000000E+00 0.  1.
         23    2    1    2    0    0  0.11417893072E+03 -0.14774624145E+03 -0.17414772547E+03  0.26992827584E+03  0.87567481014E+02 0.  0.
         24    2    1    2    0    0 -0.15866438779E+03  0.13859039866E+03  0.94333840546E+02  0.24447432121E+03  0.80542744588E+02 0.  0.
        -13    1    4    4    0    0 -0.16733010078E+03  0.12973960108E+03  0.82189446324E+02  0.22712734710E+03  0.00000000000E+00 0.  1.
         14    1    4    4    0    0  0.86657129954E+01  0.88507975816E+01  0.12144394222E+02  0.17346974104E+02  0.00000000000E+00 0. -1.
        -11    1    3    3    0    0  0.92976438359E+02 -0.60721832022E+02 -0.64775941469E+02  0.12856003099E+03  0.00000000000E+00 0. -1.
         11    1    3    3    0    0  0.21202492359E+02 -0.87024409426E+02 -0.10937178400E+03  0.14136824486E+03  0.00000000000E+00 0.  1.
         -2    1    1    2    0  502  0.44485457068E+02  0.91558427911E+01 -0.11164997356E+03  0.12053423557E+03  0.00000000000E+00 0.  1.
<scales pt_clust_5="13000.00000" pt_clust_6="13000.00000" pt_clust_7="13000.00000" pt_clust_8="13000.00000" pt_clust_9="45.41792"></scales>
<clustering>
<clus scale="   45.418">  1  9  2 -1</clus>
<clus scale="   80.543">  5  6 -1 -1</clus>
<clus scale="   87.567">  7  8 -1 -1</clus>
<clus scale="  207.595">  1  5  2 -1</clus>
<clus scale="   45.418">  1  5  2 -1</clus>
</clustering>
</event>
<event>
 9    2  0.3764910E-005  0.9328914E+02  0.7546771E-02  0.1300970E+00
         21   -1    0    0  501  502  0.00000000000E+00  0.00000000000E+00  0.56655798094E+02  0.56655798094E+02  0.00000000000E+00 0. -1.
          2   -1    0    0  502    0 -0.00000000000E+00 -0.00000000000E+00 -0.37186381996E+03  0.37186381996E+03  0.00000000000E+00 0. -1.
         23    2    1    2    0    0  0.41044483036E+02 -0.14369664117E+02 -0.13850221207E+03  0.17091551784E+03  0.90211499582E+02 0.  0.
         24    2    1    2    0    0  0.10673219952E+02 -0.38334872640E+02 -0.31886606640E+02  0.95046139471E+02  0.80209306573E+02 0.  0.
        -13    1    4    4    0    0 -0.30236961201E+02 -0.32905545280E+02 -0.32328435658E+01  0.44805133750E+02  0.00000000000E+00 0.  1.
         14    1    4    4    0    0  0.40910181153E+02 -0.54293273600E+01 -0.28653763074E+02  0.50241005721E+02  0.00000000000E+00 0. -1.
        -13    1    3    3    0    0 -0.77046840951E+01  0.21091187166E+02 -0.30575111513E+01  0.22661613083E+02  0.00000000000E+00 0. -1.
         13    1    3    3    0    0  0.48749167131E+02 -0.35460851283E+02 -0.13544470092E+03  0.14825390476E+03  0.00000000000E+00 0.  1.
          1    1    1    2  501    0 -0.51717702988E+02  0.52704536757E+02 -0.14481920316E+03  0.16255796074E+03  0.00000000000E+00 0. -1.
<scales pt_clust_5="13000.00000" pt_clust_6="13000.00000" pt_clust_7="13000.00000" pt_clust_8="13000.00000" pt_clust_9="73.84101"></scales>
<clustering>
<clus scale="   73.841">  1  9  2 -1</clus>
<clus scale="   80.209">  5  6 -1 -1</clus>
<clus scale="   83.656">  1  5  2 -1</clus>
<clus scale="   90.211">  7  8 -1 -1</clus>
<clus scale="   73.841">  1  5  2 -1</clus>
</clustering>
</event>
<event>
 9    2  0.3764910E-005  0.1136733E+03  0.7546771E-02  0.1258696E+00
         21   -1    0    0  501  502  0.00000000000E+00  0.00000000000E+00  0.12989040368E+03  0.12989040368E+03  0.00000000000E+00 0. -1.
          2   -1    0    0  502    0 -0.00000000000E+00 -0.00000000000E+00 -0.34470988248E+03  0.34470988248E+03  0.00000000000E+00 0. -1.
         24    2    1    2    0    0 -0.75404054428E+02  0.91450993052E+00 -0.25459086106E+03  0.27738048394E+03  0.80229786120E+02 0.  0.
         23    2    1    2    0    0  0.30806352742E+02 -0.27537032858E+02 -0.33679408586E+02  0.10726018685E+03  0.93075912951E+02 0.  0.
        -13    1    3    3    0    0 -0.10363237776E+02  0.34614585307E+02 -0.69745024547E+02  0.78548931643E+02  0.00000000000E+00 0.  1.
         14    1    3    3    0    0 -0.65040816652E+02 -0.33700075377E+02 -0.18484583651E+03  0.19883155229E+03  0.00000000000E+00 0. -1.
        -11    1    4    4    0    0 -0.28455220228E+01 -0.43924102927E+02  0.14415588229E+02  0.46316660043E+02  0.00000000000E+00 0. -1.
         11    1    4    4    0    0  0.33651874765E+02  0.16387070069E+02 -0.48094996814E+02  0.60943526803E+02  0.00000000000E+00 0.  1.
          1    1    1    2  501    0  0.44597701687E+02  0.26622522927E+02  0.73450790851E+02  0.89959615380E+02  0.00000000000E+00 0. -1.
<scales pt_clust_5="13000.00000" pt_clust_6="13000.00000" pt_clust_7="13000.00000" pt_clust_8="13000.00000" pt_clust_9="51.93952"></scales>
<clustering>
<clus scale="   51.940">  1  9  2 -1</clus>
<clus scale="   80.230">  5  6 -1 -1</clus>
<clus scale="   93.076">  7  8 -1 -1</clus>
<clus scale="  103.418">  2  5  1 -1</clus>
<clus scale="   51.940">  1  5  2 -1</clus>
</clustering>
</event>
<event>
 9    2  0.3764910E-005  0.1108892E+03  0.7546771E-02  0.1263137E+00
         21   -1    0    0  501  502  0.00000000000E+00  0.00000000000E+00  0.11509860097E+03  0.11509860097E+03  0.00000000000E+00 0. -1.
          2   -1    0    0  502    0 -0.00000000000E+00 -0.00000000000E+00 -0.19941619332E+03  0.19941619332E+03  0.00000000000E+00 0. -1.
         23    2    1    2    0    0 -0.13619469781E+02 -0.65890214234E+02 -0.13382069860E+03  0.17536956647E+03  0.91211266744E+02 0.  0.
         24    2    1    2    0    0 -0.14238805487E+02  0.50246932650E+02  0.48031330865E+02  0.10716145252E+03  0.80306103991E+02 0.  0.
        -11    1    4    4    0    0 -0.16236680035E+02  0.35758224017E+02 -0.15312112256E+02  0.42151407392E+02  0.00000000000E+00 0.  1.
         12    1    4    4    0    0  0.19978745480E+01  0.14488708633E+02  0.63343443121E+02  0.65010045123E+02  0.00000000000E+00 0. -1.
        -13    1    3    3    0    0  0.10882903483E+02 -0.16968998261E+02  0.92601554595E+01  0.22184115248E+02  0.00000000000E+00 0.  1.
         13    1    3    3    0    0 -0.24502373264E+02 -0.48921215973E+02 -0.14308085405E+03  0.15318545122E+03  0.00000000000E+00 0. -1.
          1    1    1    2  501    0  0.27858275268E+02  0.15643281584E+02  0.14717753799E+01  0.31983775299E+02  0.00000000000E+00 0. -1.
<scales pt_clust_5="13000.00000" pt_clust_6="13000.00000" pt_clust_7="13000.00000" pt_clust_8="13000.00000" pt_clust_9="31.94989"></scales>
<clustering>
<clus scale="   31.950">  1  9  2 -1</clus>
<clus scale="   80.306">  5  6 -1 -1</clus>
<clus scale="   91.211">  7  8 -1 -1</clus>
<clus scale="  102.108">  1  5  2 -1</clus>
<clus scale="   31.950">  1  5  2 -1</clus>
</clustering>
</event>
<event>
 9    2  0.3764910E-005  0.2495108E+03  0.7546771E-02  0.1114275E+00
         21   -1    0    0  501  502  0.00000000000E+00  0.00000000000E+00  0.39920277149E+03  0.39920277149E+03  0.00000000000E+00 0.  1.
          2   -1    0    0  502    0 -0.00000000000E+00 -0.00000000000E+00 -0.12584586903E+04  0.12584586903E+04  0.00000000000E+00 0. -1.
         23    2    1    2    0    0  0.10088064169E+03  0.20747545422E+03 -0.11311455152E+04  0.11581098816E+04  0.92224472444E+02 0.  0.
         24    2    1    2    0    0 -0.21576314328E+03 -0.17233098467E+03  0.13587713009E+03  0.31807840345E+03  0.80371474903E+02 0.  0.
        -11    1    4    4    0    0 -0.15885410605E+03 -0.16044526083E+03  0.12763307330E+03  0.25935980824E+03  0.00000000000E+00 0.  1.
         12    1    4    4    0    0 -0.56909037237E+02 -0.11885723845E+02  0.82440567925E+01  0.58718595206E+02  0.00000000000E+00 0. -1.
        -11    1    3    3    0    0  0.20439938177E+02  0.13241383495E+03 -0.51057647059E+03  0.52786318974E+03  0.00000000000E+00 0.  1.
         11    1    3    3    0    0  0.80440703509E+02  0.75061619267E+02 -0.62056904458E+03  0.63024669183E+03  0.00000000000E+00 0. -1.
          1    1    1    2  501    0  0.11488250160E+03 -0.35144469549E+02  0.13601246626E+03  0.18147317678E+03  0.00000000000E+00 0. -1.
<scales pt_clust_5="13000.00000" pt_clust_6="13000.00000" pt_clust_7="13000.00000" pt_clust_8="13000.00000" pt_clust_9="120.13793"></scales>
<clustering>
<clus scale="   80.371">  5  6 -1 -1</clus>
<clus scale="   92.224">  7  8 -1 -1</clus>
<clus scale="  120.138">  1  9  2 -1</clus>
<clus scale="  245.377">  1  5  2 -1</clus>
<clus scale="  120.138">  1  5  2 -1</clus>
</clustering>
</event>
<event>
 9    2  0.3764910E-005  0.9401856E+02  0.7546771E-02  0.1296325E+00
          2   -1    0    0  502    0 -0.00000000000E+00  0.00000000000E+00  0.75769727743E+03  0.75769727743E+03  0.00000000000E+00 0. -1.
         21   -1    0    0  501  502  0.00000000000E+00 -0.00000000000E+00 -0.27639080467E+02  0.27639080467E+02  0.00000000000E+00 0.  1.
         23    2    1    2    0    0  0.71635889270E+01 -0.10566151008E+02  0.25749709424E+03  0.27298962252E+03  0.89753105307E+02 0.  0.
         24    2    1    2    0    0 -0.68902096818E+02  0.46539608314E+01  0.15996985775E+03  0.19366212046E+03  0.84531078389E+02 0.  0.
        -13    1    4    4    0    0 -0.33179730964E+02  0.41696629884E+02  0.54038556295E+02  0.75892483534E+02  0.00000000000E+00 0.  1.
         14    1    4    4    0    0 -0.35722365854E+02 -0.37042669053E+02  0.10593130146E+03  0.11776963692E+03  0.00000000000E+00 0. -1.
        -13    1    3    3    0    0 -0.23451751902E+02 -0.41157922530E+02  0.13299224628E+03  0.14117682822E+03  0.00000000000E+00 0.  1.
         13    1    3    3    0    0  0.30615340829E+02  0.30591771523E+02  0.12450484796E+03  0.13181279431E+03  0.00000000000E+00 0. -1.
          1    1    1    2  501    0  0.61738507891E+02  0.59121901762E+01  0.31259124498E+03  0.31868461492E+03  0.00000000000E+00 0. -1.
<scales pt_clust_5="13000.00000" pt_clust_6="13000.00000" pt_clust_7="13000.00000" pt_clust_8="13000.00000" pt_clust_9="62.02097"></scales>
<clustering>
<clus scale="   62.021">  2  9  1 -1</clus>
<clus scale="   84.531">  5  6 -1 -1</clus>
<clus scale="   89.047">  2  5  1 -1</clus>
<clus scale="   89.753">  7  8 -1 -1</clus>
<clus scale="   62.021">  2  5  1 -1</clus>
</clustering>
</event>
<event>
 9    2  0.3764910E-005  0.9254591E+02  0.7546771E-02  0.1301949E+00
         21   -1    0    0  501  502  0.00000000000E+00  0.00000000000E+00  0.29035801666E+03  0.29035801666E+03  0.00000000000E+00 0. -1.
          2   -1    0    0  502    0 -0.00000000000E+00 -0.00000000000E+00 -0.91658226262E+02  0.91658226262E+02  0.00000000000E+00 0. -1.
         23    2    1    2    0    0  0.18889899485E+00 -0.29151735857E+02 -0.43847611380E+02  0.10416091472E+03  0.89872263497E+02 0.  0.
         24    2    1    2    0    0  0.23850447540E+01 -0.19498493374E+01  0.86378619518E+02  0.11859886101E+03  0.81209196355E+02 0.  0.
        -11    1    4    4    0    0  0.76863601117E+01  0.37516421696E+02  0.26060409457E+02  0.46321776409E+02  0.00000000000E+00 0.  1.
         12    1    4    4    0    0 -0.53013153576E+01 -0.39466271033E+02  0.60318210061E+02  0.72277084603E+02  0.00000000000E+00 0. -1.
        -13    1    3    3    0    0 -0.39880609502E+02  0.44881622742E+01 -0.85049321466E+01  0.41023657634E+02  0.00000000000E+00 0.  1.
         13    1    3    3    0    0  0.40069508497E+02 -0.33639898131E+02 -0.35342679233E+02  0.63137257090E+02  0.00000000000E+00 0. -1.
          1    1    1    2  501    0 -0.25739437489E+01  0.31101585194E+02  0.15616878226E+03  0.15925646719E+03  0.00000000000E+00 0. -1.
<scales pt_clust_5="13000.00000" pt_clust_6="13000.00000" pt_clust_7="13000.00000" pt_clust_8="13000.00000" pt_clust_9="31.20791"></scales>
<clustering>
<clus scale="   31.208">  1  9  2 -1</clus>
<clus scale="   81.209">  5  6 -1 -1</clus>
<clus scale="   84.159">  1  5  2 -1</clus>
<clus scale="   89.872">  7  8 -1 -1</clus>
<clus scale="   31.208">  1  5  2 -1</clus>
</clustering>
</event>
<event>
 9    2  0.3764910E-005  0.1241535E+03  0.7546771E-02  0.1239010E+00
         -1   -1    0    0    0  501 -0.00000000000E+00  0.00000000000E+00  0.71161546090E+02  0.71161546090E+02  0.00000000000E+00 0.  1.
         21   -1    0    0  501  502  0.00000000000E+00 -0.00000000000E+00 -0.74583805050E+03  0.74583805050E+03  0.00000000000E+00 0. -1.
         24    2    1    2    0    0 -0.11167828067E+03 -0.21674062044E+02 -0.49671191220E+02  0.14871043533E+03  0.81888723278E+02 0.  0.
         23    2    1    2    0    0  0.41165962653E+02  0.20775909584E+02 -0.11598866347E+03  0.15441102068E+03  0.90901696097E+02 0.  0.
        -11    1    3    3    0    0 -0.58929374027E+02 -0.25168278024E+02 -0.67354905323E+02  0.92966642475E+02  0.00000000000E+00 0.  1.
         12    1    3    3    0    0 -0.52748906647E+02  0.34942159794E+01  0.17683714104E+02  0.55743792859E+02  0.00000000000E+00 0. -1.
        -11    1    4    4    0    0  0.15174420039E+02 -0.27637681097E+02 -0.86461225092E+02  0.92030689905E+02  0.00000000000E+00 0.  1.
         11    1    4    4    0    0  0.25991542614E+02  0.48413590682E+02 -0.29527438374E+02  0.62380330771E+02  0.00000000000E+00 0. -1.
         -2    1    1    2    0  502  0.70512318021E+02  0.89815245984E+00 -0.50901664972E+03  0.51387814058E+03  0.00000000000E+00 0.  1.
<scales pt_clust_5="13000.00000" pt_clust_6="13000.00000" pt_clust_7="13000.00000" pt_clust_8="13000.00000" pt_clust_9="70.51804"></scales>
<clustering>
<clus scale="   70.518">  2  9  1 -1</clus>
<clus scale="   81.889">  5  6 -1 -1</clus>
<clus scale="   90.902">  7  8 -1 -1</clus>
<clus scale="  117.715">  1  5  2 -1</clus>
<clus scale="   70.518">  2  5  1 -1</clus>
</clustering>
</event>
<event>
 9    2  0.3764910E-005  0.1086906E+03  0.7546771E-02  0.1268058E+00
         21   -1    0    0  501  502  0.00000000000E+00  0.00000000000E+00  0.43440423458E+03  0.43440423458E+03  0.00000000000E+00 0. -1.
         -3   -1    0    0    0  501 -0.00000000000E+00 -0.00000000000E+00 -0.54605537552E+02  0.54605537552E+02  0.00000000000E+00 0.  1.
         23    2    1    2    0    0  0.24269275746E+02  0.47827983522E+02  0.31978701390E+02  0.11054775557E+03  0.91223106541E+02 0.  0.
         24    2    1    2    0    0 -0.15794230430E+02 -0.81467442901E+02  0.27017969196E+03  0.29342404636E+03  0.78830216702E+02 0.  0.
        -11    1    4    4    0    0  0.67043611091E+01 -0.52724802128E+02  0.60240547023E+02  0.80335401430E+02  0.00000000000E+00 0.  1.
         12    1    4    4    0    0 -0.22498591539E+02 -0.28742640773E+02  0.20993914494E+03  0.21308864493E+03  0.00000000000E+00 0. -1.
        -13    1    3    3    0    0  0.51835640011E+02  0.50950723396E+02  0.66592284661E+01  0.72988047745E+02  0.00000000000E+00 0.  1.
         13    1    3    3    0    0 -0.27566364265E+02 -0.31227398745E+01  0.25319472924E+02  0.37559707830E+02  0.00000000000E+00 0. -1.
         -4    1    1    2    0  502 -0.84750453158E+01  0.33639459379E+02  0.77640303673E+02  0.85037970195E+02  0.00000000000E+00 0.  1.
<scales pt_clust_5="13000.00000" pt_clust_6="13000.00000" pt_clust_7="13000.00000" pt_clust_8="13000.00000" pt_clust_9="34.69063"></scales>
<clustering>
<clus scale="   34.691">  1  9  2 -1</clus>
<clus scale="   78.830">  5  6 -1 -1</clus>
<clus scale="   91.223">  7  8 -1 -1</clus>
<clus scale="   98.520">  1  5  2 -1</clus>
<clus scale="   34.691">  1  5  2 -1</clus>
</clustering>
</event>
<event>
 9    2  0.3764910E-005  0.1033201E+03  0.7546771E-02  0.1275861E+00
         -1   -1    0    0    0  501 -0.00000000000E+00  0.00000000000E+00  0.22070025983E+03  0.22070025983E+03  0.00000000000E+00 0.  1.
         21   -1    0    0  501  502  0.00000000000E+00 -0.00000000000E+00 -0.10853401428E+03  0.10853401428E+03  0.00000000000E+00 0. -1.
         23    2    1    2    0    0 -0.18084352717E+02  0.59913863753E+02  0.59993820555E+02  0.12287389978E+03  0.87074806114E+02 0.  0.
         24    2    1    2    0    0 -0.48405548956E+02 -0.46498972562E+02 -0.19833621828E+02  0.10743748967E+03  0.81511901048E+02 0.  0.
        -11    1    4    4    0    0 -0.93269972407E+01 -0.42722487332E+02  0.22937277574E+02  0.49379373264E+02  0.00000000000E+00 0.  1.
         12    1    4    4    0    0 -0.39078551715E+02 -0.37764852293E+01 -0.42770899402E+02  0.58058116405E+02  0.00000000000E+00 0. -1.
        -13    1    3    3    0    0 -0.37766470675E+02 -0.53209874869E+01  0.13831750050E+02  0.40570143265E+02  0.00000000000E+00 0.  1.
         13    1    3    3    0    0  0.19682117958E+02  0.65234851240E+02  0.46162070505E+02  0.82303756517E+02  0.00000000000E+00 0. -1.
         -2    1    1    2    0  502  0.66489901673E+02 -0.13414891191E+02  0.72006046824E+02  0.98922884660E+02  0.00000000000E+00 0.  1.
<scales pt_clust_5="13000.00000" pt_clust_6="13000.00000" pt_clust_7="13000.00000" pt_clust_8="13000.00000" pt_clust_9="67.82972"></scales>
<clustering>
<clus scale="   67.830">  2  9  1 -1</clus>
<clus scale="   81.512">  5  6 -1 -1</clus>
<clus scale="   87.075">  7  8 -1 -1</clus>
<clus scale="   98.677">  2  5  1 -1</clus>
<clus scale="   67.830">  2  5  1 -1</clus>
</clustering>
</event>
<event>
 9    2  0.3764910E-005  0.2445924E+03  0.7546771E-02  0.1117723E+00
          2   -1    0    0  502    0 -0.00000000000E+00  0.00000000000E+00  0.65481013246E+03  0.65481013246E+03  0.00000000000E+00 0. -1.
         21   -1    0    0  501  502  0.00000000000E+00 -0.00000000000E+00 -0.15115564753E+03  0.15115564753E+03  0.00000000000E+00 0. -1.
         23    2    1    2    0    0  0.12182290844E+03  0.21068545645E+03  0.26113818342E+03  0.36979369939E+03  0.96566281299E+02 0.  0.
         24    2    1    2    0    0 -0.15818488157E+03 -0.12847490552E+03  0.51686555827E+02  0.22522953011E+03  0.80799647733E+02 0.  0.
        -13    1    4    4    0    0 -0.10385850657E+03 -0.36463370118E+02  0.99764347827E+01  0.11052463978E+03  0.00000000000E+00 0.  1.
         14    1    4    4    0    0 -0.54326375000E+02 -0.92011535404E+02  0.41710121045E+02  0.11470489033E+03  0.00000000000E+00 0. -1.
        -11    1    3    3    0    0  0.98716576287E+02  0.12373588072E+03  0.21959446243E+03  0.27069772541E+03  0.00000000000E+00 0. -1.
         11    1    3    3    0    0  0.23106332157E+02  0.86949575723E+02  0.41543720993E+02  0.99095973975E+02  0.00000000000E+00 0.  1.
          1    1    1    2  501    0  0.36361973128E+02 -0.82210550924E+02  0.19082974568E+03  0.21094255049E+03  0.00000000000E+00 0. -1.
<scales pt_clust_5="13000.00000" pt_clust_6="13000.00000" pt_clust_7="13000.00000" pt_clust_8="13000.00000" pt_clust_9="89.89314"></scales>
<clustering>
<clus scale="   80.800">  5  6 -1 -1</clus>
<clus scale="   89.893">  2  9  1 -1</clus>
<clus scale="   96.566">  7  8 -1 -1</clus>
<clus scale="  238.807">  2  5  1 -1</clus>
<clus scale="   89.893">  2  5  1 -1</clus>
</clustering>
</event>
<event>
 9    2  0.3764910E-005  0.1233336E+03  0.7546771E-02  0.1241129E+00
         21   -1    0    0  501  502  0.00000000000E+00  0.00000000000E+00  0.43139008049E+03  0.43139008049E+03  0.00000000000E+00 0.  1.
         -3   -1    0    0    0  501 -0.00000000000E+00 -0.00000000000E+00 -0.11347948465E+03  0.11347948465E+03  0.00000000000E+00 0.  1.
         23    2    1    2    0    0  0.68156035647E+02 -0.64657775017E+02 -0.49315390084E+02  0.13992822534E+03  0.91225147199E+02 0.  0.
         24    2    1    2    0    0 -0.19592280293E+02  0.49316060564E+02  0.12501652078E+03  0.15743531656E+03  0.79629248118E+02 0.  0.
        -13    1    4    4    0    0  0.17587081233E+02  0.42752195967E+02  0.29784385545E+02  0.54992411373E+02  0.00000000000E+00 0.  1.
         14    1    4    4    0    0 -0.37179361525E+02  0.65638645976E+01  0.95232135238E+02  0.10244290519E+03  0.00000000000E+00 0. -1.
        -13    1    3    3    0    0  0.56222653797E+02 -0.28876942955E+02 -0.72084761001E+02  0.95870106931E+02  0.00000000000E+00 0.  1.
         13    1    3    3    0    0  0.11933381850E+02 -0.35780832063E+02  0.22769370917E+02  0.44058118405E+02  0.00000000000E+00 0. -1.
         -4    1    1    2    0  502 -0.48563755354E+02  0.15341714453E+02  0.24220946514E+03  0.24750602324E+03  0.00000000000E+00 0.  1.
<scales pt_clust_5="13000.00000" pt_clust_6="13000.00000" pt_clust_7="13000.00000" pt_clust_8="13000.00000" pt_clust_9="50.92943"></scales>
<clustering>
<clus scale="   50.929">  1  9  2 -1</clus>
<clus scale="   79.629">  5  6 -1 -1</clus>
<clus scale="   91.225">  7  8 -1 -1</clus>
<clus scale="  115.022">  1  5  2 -1</clus>
<clus scale="   50.929">  1  5  2 -1</clus>
</clustering>
</event>
<event>
 9    2  0.3764910E-005  0.3029886E+03  0.7546771E-02  0.1084187E+00
         21   -1    0    0  501  502  0.00000000000E+00  0.00000000000E+00  0.39437639597E+03  0.39437639597E+03  0.00000000000E+00 0.  1.
         -1   -1    0    0    0  501 -0.00000000000E+00 -0.00000000000E+00 -0.28924558661E+03  0.28924558661E+03  0.00000000000E+00 0.  1.
         23    2    1    2    0    0 -0.17708449941E+03 -0.25705408515E+03  0.42102847340E+02  0.32809369034E+03  0.91853673108E+02 0.  0.
         24    2    1    2    0    0  0.16185818296E+03  0.20873112852E+03  0.99306609930E+02  0.29321385455E+03  0.79660569423E+02 0.  0.
        -11    1    4    4    0    0  0.10377920231E+03  0.13753078808E+03  0.10393289101E+03  0.20121353418E+03  0.00000000000E+00 0.  1.
         12    1    4    4    0    0  0.58078980644E+02  0.71200340447E+02 -0.46262810842E+01  0.92000320375E+02  0.00000000000E+00 0. -1.
        -13    1    3    3    0    0 -0.65124327399E+02 -0.11681179785E+03  0.62245272881E+02  0.14751490817E+03  0.00000000000E+00 0.  1.
         13    1    3    3    0    0 -0.11196017201E+03 -0.14024228731E+03 -0.20142425541E+02  0.18057878217E+03  0.00000000000E+00 0. -1.
         -2    1    1    2    0  502  0.15226316448E+02  0.48322956632E+02 -0.36278647902E+02  0.62314437683E+02  0.00000000000E+00 0.  1.
<scales pt_clust_5="13000.00000" pt_clust_6="13000.00000" pt_clust_7="13000.00000" pt_clust_8="13000.00000" pt_clust_9="50.66509"></scales>
<clustering>
<clus scale="   50.665">  1  9  2 -1</clus>
<clus scale="   79.661">  5  6 -1 -1</clus>
<clus scale="   91.854">  7  8 -1 -1</clus>
<clus scale="  299.518">  1  5  2 -1</clus>
<clus scale="   50.665">  1  5  2 -1</clus>
</clustering>
</event>
<event>
 9    2  0.3764910E-005  0.9345047E+02  0.7546771E-02  0.1294983E+00
         21   -1    0    0  501  502  0.00000000000E+00  0.00000000000E+00  0.50429260986E+03  0.50429260986E+03  0.00000000000E+00 0.  1.
         -1   -1    0    0    0  501 -0.00000000000E+00 -0.00000000000E+00 -0.10681305025E+03  0.10681305025E+03  0.00000000000E+00 0.  1.
         23    2    1    2    0    0  0.40212596549E+01 -0.12294104183E+02 -0.56667338225E+02  0.10960341787E+03  0.92921506981E+02 0.  0.
         24    2    1    2    0    0  0.63559225233E+02 -0.52599094771E+02  0.30058365345E+03  0.32161361217E+03  0.79235995124E+02 0.  0.
        -13    1    4    4    0    0  0.63841764404E+02 -0.48424106485E+02  0.14257111245E+03  0.16354567276E+03  0.00000000000E+00 0.  1.
         14    1    4    4    0    0 -0.28253917069E+00 -0.41749882858E+01  0.15801254100E+03  0.15806793941E+03  0.00000000000E+00 0. -1.
        -11    1    3    3    0    0  0.33823844704E+02  0.23245744751E+02 -0.46683533786E+02  0.62159226558E+02  0.00000000000E+00 0.  1.
         11    1    3    3    0    0 -0.29802585049E+02 -0.35539848934E+02 -0.99838044388E+01  0.47444191309E+02  0.00000000000E+00 0. -1.
         -2    1    1    2    0  502 -0.67580484888E+02  0.64893198954E+02  0.15356324438E+03  0.17988863008E+03  0.00000000000E+00 0.  1.
<scales pt_clust_5="13000.00000" pt_clust_6="13000.00000" pt_clust_7="13000.00000" pt_clust_8="13000.00000" pt_clust_9="93.69231"></scales>
<clustering>
<clus scale="   79.236">  5  6 -1 -1</clus>
<clus scale="   92.922">  7  8 -1 -1</clus>
<clus scale="   93.692">  1  9  2 -1</clus>
<clus scale="   93.692">  1  5  2 -1</clus>
<clus scale="   93.450">  1  5  2 -1</clus>
</clustering>
</event>
<event>
 9    2  0.3764910E-005  0.1028375E+03  0.7546771E-02  0.1279734E+00
         21   -1    0    0  501  502  0.00000000000E+00  0.00000000000E+00  0.63873436063E+02  0.63873436063E+02  0.00000000000E+00 0.  1.
         -3   -1    0    0    0  501 -0.00000000000E+00 -0.00000000000E+00 -0.21980756178E+03  0.21980756178E+03  0.00000000000E+00 0.  1.
         23    2    1    2    0    0  0.45934660310E+02  0.42319289176E+01 -0.10985176366E+03  0.15142540350E+03  0.93457694208E+02 0.  0.
         24    2    1    2    0    0 -0.38666819750E+02  0.15099740321E+02 -0.57412467526E+02  0.10869914657E+03  0.82438995203E+02 0.  0.
        -13    1    4    4    0    0 -0.18958438244E+02  0.44109114962E+02 -0.88861586413E+01  0.48826224704E+02  0.00000000000E+00 0.  1.
         14    1    4    4    0    0 -0.19708381506E+02 -0.29009374642E+02 -0.48526308885E+02  0.59872921865E+02  0.00000000000E+00 0. -1.
        -11    1    3    3    0    0  0.68303602916E+02  0.12811989570E+01 -0.10925442661E+03  0.12885477630E+03  0.00000000000E+00 0.  1.
         11    1    3    3    0    0 -0.22368942606E+02  0.29507299606E+01 -0.59733704851E+00  0.22570627199E+02  0.00000000000E+00 0. -1.
         -4    1    1    2    0  502 -0.72678405606E+01 -0.19331669238E+02  0.11330105465E+02  0.23556447776E+02  0.00000000000E+00 0.  1.
<scales pt_clust_5="13000.00000" pt_clust_6="13000.00000" pt_clust_7="13000.00000" pt_clust_8="13000.00000" pt_clust_9="20.65272"></scales>
<clustering>
<clus scale="   20.653">  1  9  2 -1</clus>
<clus scale="   82.439">  5  6 -1 -1</clus>
<clus scale="   92.938">  1  5  2 -1</clus>
<clus scale="   93.458">  7  8 -1 -1</clus>
<clus scale="   20.653">  1  5  2 -1</clus>
</clustering>
</event>
<event>
 9    2  0.3764910E-005  0.9370011E+02  0.7546771E-02  0.1300485E+00
          2   -1    0    0  502    0 -0.00000000000E+00  0.00000000000E+00  0.85070164051E+03  0.85070164051E+03  0.00000000000E+00 0. -1.
         21   -1    0    0  501  502  0.00000000000E+00 -0.00000000000E+00 -0.14424580656E+02  0.14424580656E+02  0.00000000000E+00 0.  1.
         24    2    1    2    0    0  0.44791176530E+01 -0.24674685913E+02  0.49950228406E+03  0.50666589031E+03  0.81110356955E+02 0.  0.
         23    2    1    2    0    0  0.17201219134E+02  0.51651054691E+01  0.24975433649E+03  0.26668224203E+03  0.91758538358E+02 0.  0.
        -11    1    3    3    0    0  0.31127909831E+02  0.84327956115E+00  0.84993399485E+02  0.90518152030E+02  0.00000000000E+00 0.  1.
         12    1    3    3    0    0 -0.26648792178E+02 -0.25517965474E+02  0.41450888458E+03  0.41614773828E+03  0.00000000000E+00 0. -1.
        -11    1    4    4    0    0  0.43952871455E+02 -0.25523249231E+02  0.16511651393E+03  0.17276213223E+03  0.00000000000E+00 0. -1.
         11    1    4    4    0    0 -0.26751652320E+02  0.30688354700E+02  0.84637822563E+02  0.93920109797E+02  0.00000000000E+00 0.  1.
          1    1    1    2  501    0 -0.21680336787E+02  0.19509580444E+02  0.87020439299E+02  0.91778088824E+02  0.00000000000E+00 0. -1.
<scales pt_clust_5="13000.00000" pt_clust_6="13000.00000" pt_clust_7="13000.00000" pt_clust_8="13000.00000" pt_clust_9="29.16609"></scales>
<clustering>
<clus scale="   29.166">  2  9  1 -1</clus>
<clus scale="   81.110">  5  6 -1 -1</clus>
<clus scale="   83.300">  1  5  2 -1</clus>
<clus scale="   91.759">  7  8 -1 -1</clus>
<clus scale="   29.166">  2  5  1 -1</clus>
</clustering>
</event>
<event>
 9    2  0.3764910E-005  0.1893488E+03  0.7546771E-02  0.1185105E+00
         21   -1    0    0  501  502  0.00000000000E+00  0.00000000000E+00  0.15178269078E+03  0.15178269078E+03  0.00000000000E+00 0.  1.
          2   -1    0    0  502    0 -0.00000000000E+00 -0.00000000000E+00 -0.69937648244E+03  0.69937648244E+03  0.00000000000E+00 0. -1.
         23    2    1    2    0    0  0.46081382672E+02  0.15977668378E+02 -0.77026042668E+02  0.12986360839E+03  0.92481164669E+02 0.  0.
         24    2    1    2    0    0 -0.18221310411E+03  0.82001885466E+02 -0.50582128448E+03  0.54990521996E+03  0.81330526715E+02 0.  0.
        -11    1    4    4    0    0 -0.71117571029E+02  0.58680308238E+02 -0.14668758935E+03  0.17325800516E+03  0.00000000000E+00 0.  1.
         12    1    4    4    0    0 -0.11109553308E+03  0.23321577228E+02 -0.35913369514E+03  0.37664721480E+03  0.00000000000E+00 0. -1.
        -13    1    3    3    0    0 -0.85288003767E+01  0.36898314016E+02 -0.68009087689E+01  0.38476984981E+02  0.00000000000E+00 0.  1.
         13    1    3    3    0    0  0.54610183049E+02 -0.20920645639E+02 -0.70225133899E+02  0.91386623407E+02  0.00000000000E+00 0. -1.
          1    1    1    2  501    0  0.13613172143E+03 -0.97979553844E+02  0.35253535495E+02  0.17139034488E+03  0.00000000000E+00 0. -1.
<scales pt_clust_5="13000.00000" pt_clust_6="13000.00000" pt_clust_7="13000.00000" pt_clust_8="13000.00000" pt_clust_9="170.99213"></scales>
<clustering>
<clus scale="   81.331">  5  6 -1 -1</clus>
<clus scale="   92.481">  7  8 -1 -1</clus>
<clus scale="  104.554">  2  7  1 -1</clus>
<clus scale="  170.992">  1  9  2 -1</clus>
<clus scale="  170.992">  1  5  2 -1</clus>
</clustering>
</event>
<event>
 9    2  0.3764910E-005  0.1010191E+03  0.7546771E-02  0.1283598E+00
         -1   -1    0    0    0  501 -0.00000000000E+00  0.00000000000E+00  0.91720501082E+03  0.91720501082E+03  0.00000000000E+00 0.  1.
         21   -1    0    0  501  502  0.00000000000E+00 -0.00000000000E+00 -0.15357189514E+02  0.15357189514E+02  0.00000000000E+00 0.  1.
         24    2    1    2    0    0  0.45802539184E+02 -0.58257011483E+01  0.53839315725E+03  0.54641020080E+03  0.81025331688E+02 0.  0.
         23    2    1    2    0    0 -0.26318459705E+02  0.28868774463E+02  0.28962263833E+03  0.30639122845E+03  0.92023066555E+02 0.  0.
        -13    1    3    3    0    0  0.55434788063E+02 -0.23359048127E+02  0.24280319345E+03  0.25014406171E+03  0.00000000000E+00 0.  1.
         14    1    3    3    0    0 -0.96322488793E+01  0.17533346978E+02  0.29558996380E+03  0.29626613909E+03  0.00000000000E+00 0. -1.
        -11    1    4    4    0    0 -0.12169180612E+02 -0.32873132913E+02  0.78493762078E+02  0.85965123797E+02  0.00000000000E+00 0.  1.
         11    1    4    4    0    0 -0.14149279093E+02  0.61741907377E+02  0.21112887625E+03  0.22042610465E+03  0.00000000000E+00 0. -1.
         -2    1    1    2    0  502 -0.19484079479E+02 -0.23043073315E+02  0.73832025726E+02  0.79760771083E+02  0.00000000000E+00 0.  1.
<scales pt_clust_5="13000.00000" pt_clust_6="13000.00000" pt_clust_7="13000.00000" pt_clust_8="13000.00000" pt_clust_9="30.17636"></scales>
<clustering>
<clus scale="   30.176">  2  9  1 -1</clus>
<clus scale="   81.025">  5  6 -1 -1</clus>
<clus scale="   91.114">  1  5  2 -1</clus>
<clus scale="   92.023">  7  8 -1 -1</clus>
<clus scale="   30.176">  2  5  1 -1</clus>
</clustering>
</event>
<event>
 9    2  0.3764910E-005  0.9236523E+02  0.7546771E-02  0.1304010E+00
         21   -1    0    0  501  502  0.00000000000E+00  0.00000000000E+00  0.14463939571E+03  0.14463939571E+03  0.00000000000E+00 0. -1.
         -3   -1    0    0    0  501 -0.00000000000E+00 -0.00000000000E+00 -0.17647312462E+03  0.17647312462E+03  0.00000000000E+00 0.  1.
         24    2    1    2    0    0 -0.20202508653E+02  0.70193981275E+01 -0.13329940857E+03  0.15656083251E+03  0.79278929395E+02 0.  0.
         23    2    1    2    0    0 -0.77599900221E+01 -0.37741293876E+01  0.10177530873E+03  0.13639979673E+03  0.90400384859E+02 0.  0.
        -11    1    3    3    0    0  0.27360500592E+02 -0.96917526227E+01 -0.30726948088E+02  0.42269047781E+02  0.00000000000E+00 0.  1.
         12    1    3    3    0    0 -0.47563009244E+02  0.16711150750E+02 -0.10257246048E+03  0.11429178473E+03  0.00000000000E+00 0. -1.
        -11    1    4    4    0    0  0.99457374204E+01 -0.42174026050E+02  0.28705002520E+02  0.51976372861E+02  0.00000000000E+00 0.  1.
         11    1    4    4    0    0 -0.17705727442E+02  0.38399896662E+02  0.73070306213E+02  0.84423423870E+02  0.00000000000E+00 0. -1.
         -4    1    1    2    0  502  0.27962498675E+02 -0.32452687399E+01 -0.30962907291E+00  0.28151891082E+02  0.00000000000E+00 0.  1.
<scales pt_clust_5="13000.00000" pt_clust_6="13000.00000" pt_clust_7="13000.00000" pt_clust_8="13000.00000" pt_clust_9="28.15019"></scales>
<clustering>
<clus scale="   28.150">  1  9  2 -1</clus>
<clus scale="   79.279">  5  6 -1 -1</clus>
<clus scale="   81.512">  2  5  1 -1</clus>
<clus scale="   90.400">  7  8 -1 -1</clus>
<clus scale="   28.150">  1  5  2 -1</clus>
</clustering>
</event>
<event>
 9    2  0.3764910E-005  0.1126754E+03  0.7546771E-02  0.1259582E+00
         21   -1    0    0  501  502  0.00000000000E+00  0.00000000000E+00  0.23857058991E+03  0.23857058991E+03  0.00000000000E+00 0. -1.
          2   -1    0    0  502    0 -0.00000000000E+00 -0.00000000000E+00 -0.28588859330E+03  0.28588859330E+03  0.00000000000E+00 0. -1.
         23    2    1    2    0    0  0.33229129560E+02 -0.49629776512E+02 -0.14908614102E+03  0.18464800347E+03  0.91109373690E+02 0.  0.
         24    2    1    2    0    0 -0.66045607915E+02  0.44390938788E+02 -0.90323351113E+02  0.14486629850E+03  0.80593789546E+02 0.  0.
        -13    1    4    4    0    0 -0.58006235007E+02  0.61189418754E+02 -0.44355978442E+02  0.95269728092E+02  0.00000000000E+00 0.  1.
         14    1    4    4    0    0 -0.80393729085E+01 -0.16798479966E+02 -0.45967372671E+02  0.49596570408E+02  0.00000000000E+00 0. -1.
        -13    1    3    3    0    0 -0.64413082639E+01 -0.30614358447E+02 -0.13481714439E+03  0.13839939240E+03  0.00000000000E+00 0. -1.
         13    1    3    3    0    0  0.39670437824E+02 -0.19015418064E+02 -0.14268996631E+02  0.46248611073E+02  0.00000000000E+00 0.  1.
          1    1    1    2  501    0  0.32816478355E+02  0.52388377237E+01  0.19209148874E+03  0.19494488123E+03  0.00000000000E+00 0. -1.
<scales pt_clust_5="13000.00000" pt_clust_6="13000.00000" pt_clust_7="13000.00000" pt_clust_8="13000.00000" pt_clust_9="33.23201"></scales>
<clustering>
<clus scale="   33.232">  1  9  2 -1</clus>
<clus scale="   80.594">  5  6 -1 -1</clus>
<clus scale="   91.109">  7  8 -1 -1</clus>
<clus scale="  104.356">  1  5  2 -1</clus>
<clus scale="   33.232">  1  5  2 -1</clus>
</clustering>
</event>
<event>
 9    2  0.3764910E-005  0.2243158E+03  0.7546771E-02  0.1131422E+00
          2   -1    0    0  502    0 -0.00000000000E+00  0.00000000000E+00  0.16484247478E+04  0.16484247478E+04  0.00000000000E+00 0. -1.
         21   -1    0    0  501  502  0.00000000000E+00 -0.00000000000E+00 -0.62614605237E+02  0.62614605237E+02  0.00000000000E+00 0. -1.
         23    2    1    2    0    0  0.18460699035E+03 -0.47905261562E-01  0.62091222468E+03  0.65408155552E+03  0.90614277740E+02 0.  0.
         24    2    1    2    0    0 -0.25938727808E+03  0.33399984977E+01  0.37885777859E+03  0.46615666840E+03  0.80473023274E+02 0.  0.
        -11    1    4    4    0    0 -0.78412513231E+02  0.36862095808E+02  0.10396188804E+03  0.13533443946E+03  0.00000000000E+00 0.  1.
         12    1    4    4    0    0 -0.18097476485E+03 -0.33522097310E+02  0.27489589055E+03  0.33082222894E+03  0.00000000000E+00 0. -1.
        -11    1    3    3    0    0  0.88633947796E+02  0.43829651654E+02  0.26462851551E+03  0.28249825891E+03  0.00000000000E+00 0.  1.
         11    1    3    3    0    0  0.95973042552E+02 -0.43877556916E+02  0.35628370917E+03  0.37158329661E+03  0.00000000000E+00 0. -1.
          1    1    1    2  501    0  0.74780287731E+02 -0.32920932361E+01  0.58604013932E+03  0.59080112916E+03  0.00000000000E+00 0. -1.
<scales pt_clust_5="13000.00000" pt_clust_6="13000.00000" pt_clust_7="13000.00000" pt_clust_8="13000.00000" pt_clust_9="74.85275"></scales>
<clustering>
<clus scale="   74.853">  2  9  1 -1</clus>
<clus scale="   80.473">  5  6 -1 -1</clus>
<clus scale="   90.614">  7  8 -1 -1</clus>
<clus scale="  220.414">  2  5  1 -1</clus>
<clus scale="   74.853">  2  5  1 -1</clus>
</clustering>
</event>
<event>
 9    2  0.3764910E-005  0.1114974E+03  0.7546771E-02  0.1262226E+00
         21   -1    0    0  501  502  0.00000000000E+00  0.00000000000E+00  0.89400784693E+02  0.89400784693E+02  0.00000000000E+00 0. -1.
         -1   -1    0    0    0  501 -0.00000000000E+00 -0.00000000000E+00 -0.38843309792E+03  0.38843309792E+03  0.00000000000E+00 0.  1.
         23    2    1    2    0    0 -0.21125303402E+02 -0.73347212304E+02 -0.27568365679E+03  0.30023884975E+03  0.91190987964E+02 0.  0.
         24    2    1    2    0    0 -0.34179962392E+02  0.41739225578E+02 -0.50173788466E+02  0.10847683730E+03  0.79620238637E+02 0.  0.
        -13    1    4    4    0    0 -0.50614506312E+02  0.54983892730E+02 -0.35268695874E+02  0.82637386319E+02  0.00000000000E+00 0.  1.
         14    1    4    4    0    0  0.16434543920E+02 -0.13244667153E+02 -0.14905092593E+02  0.25839450982E+02  0.00000000000E+00 0. -1.
        -11    1    3    3    0    0 -0.44589616201E+02 -0.46583533752E+02 -0.24468464727E+03  0.25303919874E+03  0.00000000000E+00 0.  1.
         11    1    3    3    0    0  0.23464312799E+02 -0.26763678551E+02 -0.30999009515E+02  0.47199651012E+02  0.00000000000E+00 0. -1.
         -2    1    1    2    0  502  0.55305265795E+02  0.31607986726E+02  0.26825132023E+02  0.69118195561E+02  0.00000000000E+00 0.  1.
<scales pt_clust_5="13000.00000" pt_clust_6="13000.00000" pt_clust_7="13000.00000" pt_clust_8="13000.00000" pt_clust_9="63.70037"></scales>
<clustering>
<clus scale="   63.700">  1  9  2 -1</clus>
<clus scale="   79.620">  5  6 -1 -1</clus>
<clus scale="   91.191">  7  8 -1 -1</clus>
<clus scale="  102.251">  1  5  2 -1</clus>
<clus scale="   63.700">  1  5  2 -1</clus>
</clustering>
</event>
<event>
 9    2  0.3764910E-005  0.2032955E+03  0.7546771E-02  0.1181294E+00
         -1   -1    0    0    0  501 -0.00000000000E+00  0.00000000000E+00  0.77704489645E+02  0.77704489645E+02  0.00000000000E+00 0.  1.
         21   -1    0    0  501  502  0.00000000000E+00 -0.00000000000E+00 -0.11454594630E+04  0.11454594630E+04  0.00000000000E+00 0. -1.
         23    2    1    2    0    0 -0.12286006435E+02 -0.13420820205E+02 -0.59705615376E+02  0.10966756123E+03  0.90172884561E+02 0.  0.
         24    2    1    2    0    0  0.13689420011E+03 -0.12744697301E+03 -0.82998808088E+03  0.85450458557E+03  0.79467725580E+02 0.  0.
        -13    1    4    4    0    0  0.10204249268E+02 -0.25672077025E+02 -0.44464414833E+02  0.52347554177E+02  0.00000000000E+00 0.  1.
         14    1    4    4    0    0  0.12668995084E+03 -0.10177489598E+03 -0.78552366605E+03  0.80215703139E+03  0.00000000000E+00 0. -1.
        -11    1    3    3    0    0  0.36866436489E+02 -0.26278886905E+01 -0.86063503542E+01  0.37948770794E+02  0.00000000000E+00 0. -1.
         11    1    3    3    0    0 -0.49152442924E+02 -0.10792931514E+02 -0.51099265022E+02  0.71718790438E+02  0.00000000000E+00 0.  1.
         -2    1    1    2    0  502 -0.12460819367E+03  0.14086779321E+03 -0.17806127713E+03  0.25899180587E+03  0.00000000000E+00 0.  1.
<scales pt_clust_5="13000.00000" pt_clust_6="13000.00000" pt_clust_7="13000.00000" pt_clust_8="13000.00000" pt_clust_9="187.12019"></scales>
<clustering>
<clus scale="   79.468">  5  6 -1 -1</clus>
<clus scale="   90.173">  7  8 -1 -1</clus>
<clus scale="   91.990">  1  7  2 -1</clus>
<clus scale="  187.120">  2  9  1 -1</clus>
<clus scale="  187.120">  2  5  1 -1</clus>
</clustering>
</event>
<event>
 9    2  0.3764910E-005  0.9103868E+02  0.7546771E-02  0.1301225E+00
         21   -1    0    0  501  502  0.00000000000E+00  0.00000000000E+00  0.20670731961E+02  0.20670731961E+02  0.00000000000E+00 0. -1.
          2   -1    0    0  502    0 -0.00000000000E+00 -0.00000000000E+00 -0.66396141416E+03  0.66396141416E+03  0.00000000000E+00 0. -1.
         24    2    1    2    0    0 -0.47053024800E+01  0.61101847618E+01 -0.35056444205E+03  0.36154163265E+03  0.88076386634E+02 0.  0.
         23    2    1    2    0    0  0.31416658819E+02 -0.36602684599E+01 -0.27500679330E+03  0.29094276947E+03  0.89546383113E+02 0.  0.
        -13    1    3    3    0    0  0.39018540424E+01 -0.33463048566E+02 -0.65914151934E+02  0.74024830358E+02  0.00000000000E+00 0.  1.
         14    1    3    3    0    0 -0.86071565224E+01  0.39573233327E+02 -0.28465029012E+03  0.28751680230E+03  0.00000000000E+00 0. -1.
        -11    1    4    4    0    0 -0.84986375272E+01 -0.24487271133E+02 -0.22108344386E+02  0.34068052173E+02  0.00000000000E+00 0.  1.
         11    1    4    4    0    0  0.39915296346E+02  0.20827002673E+02 -0.25289844892E+03  0.25687471730E+03  0.00000000000E+00 0. -1.
          1    1    1    2  501    0 -0.26711356339E+02 -0.24499163019E+01 -0.17719446842E+02  0.32147743991E+02  0.00000000000E+00 0. -1.
<scales pt_clust_5="13000.00000" pt_clust_6="13000.00000" pt_clust_7="13000.00000" pt_clust_8="13000.00000" pt_clust_9="26.82347"></scales>
<clustering>
<clus scale="   26.823">  1  9  2 -1</clus>
<clus scale="   88.076">  5  6 -1 -1</clus>
<clus scale="   89.546">  7  8 -1 -1</clus>
<clus scale="   89.593">  2  5  1 -1</clus>
<clus scale="   26.823">  1  5  2 -1</clus>
</clustering>
</event>
<event>
 9    2  0.3764910E-005  0.1070508E+03  0.7546771E-02  0.1272278E+00
         21   -1    0    0  501  502  0.00000000000E+00  0.00000000000E+00  0.50856758347E+03  0.50856758347E+03  0.00000000000E+00 0. -1.
         -1   -1    0    0    0  501 -0.00000000000E+00 -0.00000000000E+00 -0.50691121702E+02  0.50691121702E+02  0.00000000000E+00 0.  1.
         23    2    1    2    0    0 -0.42775465011E+02 -0.47902134753E+02  0.56547635567E+02  0.12481410935E+03  0.90865680452E+02 0.  0.
         24    2    1    2    0    0  0.54199849316E+02 -0.14299747508E+02  0.30365597577E+03  0.31808491026E+03  0.76347574080E+02 0.  0.
        -13    1    4    4    0    0  0.51761066163E+02  0.21259764158E+02  0.14380470802E+03  0.15430806716E+03  0.00000000000E+00 0.  1.
         14    1    4    4    0    0  0.24387831536E+01 -0.35559511666E+02  0.15985126775E+03  0.16377684310E+03  0.00000000000E+00 0. -1.
        -13    1    3    3    0    0 -0.10287362493E+02 -0.35128512437E+02 -0.19255053336E+02  0.41359391825E+02  0.00000000000E+00 0.  1.
         13    1    3    3    0    0 -0.32488102518E+02 -0.12773622316E+02  0.75802688904E+02  0.83454717526E+02  0.00000000000E+00 0. -1.
         -2    1    1    2    0  502 -0.11424384305E+02  0.62201882261E+02  0.97672850434E+02  0.11635968557E+03  0.00000000000E+00 0.  1.
<scales pt_clust_5="13000.00000" pt_clust_6="13000.00000" pt_clust_7="13000.00000" pt_clust_8="13000.00000" pt_clust_9="63.24232"></scales>
<clustering>
<clus scale="   63.242">  1  9  2 -1</clus>
<clus scale="   76.348">  5  6 -1 -1</clus>
<clus scale="   90.866">  7  8 -1 -1</clus>
<clus scale="   95.038">  1  5  2 -1</clus>
<clus scale="   63.242">  1  5  2 -1</clus>
</clustering>
</event>
<event>
 9    2  0.3764910E-005  0.1020286E+03  0.7546771E-02  0.1280536E+00
         21   -1    0    0  501  502  0.00000000000E+00  0.00000000000E+00  0.49973288173E+02  0.49973288173E+02  0.00000000000E+00 0. -1.
          2   -1    0    0  502    0 -0.00000000000E+00 -0.00000000000E+00 -0.33924519906E+03  0.33924519906E+03  0.00000000000E+00 0. -1.
         23    2    1    2    0    0 -0.54397476890E+02 -0.13695059858E+02 -0.18969720193E+03  0.21708547426E+03  0.89411601912E+02 0.  0.
         24    2    1    2    0    0  0.25485758078E+02  0.26690740839E+02 -0.25479885508E+02  0.91542578863E+02  0.79805386209E+02 0.  0.
        -11    1    4    4    0    0 -0.28938322880E+02  0.13239890059E+02 -0.78997189346E+01  0.32789125928E+02  0.00000000000E+00 0.  1.
         12    1    4    4    0    0  0.54424080959E+02  0.13450850780E+02 -0.17580166574E+02  0.58753452934E+02  0.00000000000E+00 0. -1.
        -13    1    3    3    0    0 -0.78243750893E+02 -0.52051756556E+00 -0.13738965704E+03  0.15810842278E+03  0.00000000000E+00 0. -1.
         13    1    3    3    0    0  0.23846274003E+02 -0.13174542292E+02 -0.52307544889E+02  0.58977051475E+02  0.00000000000E+00 0.  1.
          1    1    1    2  501    0  0.28911718812E+02 -0.12995680981E+02 -0.74094823443E+02  0.80590434109E+02  0.00000000000E+00 0. -1.
<scales pt_clust_5="13000.00000" pt_clust_6="13000.00000" pt_clust_7="13000.00000" pt_clust_8="13000.00000" pt_clust_9="31.69821"></scales>
<clustering>
<clus scale="   31.698">  1  9  2 -1</clus>
<clus scale="   79.805">  5  6 -1 -1</clus>
<clus scale="   89.412">  7  8 -1 -1</clus>
<clus scale="   93.725">  1  5  2 -1</clus>
<clus scale="   31.698">  1  5  2 -1</clus>
</clustering>
</event>
<event>
 9    2  0.3764910E-005  0.1060258E+03  0.7546771E-02  0.1270822E+00
         21   -1    0    0  501  502  0.00000000000E+00  0.00000000000E+00  0.14446436480E+03  0.14446436480E+03  0.00000000000E+00 0.  1.
          2   -1    0    0  502    0 -0.00000000000E+00 -0.00000000000E+00 -0.24302323781E+03  0.24302323781E+03  0.00000000000E+00 0. -1.
         24    2    1    2    0    0 -0.35013433165E+02 -0.42873290153E+02 -0.19817408631E+03  0.22265777322E+03  0.85084992689E+02 0.  0.
         23    2    1    2    0    0  0.39559344136E+02  0.21335469018E+02  0.56689698251E+02  0.11658935999E+03  0.91428731970E+02 0.  0.
        -13    1    3    3    0    0 -0.59608136304E+02 -0.33024588193E+02 -0.10028586625E+03  0.12124771465E+03  0.00000000000E+00 0.  1.
         14    1    3    3    0    0  0.24594703138E+02 -0.98487019596E+01 -0.97888220053E+02  0.10141005856E+03  0.00000000000E+00 0. -1.
        -11    1    4    4    0    0  0.64923545488E+02  0.66959884199E+01  0.57942517664E+02  0.87276791719E+02  0.00000000000E+00 0.  1.
         11    1    4    4    0    0 -0.25364201352E+02  0.14639480598E+02 -0.12528194133E+01  0.29312568275E+02  0.00000000000E+00 0. -1.
          1    1    1    2  501    0 -0.45459109703E+01  0.21537821134E+02  0.42925515044E+02  0.48240469396E+02  0.00000000000E+00 0. -1.
<scales pt_clust_5="13000.00000" pt_clust_6="13000.00000" pt_clust_7="13000.00000" pt_clust_8="13000.00000" pt_clust_9="22.01234"></scales>
<clustering>
<clus scale="   22.012">  1  9  2 -1</clus>
<clus scale="   85.085">  5  6 -1 -1</clus>
<clus scale="   91.429">  7  8 -1 -1</clus>
<clus scale="  100.607">  2  5  1 -1</clus>
<clus scale="   22.012">  1  5  2 -1</clus>
</clustering>
</event>
<event>
 9    2  0.3764910E-005  0.1812741E+03  0.7546771E-02  0.1167780E+00
         21   -1    0    0  501  502  0.00000000000E+00  0.00000000000E+00  0.65471704336E+03  0.65471704336E+03  0.00000000000E+00 0. -1.
         -3   -1    0    0    0  501 -0.00000000000E+00 -0.00000000000E+00 -0.10557959650E+03  0.10557959650E+03  0.00000000000E+00 0.  1.
         23    2    1    2    0    0 -0.31814408856E+02  0.16989159100E+03  0.18359017279E+03  0.26787217535E+03  0.90414829985E+02 0.  0.
         24    2    1    2    0    0  0.56982240795E+02 -0.11860491383E+03  0.39797347725E+03  0.42673426986E+03  0.80032163106E+02 0.  0.
        -11    1    4    4    0    0  0.59653427049E+02 -0.32780664035E+02  0.18273879263E+03  0.19500402464E+03  0.00000000000E+00 0.  1.
         12    1    4    4    0    0 -0.26711862539E+01 -0.85824249797E+02  0.21523468461E+03  0.23173024522E+03  0.00000000000E+00 0. -1.
        -13    1    3    3    0    0 -0.58858498916E+02  0.77987501533E+02  0.10957991857E+03  0.14681325500E+03  0.00000000000E+00 0.  1.
         13    1    3    3    0    0  0.27044090060E+02  0.91904089462E+02  0.74010254223E+02  0.12105892035E+03  0.00000000000E+00 0. -1.
         -4    1    1    2    0  502 -0.25167831939E+02 -0.51286677163E+02 -0.32426203184E+02  0.65690194640E+02  0.00000000000E+00 0.  1.
<scales pt_clust_5="13000.00000" pt_clust_6="13000.00000" pt_clust_7="13000.00000" pt_clust_8="13000.00000" pt_clust_9="57.12921"></scales>
<clustering>
<clus scale="   57.129">  1  9  2 -1</clus>
<clus scale="   80.032">  5  6 -1 -1</clus>
<clus scale="   90.415">  7  8 -1 -1</clus>
<clus scale="  176.325">  1  5  2 -1</clus>
<clus scale="   57.129">  1  5  2 -1</clus>
</clustering>
</event>
<event>
 9    2  0.3764910E-005  0.1105783E+03  0.7546771E-02  0.1264359E+00
         -1   -1    0    0    0  501 -0.00000000000E+00  0.00000000000E+00  0.11908654294E+04  0.11908654294E+04  0.00000000000E+00 0.  1.
         21   -1    0    0  501  502  0.00000000000E+00 -0.00000000000E+00 -0.66128145098E+02  0.66128145098E+02  0.00000000000E+00 0. -1.
         23    2    1    2    0    0  0.61532691724E+02 -0.34419787413E+02  0.39792583950E+03  0.41433408850E+03  0.91415366517E+02 0.  0.
         24    2    1    2    0    0  0.31532181818E+02  0.60477264432E+02 -0.50196054634E+01  0.10447471988E+03  0.78980963857E+02 0.  0.
        -13    1    4    4    0    0  0.18843412664E+02  0.18252308051E+02  0.35804529577E+02  0.44386769293E+02  0.00000000000E+00 0.  1.
         14    1    4    4    0    0  0.12688769155E+02  0.42224956381E+02 -0.40824135041E+02  0.60087950588E+02  0.00000000000E+00 0. -1.
        -13    1    3    3    0    0  0.85365479343E+02 -0.26618575769E+02  0.33095585121E+03  0.34282297048E+03  0.00000000000E+00 0.  1.
         13    1    3    3    0    0 -0.23832787619E+02 -0.78012116440E+01  0.66969988290E+02  0.71511118019E+02  0.00000000000E+00 0. -1.
         -2    1    1    2    0  502 -0.93064873542E+02 -0.26057477018E+02  0.73183105027E+03  0.73818476612E+03  0.00000000000E+00 0.  1.
<scales pt_clust_5="13000.00000" pt_clust_6="13000.00000" pt_clust_7="13000.00000" pt_clust_8="13000.00000" pt_clust_9="96.64405"></scales>
<clustering>
<clus scale="   78.981">  5  6 -1 -1</clus>
<clus scale="   91.415">  7  8 -1 -1</clus>
<clus scale="   96.644">  2  9  1 -1</clus>
<clus scale="  100.542">  2  5  1 -1</clus>
<clus scale="   96.644">  2  5  1 -1</clus>
</clustering>
</event>
<event>
 9    2  0.3764910E-005  0.9342304E+02  0.7546771E-02  0.1299918E+00
         21   -1    0    0  501  502  0.00000000000E+00  0.00000000000E+00  0.62756935368E+02  0.62756935368E+02  0.00000000000E+00 0.  1.
          2   -1    0    0  502    0 -0.00000000000E+00 -0.00000000000E+00 -0.24821654793E+03  0.24821654793E+03  0.00000000000E+00 0. -1.
         24    2    1    2    0    0  0.17913113724E+02  0.14926956984E+01 -0.12795867044E+03  0.15311987284E+03  0.82153309937E+02 0.  0.
         23    2    1    2    0    0 -0.23953547838E+02  0.25634785262E+02 -0.76755148161E+02  0.12404367823E+03  0.90909662140E+02 0.  0.
        -13    1    3    3    0    0  0.14153463575E+01 -0.36568002657E+02 -0.32132529859E+02  0.48700323395E+02  0.00000000000E+00 0.  1.
         14    1    3    3    0    0  0.16497767367E+02  0.38060698355E+02 -0.95826140578E+02  0.10441954944E+03  0.00000000000E+00 0. -1.
        -13    1    4    4    0    0  0.34028922749E+01  0.53071520073E+02 -0.64091493477E+02  0.83281963563E+02  0.00000000000E+00 0. -1.
         13    1    4    4    0    0 -0.27356440113E+02 -0.27436734811E+02 -0.12663654684E+02  0.40761714668E+02  0.00000000000E+00 0.  1.
          1    1    1    2  501    0  0.60404341137E+01 -0.27127480961E+02  0.19254206035E+02  0.33809932233E+02  0.00000000000E+00 0. -1.
<scales pt_clust_5="13000.00000" pt_clust_6="13000.00000" pt_clust_7="13000.00000" pt_clust_8="13000.00000" pt_clust_9="27.79185"></scales>
<clustering>
<clus scale="   27.792">  1  9  2 -1</clus>
<clus scale="   82.153">  5  6 -1 -1</clus>
<clus scale="   84.926">  2  5  1 -1</clus>
<clus scale="   90.910">  7  8 -1 -1</clus>
<clus scale="   27.792">  1  5  2 -1</clus>
</clustering>
</event>
<event>
 9    2  0.3764910E-005  0.2910900E+03  0.7546771E-02  0.1135146E+00
          2   -1    0    0  502    0 -0.00000000000E+00  0.00000000000E+00  0.11348197806E+04  0.11348197806E+04  0.00000000000E+00 0. -1.
         21   -1    0    0  501  502  0.00000000000E+00 -0.00000000000E+00 -0.22945737204E+03  0.22945737204E+03  0.00000000000E+00 0. -1.
         23    2    1    2    0    0  0.19392966877E+02  0.17690551791E+01  0.31420767925E+02  0.97310395809E+02  0.90015730597E+02 0.  0.
         24    2    1    2    0    0 -0.28565721375E+03  0.80021026190E+02  0.93308848412E+03  0.98221315164E+03  0.78007356393E+02 0.  0.
        -13    1    4    4    0    0 -0.71258265250E+02 -0.13757022011E+01  0.14717998212E+03  0.16352852981E+03  0.00000000000E+00 0.  1.
         14    1    4    4    0    0 -0.21439894850E+03  0.81396728391E+02  0.78590850200E+03  0.81868462183E+03  0.00000000000E+00 0. -1.
        -11    1    3    3    0    0 -0.21436435313E+02  0.27155011011E+02 -0.75630724460E+01  0.35413492439E+02  0.00000000000E+00 0. -1.
         11    1    3    3    0    0  0.40829402190E+02 -0.25385955832E+02  0.38983840371E+02  0.61896903370E+02  0.00000000000E+00 0.  1.
          1    1    1    2  501    0  0.26626424688E+03 -0.81790081369E+02 -0.59146843487E+02  0.28475360519E+03  0.00000000000E+00 0. -1.
<scales pt_clust_5="13000.00000" pt_clust_6="13000.00000" pt_clust_7="13000.00000" pt_clust_8="13000.00000" pt_clust_9="280.44298"></scales>
<clustering>
<clus scale="   78.007">  5  6 -1 -1</clus>
<clus scale="   90.016">  7  8 -1 -1</clus>
<clus scale="   92.098">  1  7  2 -1</clus>
<clus scale="  280.443">  2  9  1 -1</clus>
<clus scale="  280.443">  2  5  1 -1</clus>
</clustering>
</event>
<event>
 9    2  0.4237404E-005  0.9097016E+02  0.7546771E-02  0.1309359E+00
         21   -1    0    0  501  502  0.00000000000E+00  0.00000000000E+00  0.11669711431E+03  0.11669711431E+03  0.00000000000E+00 0.  1.
         -1   -1    0    0    0  501 -0.00000000000E+00 -0.00000000000E+00 -0.61600829358E+03  0.61600829358E+03  0.00000000000E+00 0.  1.
         24    2    1    2    0    0  0.10538459255E+02 -0.17263983298E+02 -0.52438815273E+03  0.53020823101E+03  0.75688369402E+02 0.  0.
         23    2    1    2    0    0 -0.17630810349E+00 -0.24437405046E+02 -0.57666108886E+02  0.10926200302E+03  0.89529812575E+02 0.  0.
        -11    1    3    3    0    0  0.16441721739E+02 -0.33293508345E+02 -0.12362252334E+03  0.12907872089E+03  0.00000000000E+00 0.  1.
         12    1    3    3    0    0 -0.59032624841E+01  0.16029525047E+02 -0.40076562940E+03  0.40112951012E+03  0.00000000000E+00 0. -1.
        -13    1    4    4    0    0 -0.44714930766E+02 -0.15783687629E+02 -0.28493844937E+02  0.55321325254E+02  0.00000000000E+00 0. -1.
         13    1    4    4    0    0  0.44538622662E+02 -0.86537174163E+01 -0.29172263949E+02  0.53940677765E+02  0.00000000000E+00 0.  1.
         -2    1    1    2    0  502 -0.10362151152E+02  0.41701388344E+02  0.82743082352E+02  0.93235173853E+02  0.00000000000E+00 0.  1.
<scales pt_clust_5="13000.00000" pt_clust_6="13000.00000" pt_clust_7="13000.00000" pt_clust_8="13000.00000" pt_clust_9="42.96952"></scales>
<clustering>
<clus scale="   42.970">  1  9  2 -1</clus>
<clus scale="   75.688">  5  6 -1 -1</clus>
<clus scale="   77.387">  2  5  1 -1</clus>
<clus scale="   89.530">  7  8 -1 -1</clus>
<clus scale="   42.970">  1  5  2 -1</clus>
</clustering>
</event>
<event>
 9    2  0.3764910E-005  0.9853369E+02  0.7546771E-02  0.1289967E+00
         -1   -1    0    0    0  501 -0.00000000000E+00  0.00000000000E+00  0.25339924871E+03  0.25339924871E+03  0.00000000000E+00 0.  1.
         21   -1    0    0  501  502  0.00000000000E+00 -0.00000000000E+00 -0.87262143981E+02  0.87262143981E+02  0.00000000000E+00 0.  1.
         23    2    1    2    0    0  0.23980570214E+02 -0.97711770208E+01  0.15390086227E+03  0.18143814141E+03  0.92540694315E+02 0.  0.
         24    2    1    2    0    0 -0.47443027062E+02  0.14007700753E+02  0.55812435178E+02  0.10955113046E+03  0.80245658873E+02 0.  0.
        -13    1    4    4    0    0 -0.57252721558E+02 -0.15355742395E+02  0.51048518995E+02  0.78228027215E+02  0.00000000000E+00 0.  1.
         14    1    4    4    0    0  0.98096944965E+01  0.29363443149E+02  0.47639161831E+01  0.31323103247E+02  0.00000000000E+00 0. -1.
        -13    1    3    3    0    0  0.45862375303E+02 -0.30227632509E+02  0.53548665211E+02  0.76710669280E+02  0.00000000000E+00 0.  1.
         13    1    3    3    0    0 -0.21881805089E+02  0.20456455488E+02  0.10035219706E+03  0.10472747213E+03  0.00000000000E+00 0. -1.
         -2    1    1    2    0  502  0.23462456848E+02 -0.42365237325E+01 -0.43576192717E+02  0.49672120816E+02  0.00000000000E+00 0.  1.
<scales pt_clust_5="13000.00000" pt_clust_6="13000.00000" pt_clust_7="13000.00000" pt_clust_8="13000.00000" pt_clust_9="23.84188"></scales>
<clustering>
<clus scale="   23.842">  2  9  1 -1</clus>
<clus scale="   80.246">  5  6 -1 -1</clus>
<clus scale="   87.089">  2  5  1 -1</clus>
<clus scale="   92.541">  7  8 -1 -1</clus>
<clus scale="   23.842">  2  5  1 -1</clus>
</clustering>
</event>
<event>
 9    2  0.3764910E-005  0.1903993E+03  0.7546771E-02  0.1158756E+00
         21   -1    0    0  501  502  0.00000000000E+00  0.00000000000E+00  0.12125856184E+03  0.12125856184E+03  0.00000000000E+00 0.  1.
          2   -1    0    0  502    0 -0.00000000000E+00 -0.00000000000E+00 -0.71036227565E+03  0.71036227565E+03  0.00000000000E+00 0. -1.
         23    2    1    2    0    0 -0.89965184537E+02  0.14222048113E+03 -0.59331415697E+03  0.62324662174E+03  0.89968121949E+02 0.  0.
         24    2    1    2    0    0  0.10492475253E+03 -0.12852988776E+03 -0.54523696407E+01  0.18591111328E+03  0.83690369616E+02 0.  0.
        -11    1    4    4    0    0  0.10809423053E+03 -0.13816551581E+03 -0.28910862844E+01  0.17544922574E+03  0.00000000000E+00 0.  1.
         12    1    4    4    0    0 -0.31694779940E+01  0.96356280483E+01 -0.25612833562E+01  0.10461887548E+02  0.00000000000E+00 0. -1.
        -11    1    3    3    0    0 -0.27383360619E+02  0.83120802982E+02 -0.42810238339E+03  0.43695602409E+03  0.00000000000E+00 0. -1.
         11    1    3    3    0    0 -0.62581823918E+02  0.59099678146E+02 -0.16521177358E+03  0.18629059765E+03  0.00000000000E+00 0.  1.
          1    1    1    2  501    0 -0.14959567995E+02 -0.13690593369E+02  0.96628127992E+01  0.22463102470E+02  0.00000000000E+00 0. -1.
<scales pt_clust_5="13000.00000" pt_clust_6="13000.00000" pt_clust_7="13000.00000" pt_clust_8="13000.00000" pt_clust_9="20.27859"></scales>
<clustering>
<clus scale="   20.279">  1  9  2 -1</clus>
<clus scale="   83.690">  5  6 -1 -1</clus>
<clus scale="   89.968">  7  8 -1 -1</clus>
<clus scale="  187.515">  1  5  2 -1</clus>
<clus scale="   20.279">  1  5  2 -1</clus>
</clustering>
</event>
<event>
 9    2  0.3764910E-005  0.1001032E+03  0.7546771E-02  0.1288920E+00
          2   -1    0    0  502    0 -0.00000000000E+00  0.00000000000E+00  0.18262804324E+03  0.18262804324E+03  0.00000000000E+00 0. -1.
         21   -1    0    0  501  502  0.00000000000E+00 -0.00000000000E+00 -0.33000207697E+03  0.33000207697E+03  0.00000000000E+00 0. -1.
         24    2    1    2    0    0  0.31271519828E+01  0.33723386264E+02  0.70086556354E+02  0.11238119398E+03  0.81057766557E+02 0.  0.
         23    2    1    2    0    0 -0.29169195756E+02 -0.16085335272E+01  0.61300656183E+02  0.11843802468E+03  0.97037961031E+02 0.  0.
        -11    1    3    3    0    0  0.38079087820E+02  0.30201977814E+02  0.56966279463E+02  0.74882129970E+02  0.00000000000E+00 0.  1.
         12    1    3    3    0    0 -0.34951935837E+02  0.35214084505E+01  0.13120276891E+02  0.37499064014E+02  0.00000000000E+00 0. -1.
        -11    1    4    4    0    0  0.33817403589E+02 -0.14147799041E+02  0.27773502947E+02  0.45990699812E+02  0.00000000000E+00 0.  1.
         11    1    4    4    0    0 -0.62986599345E+02  0.12539265514E+02  0.33527153236E+02  0.72447324870E+02  0.00000000000E+00 0. -1.
          1    1    1    2  501    0  0.26042043773E+02 -0.32114852737E+02 -0.27876124626E+03  0.28181090154E+03  0.00000000000E+00 0. -1.
<scales pt_clust_5="13000.00000" pt_clust_6="13000.00000" pt_clust_7="13000.00000" pt_clust_8="13000.00000" pt_clust_9="41.34673"></scales>
<clustering>
<clus scale="   41.347">  2  9  1 -1</clus>
<clus scale="   81.058">  5  6 -1 -1</clus>
<clus scale="   84.703">  1  5  2 -1</clus>
<clus scale="   97.038">  7  8 -1 -1</clus>
<clus scale="   41.347">  2  5  1 -1</clus>
</clustering>
</event>
<event>
 9    2  0.3764910E-005  0.1276839E+03  0.7546771E-02  0.1234477E+00
         21   -1    0    0  501  502  0.00000000000E+00  0.00000000000E+00  0.29700778982E+03  0.29700778982E+03  0.00000000000E+00 0.  1.
          2   -1    0    0  502    0 -0.00000000000E+00 -0.00000000000E+00 -0.19193682900E+03  0.19193682900E+03  0.00000000000E+00 0. -1.
         23    2    1    2    0    0  0.23177604380E+02 -0.81809588909E+02 -0.12902782247E+03  0.18029350512E+03  0.92884653393E+02 0.  0.
         24    2    1    2    0    0 -0.43860750740E+02  0.90090026927E+02  0.76244784352E+02  0.14923266062E+03  0.80107062408E+02 0.  0.
        -13    1    4    4    0    0 -0.65343829576E+02  0.56310742117E+02  0.39422855952E+02  0.94841327030E+02  0.00000000000E+00 0.  1.
         14    1    4    4    0    0  0.21483078836E+02  0.33779284810E+02  0.36821928400E+02  0.54391333589E+02  0.00000000000E+00 0. -1.
        -13    1    3    3    0    0 -0.27237085443E+02  0.18208789045E+01 -0.38051490122E+02  0.46830442277E+02  0.00000000000E+00 0.  1.
         13    1    3    3    0    0  0.50414689823E+02 -0.83630467814E+02 -0.90976332350E+02  0.13346306285E+03  0.00000000000E+00 0. -1.
          1    1    1    2  501    0  0.20683146360E+02 -0.82804380176E+01  0.15785399894E+03  0.15941845307E+03  0.00000000000E+00 0. -1.
<scales pt_clust_5="13000.00000" pt_clust_6="13000.00000" pt_clust_7="13000.00000" pt_clust_8="13000.00000" pt_clust_9="22.27910"></scales>
<clustering>
<clus scale="   22.279">  1  9  2 -1</clus>
<clus scale="   80.107">  5  6 -1 -1</clus>
<clus scale="   92.885">  7  8 -1 -1</clus>
<clus scale="  118.713">  1  5  2 -1</clus>
<clus scale="   22.279">  1  5  2 -1</clus>
</clustering>
</event>
<event>
 9    2  0.3764910E-005  0.9741056E+02  0.7546771E-02  0.1292197E+00
         21   -1    0    0  501  502  0.00000000000E+00  0.00000000000E+00  0.50573500492E+02  0.50573500492E+02  0.00000000000E+00 0.  1.
         -3   -1    0    0    0  501 -0.00000000000E+00 -0.00000000000E+00 -0.53472605653E+03  0.53472605653E+03  0.00000000000E+00 0.  1.
         24    2    1    2    0    0  0.27000219816E+02 -0.11114197260E+01 -0.29006419954E+03  0.30177706827E+03  0.78752218708E+02 0.  0.
         23    2    1    2    0    0 -0.50888751484E+02  0.70547431105E+02 -0.15754380613E+03  0.20150099290E+03  0.90642121694E+02 0.  0.
        -13    1    3    3    0    0 -0.21824615002E+02  0.20374690116E+02 -0.10960643906E+03  0.11360023460E+03  0.00000000000E+00 0.  1.
         14    1    3    3    0    0  0.48824834819E+02 -0.21486109842E+02 -0.18045776048E+03  0.18817683367E+03  0.00000000000E+00 0. -1.
        -11    1    4    4    0    0 -0.88268760308E+01  0.61225886004E+02 -0.33840817991E+02  0.70510451848E+02  0.00000000000E+00 0.  1.
         11    1    4    4    0    0 -0.42061875453E+02  0.93215451006E+01 -0.12370298814E+03  0.13099054105E+03  0.00000000000E+00 0. -1.
         -4    1    1    2    0  502  0.23888531667E+02 -0.69436011379E+02 -0.36544550363E+02  0.82021495857E+02  0.00000000000E+00 0.  1.
<scales pt_clust_5="13000.00000" pt_clust_6="13000.00000" pt_clust_7="13000.00000" pt_clust_8="13000.00000" pt_clust_9="73.43039"></scales>
<clustering>
<clus scale="   73.430">  1  9  2 -1</clus>
<clus scale="   78.752">  5  6 -1 -1</clus>
<clus scale="   86.457">  2  5  1 -1</clus>
<clus scale="   90.642">  7  8 -1 -1</clus>
<clus scale="   73.430">  1  5  2 -1</clus>
</clustering>
</event>
<event>
 9    2  0.3764910E-005  0.1045240E+03  0.7546771E-02  0.1273348E+00
         21   -1    0    0  501  502  0.00000000000E+00  0.00000000000E+00  0.83924376004E+02  0.83924376004E+02  0.00000000000E+00 0. -1.
          2   -1    0    0  502    0 -0.00000000000E+00 -0.00000000000E+00 -0.46869698244E+03  0.46869698244E+03  0.00000000000E+00 0. -1.
         23    2    1    2    0    0 -0.37759923913E+02  0.26541121570E+02 -0.27571186669E+03  0.29340530331E+03  0.89103286056E+02 0.  0.
         24    2    1    2    0    0  0.62071348272E+02 -0.34040423912E+02 -0.16479139201E+03  0.19795276684E+03  0.83770473795E+02 0.  0.
        -13    1    4    4    0    0  0.29477017278E+02  0.20470455597E+02 -0.23104384768E+02  0.42681924692E+02  0.00000000000E+00 0.  1.
         14    1    4    4    0    0  0.32594330994E+02 -0.54510879508E+02 -0.14168700725E+03  0.15527084214E+03  0.00000000000E+00 0. -1.
        -13    1    3    3    0    0 -0.36665576944E+01  0.51328006915E+02 -0.20240383639E+03  0.20884281392E+03  0.00000000000E+00 0.  1.
         13    1    3    3    0    0 -0.34093366219E+02 -0.24786885345E+02 -0.73308030303E+02  0.84562489392E+02  0.00000000000E+00 0. -1.
          1    1    1    2  501    0 -0.24311424359E+02  0.74993023417E+01  0.55730652274E+02  0.61263288296E+02  0.00000000000E+00 0. -1.
<scales pt_clust_5="13000.00000" pt_clust_6="13000.00000" pt_clust_7="13000.00000" pt_clust_8="13000.00000" pt_clust_9="25.44179"></scales>
<clustering>
<clus scale="   25.442">  1  9  2 -1</clus>
<clus scale="   83.770">  5  6 -1 -1</clus>
<clus scale="   89.103">  7  8 -1 -1</clus>
<clus scale="  100.017">  1  5  2 -1</clus>
<clus scale="   25.442">  1  5  2 -1</clus>
</clustering>
</event>
<event>
 9    2  0.3764910E-005  0.1097647E+03  0.7546771E-02  0.1264127E+00
          2   -1    0    0  502    0 -0.00000000000E+00  0.00000000000E+00  0.10371392520E+04  0.10371392520E+04  0.00000000000E+00 0. -1.
         21   -1    0    0  501  502  0.00000000000E+00 -0.00000000000E+00 -0.25957926533E+02  0.25957926533E+02  0.00000000000E+00 0.  1.
         23    2    1    2    0    0  0.14033971422E+02 -0.64756768943E+02  0.48218365011E+03  0.49477312030E+03  0.88932427524E+02 0.  0.
         24    2    1    2    0    0 -0.85716269151E+02  0.27286913777E+02  0.24768299868E+03  0.27561210226E+03  0.80767002027E+02 0.  0.
        -13    1    4    4    0    0 -0.31215987639E+02  0.49444111297E+02  0.90163261106E+02  0.10746428095E+03  0.00000000000E+00 0.  1.
         14    1    4    4    0    0 -0.54500281513E+02 -0.22157197520E+02  0.15751973758E+03  0.16814782132E+03  0.00000000000E+00 0. -1.
        -13    1    3    3    0    0 -0.22419409234E+02 -0.69615677783E+02  0.35059060352E+03  0.35813788375E+03  0.00000000000E+00 0.  1.
         13    1    3    3    0    0  0.36453380657E+02  0.48589088401E+01  0.13159304659E+03  0.13663523655E+03  0.00000000000E+00 0. -1.
          1    1    1    2  501    0  0.71682297729E+02  0.37469855166E+02  0.28131467672E+03  0.29271195601E+03  0.00000000000E+00 0. -1.
<scales pt_clust_5="13000.00000" pt_clust_6="13000.00000" pt_clust_7="13000.00000" pt_clust_8="13000.00000" pt_clust_9="80.88478"></scales>
<clustering>
<clus scale="   80.767">  5  6 -1 -1</clus>
<clus scale="   80.885">  2  9  1 -1</clus>
<clus scale="   88.932">  7  8 -1 -1</clus>
<clus scale="  103.260">  2  5  1 -1</clus>
<clus scale="   80.885">  2  5  1 -1</clus>
</clustering>
</event>
<event>
 9    2  0.3764910E-005  0.9608163E+02  0.7546771E-02  0.1289246E+00
         -1   -1    0    0    0  501 -0.00000000000E+00  0.00000000000E+00  0.75467954655E+02  0.75467954655E+02  0.00000000000E+00 0.  1.
         21   -1    0    0  501  502  0.00000000000E+00 -0.00000000000E+00 -0.49846274199E+03  0.49846274199E+03  0.00000000000E+00 0. -1.
         24    2    1    2    0    0 -0.56527147662E+01  0.14041128475E+02 -0.17850366254E+03  0.19984051872E+03  0.88563925553E+02 0.  0.
         23    2    1    2    0    0  0.39792137950E+02 -0.53394086906E+02 -0.28631547868E+03  0.30728125538E+03  0.89503484941E+02 0.  0.
        -11    1    3    3    0    0 -0.13566223676E+02  0.45907813048E+02 -0.59371231903E+02  0.76266066513E+02  0.00000000000E+00 0.  1.
         12    1    3    3    0    0  0.79135089098E+01 -0.31866684573E+02 -0.11913243064E+03  0.12357445221E+03  0.00000000000E+00 0. -1.
        -11    1    4    4    0    0 -0.23731376658E+02 -0.40185531167E+02 -0.12139462923E+03  0.13005656907E+03  0.00000000000E+00 0.  1.
         11    1    4    4    0    0  0.63523514608E+02 -0.13208555739E+02 -0.16492084946E+03  0.17722468631E+03  0.00000000000E+00 0. -1.
         -2    1    1    2    0  502 -0.34139423184E+02  0.39352958431E+02  0.41824353891E+02  0.66808922540E+02  0.00000000000E+00 0.  1.
<scales pt_clust_5="13000.00000" pt_clust_6="13000.00000" pt_clust_7="13000.00000" pt_clust_8="13000.00000" pt_clust_9="52.09758"></scales>
<clustering>
<clus scale="   52.098">  2  9  1 -1</clus>
<clus scale="   88.564">  5  6 -1 -1</clus>
<clus scale="   89.503">  7  8 -1 -1</clus>
<clus scale="   95.207">  1  5  2 -1</clus>
<clus scale="   52.098">  2  5  1 -1</clus>
</clustering>
</event>
<event>
 9    2  0.3764910E-005  0.8881176E+02  0.7546771E-02  0.1334386E+00
         21   -1    0    0  501  502  0.00000000000E+00  0.00000000000E+00  0.14474789197E+03  0.14474789197E+03  0.00000000000E+00 0. -1.
          4   -1    0    0  502    0 -0.00000000000E+00 -0.00000000000E+00 -0.36769092481E+03  0.36769092481E+03  0.00000000000E+00 0. -1.
         23    2    1    2    0    0 -0.96251494559E+01  0.86444517904E+01 -0.34534830621E+03  0.35652814819E+03  0.87632743904E+02 0.  0.
         24    2    1    2    0    0  0.12968378420E+02 -0.31041666515E+02  0.47213649167E+02  0.77383012597E+02  0.51256590523E+02 0.  0.
        -13    1    4    4    0    0  0.64695813863E+01 -0.31940518201E+02  0.56966102042E+02  0.65629177720E+02  0.00000000000E+00 0.  1.
         14    1    4    4    0    0  0.64987970339E+01  0.89885168564E+00 -0.97524528755E+01  0.11753834878E+02  0.00000000000E+00 0. -1.
        -13    1    3    3    0    0  0.34197666400E+02  0.22904379761E+02 -0.13239214923E+03  0.13864260592E+03  0.00000000000E+00 0.  1.
         13    1    3    3    0    0 -0.43822815856E+02 -0.14259927970E+02 -0.21295615698E+03  0.21788554227E+03  0.00000000000E+00 0. -1.
          3    1    1    2  501    0 -0.33432289643E+01  0.22397214725E+02  0.75191624191E+02  0.78527655994E+02  0.00000000000E+00 0. -1.
<scales pt_clust_5="13000.00000" pt_clust_6="13000.00000" pt_clust_7="13000.00000" pt_clust_8="13000.00000" pt_clust_9="22.64536"></scales>
<clustering>
<clus scale="   22.645">  1  9  2 -1</clus>
<clus scale="   51.257">  5  6 -1 -1</clus>
<clus scale="   53.247">  1  5  2 -1</clus>
<clus scale="   87.633">  7  8 -1 -1</clus>
<clus scale="   22.645">  1  5  2 -1</clus>
</clustering>
</event>
<event>
 9    2  0.3764910E-005  0.1893794E+03  0.7546771E-02  0.1187803E+00
          2   -1    0    0  502    0 -0.00000000000E+00  0.00000000000E+00  0.12000177658E+04  0.12000177658E+04  0.00000000000E+00 0. -1.
         21   -1    0    0  501  502  0.00000000000E+00 -0.00000000000E+00 -0.53173953055E+02  0.53173953055E+02  0.00000000000E+00 0. -1.
         23    2    1    2    0    0 -0.35138431031E+02 -0.19952628116E+02  0.34497441826E+03  0.35873906901E+03  0.89741593918E+02 0.  0.
         24    2    1    2    0    0 -0.77635481689E+02  0.15102483935E+03  0.59910754142E+03  0.62797516674E+03  0.81161528661E+02 0.  0.
        -11    1    4    4    0    0 -0.13012823209E+02  0.18942829934E+02  0.19919486713E+02  0.30412995984E+02  0.00000000000E+00 0.  1.
         12    1    4    4    0    0 -0.64622658479E+02  0.13208200942E+03  0.57918805471E+03  0.59756217076E+03  0.00000000000E+00 0. -1.
        -11    1    3    3    0    0 -0.24908667601E+02  0.26628292061E+02  0.63256599004E+02  0.73013046624E+02  0.00000000000E+00 0. -1.
         11    1    3    3    0    0 -0.10229763430E+02 -0.46580920177E+02  0.28171781926E+03  0.28572602239E+03  0.00000000000E+00 0.  1.
          1    1    1    2  501    0  0.11277391272E+03 -0.13107221123E+03  0.20276185310E+03  0.26647748314E+03  0.00000000000E+00 0. -1.
<scales pt_clust_5="13000.00000" pt_clust_6="13000.00000" pt_clust_7="13000.00000" pt_clust_8="13000.00000" pt_clust_9="171.10625"></scales>
<clustering>
<clus scale="   81.162">  5  6 -1 -1</clus>
<clus scale="   89.742">  7  8 -1 -1</clus>
<clus scale="   98.419">  1  7  2 -1</clus>
<clus scale="  171.106">  2  9  1 -1</clus>
<clus scale="  171.106">  2  5  1 -1</clus>
</clustering>
</event>
<event>
 9    2  0.3764910E-005  0.1483555E+03  0.7546771E-02  0.1204216E+00
         -1   -1    0    0    0  501 -0.00000000000E+00  0.00000000000E+00  0.26705534651E+02  0.26705534651E+02  0.00000000000E+00 0.  1.
         21   -1    0    0  501  502  0.00000000000E+00 -0.00000000000E+00 -0.14731803587E+04  0.14731803587E+04  0.00000000000E+00 0.  1.
         23    2    1    2    0    0 -0.52991225935E+01  0.74307197939E+02 -0.51458241205E+03  0.52772840328E+03  0.90291574770E+02 0.  0.
         24    2    1    2    0    0  0.11029408773E+02 -0.16413068713E+03 -0.54925335278E+03  0.57907512589E+03  0.81167885069E+02 0.  0.
        -11    1    4    4    0    0  0.27741598175E+02 -0.10952072861E+03 -0.45545465905E+03  0.46925827933E+03  0.00000000000E+00 0.  1.
         12    1    4    4    0    0 -0.16712189402E+02 -0.54609958511E+02 -0.93798693732E+02  0.10981684656E+03  0.00000000000E+00 0. -1.
        -11    1    3    3    0    0  0.13146950605E+02  0.85870301358E+02 -0.47173859256E+03  0.47967056474E+03  0.00000000000E+00 0. -1.
         11    1    3    3    0    0 -0.18446073199E+02 -0.11563103419E+02 -0.42843819492E+02  0.48057838547E+02  0.00000000000E+00 0.  1.
         -2    1    1    2    0  502 -0.57302861792E+01  0.89823489187E+02 -0.38263905917E+03  0.39308236413E+03  0.00000000000E+00 0.  1.
<scales pt_clust_5="13000.00000" pt_clust_6="13000.00000" pt_clust_7="13000.00000" pt_clust_8="13000.00000" pt_clust_9="90.00609"></scales>
<clustering>
<clus scale="   81.168">  5  6 -1 -1</clus>
<clus scale="   90.006">  2  9  1 -1</clus>
<clus scale="   90.292">  7  8 -1 -1</clus>
<clus scale="  142.986">  2  5  1 -1</clus>
<clus scale="   90.006">  2  5  1 -1</clus>
</clustering>
</event>
<event>
 9    2  0.3764910E-005  0.1060598E+03  0.7546771E-02  0.1274990E+00
          2   -1    0    0  502    0 -0.00000000000E+00  0.00000000000E+00  0.40519037362E+03  0.40519037362E+03  0.00000000000E+00 0. -1.
         21   -1    0    0  501  502  0.00000000000E+00 -0.00000000000E+00 -0.40681675270E+02  0.40681675270E+02  0.00000000000E+00 0.  1.
         24    2    1    2    0    0  0.27097453678E+01  0.32815766342E+02  0.12816313984E+03  0.15320197199E+03  0.77206454184E+02 0.  0.
         23    2    1    2    0    0 -0.25464447136E+02 -0.72169472292E+02  0.20425112319E+03  0.23702348308E+03  0.92761734621E+02 0.  0.
        -13    1    3    3    0    0  0.34653941927E+02  0.31757457675E+02  0.49343142739E+02  0.68148202797E+02  0.00000000000E+00 0.  1.
         14    1    3    3    0    0 -0.31944196559E+02  0.10583086667E+01  0.78819997102E+02  0.85053769195E+02  0.00000000000E+00 0. -1.
        -13    1    4    4    0    0 -0.34639198966E+02 -0.91560209142E+02  0.17779129176E+03  0.20296031491E+03  0.00000000000E+00 0.  1.
         13    1    4    4    0    0  0.91747518297E+01  0.19390736849E+02  0.26459831433E+02  0.34063168175E+02  0.00000000000E+00 0. -1.
          1    1    1    2  501    0  0.22754701768E+02  0.39353705950E+02  0.32094435316E+02  0.55646593812E+02  0.00000000000E+00 0. -1.
<scales pt_clust_5="13000.00000" pt_clust_6="13000.00000" pt_clust_7="13000.00000" pt_clust_8="13000.00000" pt_clust_9="45.45867"></scales>
<clustering>
<clus scale="   45.459">  2  9  1 -1</clus>
<clus scale="   77.206">  5  6 -1 -1</clus>
<clus scale="   92.762">  7  8 -1 -1</clus>
<clus scale="   92.762">  1  5  2 -1</clus>
<clus scale="   45.459">  2  5  1 -1</clus>
</clustering>
</event>
<event>
 9    2  0.3764910E-005  0.9440839E+02  0.7546771E-02  0.1295853E+00
         21   -1    0    0  501  502  0.00000000000E+00  0.00000000000E+00  0.26160292501E+02  0.26160292501E+02  0.00000000000E+00 0.  1.
          2   -1    0    0  502    0 -0.00000000000E+00 -0.00000000000E+00 -0.63785897064E+03  0.63785897064E+03  0.00000000000E+00 0. -1.
         24    2    1    2    0    0 -0.16108333607E+02  0.32773621548E+02 -0.43840896044E+03  0.44718416125E+03  0.80235084599E+02 0.  0.
         23    2    1    2    0    0  0.42911783703E+02 -0.25362766678E+02 -0.11518638124E+03  0.15241970454E+03  0.86482210868E+02 0.  0.
        -11    1    3    3    0    0  0.32620578975E+02  0.91911034674E+01 -0.18068995771E+03  0.18384079899E+03  0.00000000000E+00 0.  1.
         12    1    3    3    0    0 -0.48728912582E+02  0.23582518081E+02 -0.25771900274E+03  0.26334336227E+03  0.00000000000E+00 0. -1.
        -13    1    4    4    0    0  0.22284006349E+02 -0.52444403622E+02 -0.39222690408E+02  0.69176671307E+02  0.00000000000E+00 0.  1.
         13    1    4    4    0    0  0.20627777354E+02  0.27081636944E+02 -0.75963690827E+02  0.83243033236E+02  0.00000000000E+00 0. -1.
          1    1    1    2  501    0 -0.26803450096E+02 -0.74108548704E+01 -0.58103336460E+02  0.64415397342E+02  0.00000000000E+00 0. -1.
<scales pt_clust_5="13000.00000" pt_clust_6="13000.00000" pt_clust_7="13000.00000" pt_clust_8="13000.00000" pt_clust_9="27.80909"></scales>
<clustering>
<clus scale="   27.809">  1  9  2 -1</clus>
<clus scale="   80.235">  5  6 -1 -1</clus>
<clus scale="   86.482">  7  8 -1 -1</clus>
<clus scale="   88.721">  2  5  1 -1</clus>
<clus scale="   27.809">  1  5  2 -1</clus>
</clustering>
</event>
<event>
 9    2  0.3764910E-005  0.9088629E+02  0.7546771E-02  0.1310499E+00
          2   -1    0    0  502    0 -0.00000000000E+00  0.00000000000E+00  0.48671866530E+03  0.48671866530E+03  0.00000000000E+00 0. -1.
         21   -1    0    0  501  502  0.00000000000E+00 -0.00000000000E+00 -0.24171146494E+02  0.24171146494E+02  0.00000000000E+00 0.  1.
         24    2    1    2    0    0  0.92392570689E+00 -0.34450559371E+02  0.19694823538E+03  0.21268486761E+03  0.72515865919E+02 0.  0.
         23    2    1    2    0    0 -0.24932327672E+02  0.14930363830E+01  0.21176976953E+03  0.23067555612E+03  0.87982536813E+02 0.  0.
        -13    1    3    3    0    0  0.30500720994E+02 -0.62065692760E+01  0.41075997076E+02  0.51536909289E+02  0.00000000000E+00 0.  1.
         14    1    3    3    0    0 -0.29576795287E+02 -0.28243990095E+02  0.15587223830E+03  0.16114795832E+03  0.00000000000E+00 0. -1.
        -13    1    4    4    0    0  0.24339572800E+02  0.52856480240E+01  0.14757861193E+03  0.14966562591E+03  0.00000000000E+00 0. -1.
         13    1    4    4    0    0 -0.49271900472E+02 -0.37926116410E+01  0.64191157599E+02  0.81009930213E+02  0.00000000000E+00 0.  1.
          1    1    1    2  501    0  0.24008401965E+02  0.32957522988E+02  0.53829513903E+02  0.67529388073E+02  0.00000000000E+00 0. -1.
<scales pt_clust_5="13000.00000" pt_clust_6="13000.00000" pt_clust_7="13000.00000" pt_clust_8="13000.00000" pt_clust_9="40.77501"></scales>
<clustering>
<clus scale="   40.775">  2  9  1 -1</clus>
<clus scale="   72.516">  5  6 -1 -1</clus>
<clus scale="   76.013">  1  5  2 -1</clus>
<clus scale="   87.983">  7  8 -1 -1</clus>
<clus scale="   40.775">  2  5  1 -1</clus>
</clustering>
</event>
<event>
 9    2  0.3764910E-005  0.1618368E+03  0.7546771E-02  0.1187958E+00
         -3   -1    0    0    0  501 -0.00000000000E+00  0.00000000000E+00  0.52332024866E+03  0.52332024866E+03  0.00000000000E+00 0.  1.
         21   -1    0    0  501  502  0.00000000000E+00 -0.00000000000E+00 -0.10935541272E+03  0.10935541272E+03  0.00000000000E+00 0.  1.
         23    2    1    2    0    0 -0.11148128530E+03 -0.30618127764E+02  0.21293658852E+03  0.25899493936E+03  0.91492301127E+02 0.  0.
         24    2    1    2    0    0  0.18577135381E+03 -0.45440246869E+02  0.13966187969E+03  0.25092192714E+03  0.82949146765E+02 0.  0.
        -11    1    4    4    0    0  0.90769442516E+02 -0.64773843963E+02  0.74230054588E+02  0.13395836503E+03  0.00000000000E+00 0.  1.
         12    1    4    4    0    0  0.95001911293E+02  0.19333597094E+02  0.65431825100E+02  0.11696356211E+03  0.00000000000E+00 0. -1.
        -11    1    3    3    0    0 -0.32934299393E+02 -0.44399127395E+02  0.14155932405E+03  0.15197036822E+03  0.00000000000E+00 0. -1.
         11    1    3    3    0    0 -0.78546985910E+02  0.13780999631E+02  0.71377264466E+02  0.10702457115E+03  0.00000000000E+00 0.  1.
         -4    1    1    2    0  502 -0.74290068507E+02  0.76058374634E+02  0.61366367727E+02  0.12275879487E+03  0.00000000000E+00 0.  1.
<scales pt_clust_5="13000.00000" pt_clust_6="13000.00000" pt_clust_7="13000.00000" pt_clust_8="13000.00000" pt_clust_9="106.31976"></scales>
<clustering>
<clus scale="   82.949">  5  6 -1 -1</clus>
<clus scale="   91.492">  7  8 -1 -1</clus>
<clus scale="  106.320">  2  9  1 -1</clus>
<clus scale="  157.165">  2  5  1 -1</clus>
<clus scale="  106.320">  2  5  1 -1</clus>
</clustering>
</event>
<event>
 9    2  0.3764910E-005  0.1003322E+03  0.7546771E-02  0.1287279E+00
         21   -1    0    0  501  502  0.00000000000E+00  0.00000000000E+00  0.13727471878E+03  0.13727471878E+03  0.00000000000E+00 0. -1.
          2   -1    0    0  502    0 -0.00000000000E+00 -0.00000000000E+00 -0.18068733929E+03  0.18068733929E+03  0.00000000000E+00 0. -1.
         24    2    1    2    0    0 -0.26813955569E+02 -0.22752097162E+02 -0.83015999462E+02  0.12028289878E+03  0.79622066251E+02 0.  0.
         23    2    1    2    0    0  0.49159995097E+02 -0.17889920505E+02  0.81543155836E+02  0.13514865500E+03  0.94229073591E+02 0.  0.
        -11    1    3    3    0    0 -0.17412367293E+02 -0.44352575985E+02 -0.84143816713E+02  0.96698104544E+02  0.00000000000E+00 0.  1.
         12    1    3    3    0    0 -0.94015882757E+01  0.21600478823E+02  0.11278172509E+01  0.23584794238E+02  0.00000000000E+00 0. -1.
        -11    1    4    4    0    0 -0.11582596615E+02 -0.33159706545E+02  0.38218966277E+01  0.35331707804E+02  0.00000000000E+00 0.  1.
         11    1    4    4    0    0  0.60742591713E+02  0.15269786041E+02  0.77721259208E+02  0.99816947191E+02  0.00000000000E+00 0. -1.
          1    1    1    2  501    0 -0.22346039529E+02  0.40642017666E+02 -0.41939776881E+02  0.62530504295E+02  0.00000000000E+00 0. -1.
<scales pt_clust_5="13000.00000" pt_clust_6="13000.00000" pt_clust_7="13000.00000" pt_clust_8="13000.00000" pt_clust_9="46.38018"></scales>
<clustering>
<clus scale="   46.380">  1  9  2 -1</clus>
<clus scale="   79.622">  5  6 -1 -1</clus>
<clus scale="   86.759">  2  5  1 -1</clus>
<clus scale="   94.229">  7  8 -1 -1</clus>
<clus scale="   46.380">  1  5  2 -1</clus>
</clustering>
</event>
<event>
 9    2  0.3764910E-005  0.9334131E+02  0.7546771E-02  0.1294987E+00
          2   -1    0    0  502    0 -0.00000000000E+00  0.00000000000E+00  0.71901320145E+03  0.71901320145E+03  0.00000000000E+00 0. -1.
         21   -1    0    0  501  502  0.00000000000E+00 -0.00000000000E+00 -0.32567901874E+02  0.32567901874E+02  0.00000000000E+00 0.  1.
         24    2    1    2    0    0 -0.32545151846E+02 -0.67937994419E+01  0.54444218742E+03  0.55275658948E+03  0.89538869501E+02 0.  0.
         23    2    1    2    0    0 -0.96698559563E+01 -0.81574730567E+01  0.71603068082E+02  0.11538703043E+03  0.89594179228E+02 0.  0.
        -11    1    3    3    0    0 -0.11362039403E+01  0.38456116134E+02  0.17104313192E+03  0.17531661874E+03  0.00000000000E+00 0.  1.
         12    1    3    3    0    0 -0.31408947906E+02 -0.45249915576E+02  0.37339905550E+03  0.37743997075E+03  0.00000000000E+00 0. -1.
        -11    1    4    4    0    0 -0.48548680518E+02 -0.92153732933E+01  0.52350972405E+02  0.71989733968E+02  0.00000000000E+00 0.  1.
         11    1    4    4    0    0  0.38878824562E+02  0.10579002366E+01  0.19252095677E+02  0.43397296462E+02  0.00000000000E+00 0. -1.
          1    1    1    2  501    0  0.42215007803E+02  0.14951272499E+02  0.70400044075E+02  0.83437483417E+02  0.00000000000E+00 0. -1.
<scales pt_clust_5="13000.00000" pt_clust_6="13000.00000" pt_clust_7="13000.00000" pt_clust_8="13000.00000" pt_clust_9="44.78446"></scales>
<clustering>
<clus scale="   44.784">  2  9  1 -1</clus>
<clus scale="   89.539">  5  6 -1 -1</clus>
<clus scale="   89.594">  7  8 -1 -1</clus>
<clus scale="   93.288">  1  5  2 -1</clus>
<clus scale="   44.784">  2  5  1 -1</clus>
</clustering>
</event>
<event>
 9    2  0.3764910E-005  0.1290765E+03  0.7546771E-02  0.1244016E+00
         21   -1    0    0  501  502  0.00000000000E+00  0.00000000000E+00  0.31060949161E+03  0.31060949161E+03  0.00000000000E+00 0. -1.
         -3   -1    0    0    0  501 -0.00000000000E+00 -0.00000000000E+00 -0.94625309389E+02  0.94625309389E+02  0.00000000000E+00 0.  1.
         24    2    1    2    0    0  0.49817709661E+02  0.79776028953E+01  0.66731828715E+02  0.11581050554E+03  0.80084267405E+02 0.  0.
         23    2    1    2    0    0 -0.18220831124E+01 -0.91132556493E+02  0.14284962465E+03  0.19319892763E+03  0.92797346609E+02 0.  0.
        -13    1    3    3    0    0  0.31573632124E+02 -0.15071237087E+02 -0.76657165072E+01  0.35816192462E+02  0.00000000000E+00 0.  1.
         14    1    3    3    0    0  0.18244077537E+02  0.23048839983E+02  0.74397545222E+02  0.79994313078E+02  0.00000000000E+00 0. -1.
        -11    1    4    4    0    0  0.32686224193E+02 -0.65356896146E+01  0.16274179091E+02  0.37093845794E+02  0.00000000000E+00 0. -1.
         11    1    4    4    0    0 -0.34508307305E+02 -0.84596866879E+02  0.12657544555E+03  0.15610508184E+03  0.00000000000E+00 0.  1.
         -4    1    1    2    0  502 -0.47995626549E+02  0.83154953598E+02  0.64027288571E+01  0.96225367822E+02  0.00000000000E+00 0.  1.
<scales pt_clust_5="13000.00000" pt_clust_6="13000.00000" pt_clust_7="13000.00000" pt_clust_8="13000.00000" pt_clust_9="89.71842"></scales>
<clustering>
<clus scale="   80.084">  5  6 -1 -1</clus>
<clus scale="   92.797">  7  8 -1 -1</clus>
<clus scale="   94.652">  2  5  1 -1</clus>
<clus scale="   89.718">  1  9  2 -1</clus>
<clus scale="   89.718">  1  5  2 -1</clus>
</clustering>
</event>
<event>
 9    2  0.3764910E-005  0.9910341E+02  0.7546771E-02  0.1283466E+00
         21   -1    0    0  501  502  0.00000000000E+00  0.00000000000E+00  0.17185389958E+03  0.17185389958E+03  0.00000000000E+00 0. -1.
         -1   -1    0    0    0  501 -0.00000000000E+00 -0.00000000000E+00 -0.11351377750E+03  0.11351377750E+03  0.00000000000E+00 0.  1.
         23    2    1    2    0    0 -0.21268912726E+02 -0.56187717997E+02 -0.59546350753E+02  0.11881456792E+03  0.83436846539E+02 0.  0.
         24    2    1    2    0    0  0.90132534814E+01  0.31831394879E+02  0.71381194593E+02  0.11264418074E+03  0.80616127883E+02 0.  0.
        -11    1    4    4    0    0  0.13532052618E+02  0.34862020046E+02 -0.35054347158E+01  0.37560151255E+02  0.00000000000E+00 0.  1.
         12    1    4    4    0    0 -0.45187991366E+01 -0.30306251671E+01  0.74886629309E+02  0.75084029486E+02  0.00000000000E+00 0. -1.
        -11    1    3    3    0    0 -0.59152765871E+01 -0.76494904422E+02 -0.50239480448E+02  0.91708594447E+02  0.00000000000E+00 0.  1.
         11    1    3    3    0    0 -0.15353636139E+02  0.20307186425E+02 -0.93068703051E+01  0.27105973476E+02  0.00000000000E+00 0. -1.
         -2    1    1    2    0  502  0.12255659245E+02  0.24356323118E+02  0.46505278235E+02  0.53908928417E+02  0.00000000000E+00 0.  1.
<scales pt_clust_5="13000.00000" pt_clust_6="13000.00000" pt_clust_7="13000.00000" pt_clust_8="13000.00000" pt_clust_9="27.26594"></scales>
<clustering>
<clus scale="   27.266">  1  9  2 -1</clus>
<clus scale="   80.616">  5  6 -1 -1</clus>
<clus scale="   83.437">  7  8 -1 -1</clus>
<clus scale="   96.741">  1  5  2 -1</clus>
<clus scale="   27.266">  1  5  2 -1</clus>
</clustering>
</event>
<event>
 9    2  0.3764910E-005  0.1661742E+03  0.7546771E-02  0.1182718E+00
          2   -1    0    0  502    0 -0.00000000000E+00  0.00000000000E+00  0.70768203120E+03  0.70768203120E+03  0.00000000000E+00 0. -1.
         21   -1    0    0  501  502  0.00000000000E+00 -0.00000000000E+00 -0.87750559794E+02  0.87750559794E+02  0.00000000000E+00 0. -1.
         24    2    1    2    0    0  0.14332559274E+03 -0.35573914744E+02  0.58257467278E+03  0.60701731272E+03  0.85258663151E+02 0.  0.
         23    2    1    2    0    0 -0.10065865982E+03  0.13007088134E+02  0.30885149594E+02  0.13971608865E+03  0.90913930868E+02 0.  0.
        -13    1    3    3    0    0  0.40582046651E+02 -0.18500671581E+02  0.63507499516E+02  0.77603993803E+02  0.00000000000E+00 0.  1.
         14    1    3    3    0    0  0.10274354609E+03 -0.17073243162E+02  0.51906717326E+03  0.52941331892E+03  0.00000000000E+00 0. -1.
        -13    1    4    4    0    0 -0.75713909708E+02  0.20711942222E+02  0.61327125442E+02  0.99612233129E+02  0.00000000000E+00 0.  1.
         13    1    4    4    0    0 -0.24944750107E+02 -0.77048540887E+01 -0.30441975848E+02  0.40103855525E+02  0.00000000000E+00 0. -1.
          1    1    1    2  501    0 -0.42666932921E+02  0.22566826610E+02  0.64716490364E+01  0.48699189617E+02  0.00000000000E+00 0. -1.
<scales pt_clust_5="13000.00000" pt_clust_6="13000.00000" pt_clust_7="13000.00000" pt_clust_8="13000.00000" pt_clust_9="48.26726"></scales>
<clustering>
<clus scale="   48.267">  2  9  1 -1</clus>
<clus scale="   85.259">  5  6 -1 -1</clus>
<clus scale="   90.914">  7  8 -1 -1</clus>
<clus scale="  163.149">  1  5  2 -1</clus>
<clus scale="   48.267">  2  5  1 -1</clus>
</clustering>
</event>
<event>
 9    2  0.3764910E-005  0.9686133E+02  0.7546771E-02  0.1306760E+00
         -3   -1    0    0    0  501 -0.00000000000E+00  0.00000000000E+00  0.15248861652E+03  0.15248861652E+03  0.00000000000E+00 0.  1.
         21   -1    0    0  501  502  0.00000000000E+00 -0.00000000000E+00 -0.81732616550E+02  0.81732616550E+02  0.00000000000E+00 0. -1.
         23    2    1    2    0    0  0.44419759096E+01 -0.46334864164E+01  0.49458287904E+02  0.10529903303E+03  0.92739224544E+02 0.  0.
         24    2    1    2    0    0 -0.47059190328E+02  0.20719600029E+02  0.23670088572E+02  0.83308406220E+02  0.61124039740E+02 0.  0.
        -11    1    4    4    0    0 -0.31581618920E+02 -0.11723801247E+02  0.31941187521E+02  0.46422899840E+02  0.00000000000E+00 0.  1.
         12    1    4    4    0    0 -0.15477571408E+02  0.32443401276E+02 -0.82710989493E+01  0.36885506380E+02  0.00000000000E+00 0. -1.
        -13    1    3    3    0    0 -0.33085843432E+02 -0.11976821043E+02 -0.81839963100E+01  0.36126099617E+02  0.00000000000E+00 0. -1.
         13    1    3    3    0    0  0.37527819342E+02  0.73433346269E+01  0.57642284214E+02  0.69172933416E+02  0.00000000000E+00 0.  1.
         -4    1    1    2    0  502  0.42617214419E+02 -0.16086113613E+02 -0.23723765074E+01  0.45613793816E+02  0.00000000000E+00 0.  1.
<scales pt_clust_5="13000.00000" pt_clust_6="13000.00000" pt_clust_7="13000.00000" pt_clust_8="13000.00000" pt_clust_9="45.55206"></scales>
<clustering>
<clus scale="   45.552">  2  9  1 -1</clus>
<clus scale="   61.124">  5  6 -1 -1</clus>
<clus scale="   67.214">  2  5  1 -1</clus>
<clus scale="   92.739">  7  8 -1 -1</clus>
<clus scale="   45.552">  2  5  1 -1</clus>
</clustering>
</event>
<event>
 9    2  0.3764910E-005  0.1027924E+03  0.7546771E-02  0.1278771E+00
          2   -1    0    0  502    0 -0.00000000000E+00  0.00000000000E+00  0.20850593597E+03  0.20850593597E+03  0.00000000000E+00 0. -1.
         21   -1    0    0  501  502  0.00000000000E+00 -0.00000000000E+00 -0.15880121309E+03  0.15880121309E+03  0.00000000000E+00 0.  1.
         24    2    1    2    0    0 -0.28136087380E+02  0.40175176657E+02  0.12074949759E+03  0.15329091038E+03  0.80696826474E+02 0.  0.
         23    2    1    2    0    0 -0.71839123288E+01 -0.69499372404E+02 -0.10655311336E+03  0.15597958690E+03  0.89968295539E+02 0.  0.
        -13    1    3    3    0    0 -0.52337421038E+02  0.11596892021E+02  0.90351350190E+02  0.10505741300E+03  0.00000000000E+00 0.  1.
         14    1    3    3    0    0  0.24201333658E+02  0.28578284636E+02  0.30398147404E+02  0.48233497377E+02  0.00000000000E+00 0. -1.
        -13    1    4    4    0    0  0.32669704114E+02 -0.24406962820E+01 -0.49399089034E+02  0.59275092262E+02  0.00000000000E+00 0. -1.
         13    1    4    4    0    0 -0.39853616443E+02 -0.67058676122E+02 -0.57154024330E+02  0.96704494642E+02  0.00000000000E+00 0.  1.
          1    1    1    2  501    0  0.35319999709E+02  0.29324195748E+02  0.35508338652E+02  0.58036651777E+02  0.00000000000E+00 0. -1.
<scales pt_clust_5="13000.00000" pt_clust_6="13000.00000" pt_clust_7="13000.00000" pt_clust_8="13000.00000" pt_clust_9="45.90657"></scales>
<clustering>
<clus scale="   45.907">  2  9  1 -1</clus>
<clus scale="   80.697">  5  6 -1 -1</clus>
<clus scale="   89.968">  7  8 -1 -1</clus>
<clus scale="   94.784">  1  5  2 -1</clus>
<clus scale="   45.907">  2  5  1 -1</clus>
</clustering>
</event>
<event>
 9    2  0.3764910E-005  0.1023275E+03  0.7546771E-02  0.1280334E+00
         21   -1    0    0  501  502  0.00000000000E+00  0.00000000000E+00  0.11498029971E+03  0.11498029971E+03  0.00000000000E+00 0.  1.
         -1   -1    0    0    0  501 -0.00000000000E+00 -0.00000000000E+00 -0.20059405879E+03  0.20059405879E+03  0.00000000000E+00 0.  1.
         24    2    1    2    0    0 -0.43445543548E+02 -0.65804771024E+02 -0.43993911651E+02  0.12058133974E+03  0.79916281738E+02 0.  0.
         23    2    1    2    0    0  0.87234962166E+01 -0.45666573574E+01  0.22553702819E+02  0.93622396520E+02  0.90330116095E+02 0.  0.
        -13    1    3    3    0    0 -0.60231526464E+02 -0.43295531970E+02 -0.52917245711E+02  0.91118465540E+02  0.00000000000E+00 0.  1.
         14    1    3    3    0    0  0.16785982916E+02 -0.22509239054E+02  0.89233340601E+01  0.29462874198E+02  0.00000000000E+00 0. -1.
        -13    1    4    4    0    0 -0.19927993189E+02 -0.25075143148E+02  0.42434551871E+02  0.53165580115E+02  0.00000000000E+00 0.  1.
         13    1    4    4    0    0  0.28651489406E+02  0.20508485791E+02 -0.19880849052E+02  0.40456816405E+02  0.00000000000E+00 0. -1.
         -2    1    1    2    0  502  0.34722047331E+02  0.70371428382E+02 -0.64173550239E+02  0.10137062224E+03  0.00000000000E+00 0.  1.
<scales pt_clust_5="13000.00000" pt_clust_6="13000.00000" pt_clust_7="13000.00000" pt_clust_8="13000.00000" pt_clust_9="78.47143"></scales>
<clustering>
<clus scale="   78.471">  1  9  2 -1</clus>
<clus scale="   79.916">  5  6 -1 -1</clus>
<clus scale="   90.330">  7  8 -1 -1</clus>
<clus scale="   93.263">  2  5  1 -1</clus>
<clus scale="   78.471">  1  5  2 -1</clus>
</clustering>
</event>
<event>
 9    2  0.3764910E-005  0.1035324E+03  0.7546771E-02  0.1287461E+00
         21   -1    0    0  501  502  0.00000000000E+00  0.00000000000E+00  0.51878741654E+03  0.51878741654E+03  0.00000000000E+00 0. -1.
          2   -1    0    0  502    0 -0.00000000000E+00 -0.00000000000E+00 -0.36637181548E+03  0.36637181548E+03  0.00000000000E+00 0. -1.
         23    2    1    2    0    0  0.19472160470E+02 -0.36468656039E+02 -0.35335635418E+03  0.36827380148E+03  0.95161714525E+02 0.  0.
         24    2    1    2    0    0  0.11959722893E+02  0.24494195127E+02  0.32514809257E+03  0.33315647046E+03  0.67297482407E+02 0.  0.
        -11    1    4    4    0    0 -0.18373270599E+02  0.33291786466E+02  0.22360300550E+03  0.22681319227E+03  0.00000000000E+00 0.  1.
         12    1    4    4    0    0  0.30332993492E+02 -0.87975913391E+01  0.10154508707E+03  0.10634327819E+03  0.00000000000E+00 0. -1.
        -13    1    3    3    0    0 -0.28976321530E+02 -0.38984861574E+02 -0.11183667799E+03  0.12192985354E+03  0.00000000000E+00 0.  1.
         13    1    3    3    0    0  0.48448482000E+02  0.25162055348E+01 -0.24151967619E+03  0.24634394794E+03  0.00000000000E+00 0. -1.
          1    1    1    2  501    0 -0.31431883363E+02  0.11974460911E+02  0.18062386267E+03  0.18372896008E+03  0.00000000000E+00 0. -1.
<scales pt_clust_5="13000.00000" pt_clust_6="13000.00000" pt_clust_7="13000.00000" pt_clust_8="13000.00000" pt_clust_9="33.63556"></scales>
<clustering>
<clus scale="   33.636">  1  9  2 -1</clus>
<clus scale="   67.297">  5  6 -1 -1</clus>
<clus scale="   78.690">  1  5  2 -1</clus>
<clus scale="   95.162">  7  8 -1 -1</clus>
<clus scale="   33.636">  1  5  2 -1</clus>
</clustering>
</event>
<event>
 9    2  0.3764910E-005  0.9834887E+02  0.7546771E-02  0.1291639E+00
         21   -1    0    0  501  502  0.00000000000E+00  0.00000000000E+00  0.75551603024E+02  0.75551603024E+02  0.00000000000E+00 0. -1.
          2   -1    0    0  502    0 -0.00000000000E+00 -0.00000000000E+00 -0.31864858676E+03  0.31864858676E+03  0.00000000000E+00 0. -1.
         24    2    1    2    0    0  0.52696932255E+02  0.10530830516E+02 -0.48755684320E+02  0.10490430276E+03  0.75762331821E+02 0.  0.
         23    2    1    2    0    0  0.85463190885E+00 -0.39140021858E+02 -0.14833405875E+02  0.99798288897E+02  0.90592476675E+02 0.  0.
        -13    1    3    3    0    0  0.45435091781E+02  0.41215031753E+02 -0.32952070228E+02  0.69633794525E+02  0.00000000000E+00 0.  1.
         14    1    3    3    0    0  0.72618404741E+01 -0.30684201237E+02 -0.15803614092E+02  0.35270508233E+02  0.00000000000E+00 0. -1.
        -13    1    4    4    0    0 -0.38407913345E+02 -0.16728950714E+02 -0.30644380973E+02  0.51904755897E+02  0.00000000000E+00 0.  1.
         13    1    4    4    0    0  0.39262545254E+02 -0.22411071144E+02  0.15810975098E+02  0.47893533000E+02  0.00000000000E+00 0. -1.
          1    1    1    2  501    0 -0.53551564164E+02  0.28609191342E+02 -0.17950789354E+03  0.18949759813E+03  0.00000000000E+00 0. -1.
<scales pt_clust_5="13000.00000" pt_clust_6="13000.00000" pt_clust_7="13000.00000" pt_clust_8="13000.00000" pt_clust_9="60.71457"></scales>
<clustering>
<clus scale="   60.715">  1  9  2 -1</clus>
<clus scale="   75.762">  5  6 -1 -1</clus>
<clus scale="   84.885">  2  5  1 -1</clus>
<clus scale="   90.592">  7  8 -1 -1</clus>
<clus scale="   60.715">  1  5  2 -1</clus>
</clustering>
</event>
<event>
 9    2  0.3764910E-005  0.1097325E+03  0.7546771E-02  0.1265438E+00
         21   -1    0    0  501  502  0.00000000000E+00  0.00000000000E+00  0.31707522267E+02  0.31707522267E+02  0.00000000000E+00 0.  1.
          2   -1    0    0  502    0 -0.00000000000E+00 -0.00000000000E+00 -0.43873841188E+03  0.43873841188E+03  0.00000000000E+00 0. -1.
         24    2    1    2    0    0  0.38300047115E+02 -0.51817035845E+02 -0.22711588169E+03  0.24918423776E+03  0.79744979920E+02 0.  0.
         23    2    1    2    0    0 -0.48179579441E+02  0.34059885812E+02 -0.15528250718E+03  0.18932924222E+03  0.90838082459E+02 0.  0.
        -13    1    3    3    0    0  0.80822343743E+01 -0.55462153407E+02 -0.72697984868E+02  0.91795261190E+02  0.00000000000E+00 0.  1.
         14    1    3    3    0    0  0.30217812741E+02  0.36451175626E+01 -0.15441789682E+03  0.15738897657E+03  0.00000000000E+00 0. -1.
        -11    1    4    4    0    0 -0.68134624138E+02  0.19223920344E+02 -0.66497025080E+02  0.97127444445E+02  0.00000000000E+00 0.  1.
         11    1    4    4    0    0  0.19955044698E+02  0.14835965468E+02 -0.88785482103E+02  0.92201797772E+02  0.00000000000E+00 0. -1.
          1    1    1    2  501    0  0.98795323255E+01  0.17757150033E+02 -0.24632500749E+02  0.31932454171E+02  0.00000000000E+00 0. -1.
<scales pt_clust_5="13000.00000" pt_clust_6="13000.00000" pt_clust_7="13000.00000" pt_clust_8="13000.00000" pt_clust_9="20.32047"></scales>
<clustering>
<clus scale="   20.320">  1  9  2 -1</clus>
<clus scale="   79.745">  5  6 -1 -1</clus>
<clus scale="   90.838">  7  8 -1 -1</clus>
<clus scale="  100.742">  2  5  1 -1</clus>
<clus scale="   20.320">  1  5  2 -1</clus>
</clustering>
</event>
<event>
 9    2  0.3764910E-005  0.9915034E+02  0.7546771E-02  0.1287593E+00
          2   -1    0    0  502    0 -0.00000000000E+00  0.00000000000E+00  0.20332409012E+03  0.20332409012E+03  0.00000000000E+00 0. -1.
         21   -1    0    0  501  502  0.00000000000E+00 -0.00000000000E+00 -0.89804846873E+02  0.89804846873E+02  0.00000000000E+00 0.  1.
         23    2    1    2    0    0  0.78495284075E+01 -0.15276342395E+02  0.37857577484E+02  0.98319321671E+02  0.89098322699E+02 0.  0.
         24    2    1    2    0    0  0.32342257339E+02  0.68528510637E+02  0.66384942173E+02  0.12745064662E+03  0.78067460546E+02 0.  0.
        -13    1    4    4    0    0 -0.13888671031E+02  0.59539849474E+02  0.43867298651E+02  0.75247782355E+02  0.00000000000E+00 0.  1.
         14    1    4    4    0    0  0.46230928370E+02  0.89886611629E+01  0.22517643523E+02  0.52202864263E+02  0.00000000000E+00 0. -1.
        -11    1    3    3    0    0 -0.40755635507E+02 -0.78627616319E+01  0.19173308092E+02  0.45721554974E+02  0.00000000000E+00 0. -1.
         11    1    3    3    0    0  0.48605163914E+02 -0.74135807632E+01  0.18684269392E+02  0.52597766698E+02  0.00000000000E+00 0.  1.
          1    1    1    2  501    0 -0.40191785746E+02 -0.53252168241E+02  0.92767235851E+01  0.67358968700E+02  0.00000000000E+00 0. -1.
<scales pt_clust_5="13000.00000" pt_clust_6="13000.00000" pt_clust_7="13000.00000" pt_clust_8="13000.00000" pt_clust_9="66.71711"></scales>
<clustering>
<clus scale="   66.717">  2  9  1 -1</clus>
<clus scale="   78.067">  5  6 -1 -1</clus>
<clus scale="   89.098">  7  8 -1 -1</clus>
<clus scale="   89.369">  2  5  1 -1</clus>
<clus scale="   66.717">  2  5  1 -1</clus>
</clustering>
</event>
<event>
 9    2  0.3764910E-005  0.1273796E+03  0.7546771E-02  0.1236680E+00
          2   -1    0    0  502    0 -0.00000000000E+00  0.00000000000E+00  0.22593021600E+03  0.22593021600E+03  0.00000000000E+00 0. -1.
         21   -1    0    0  501  502  0.00000000000E+00 -0.00000000000E+00 -0.99641301542E+02  0.99641301542E+02  0.00000000000E+00 0. -1.
         24    2    1    2    0    0  0.32247847201E+02 -0.65168572049E+02  0.76487270311E+02  0.13202636108E+03  0.79333417095E+02 0.  0.
         23    2    1    2    0    0 -0.12122155933E+02  0.10423688181E+03  0.37079498370E+02  0.14779333388E+03  0.97240455305E+02 0.  0.
        -11    1    3    3    0    0  0.52659251354E+02 -0.43441958024E+02  0.76074165217E+02  0.10221291055E+03  0.00000000000E+00 0.  1.
         12    1    3    3    0    0 -0.20411404152E+02 -0.21726614025E+02  0.41310509381E+00  0.29813450526E+02  0.00000000000E+00 0. -1.
        -11    1    4    4    0    0 -0.38815940212E+02  0.70136441125E+02 -0.13410822182E+02  0.81275136049E+02  0.00000000000E+00 0. -1.
         11    1    4    4    0    0  0.26693784280E+02  0.34100440683E+02  0.50490320551E+02  0.66518197835E+02  0.00000000000E+00 0.  1.
          1    1    1    2  501    0 -0.20125691269E+02 -0.39068309759E+02  0.12722145781E+02  0.45751822584E+02  0.00000000000E+00 0. -1.
<scales pt_clust_5="13000.00000" pt_clust_6="13000.00000" pt_clust_7="13000.00000" pt_clust_8="13000.00000" pt_clust_9="43.94743"></scales>
<clustering>
<clus scale="   43.947">  2  9  1 -1</clus>
<clus scale="   79.333">  5  6 -1 -1</clus>
<clus scale="   97.240">  7  8 -1 -1</clus>
<clus scale="  114.296">  1  5  2 -1</clus>
<clus scale="   43.947">  2  5  1 -1</clus>
</clustering>
</event>
<event>
 9    2  0.3764910E-005  0.2176767E+03  0.7546771E-02  0.1162309E+00
          2   -1    0    0  502    0 -0.00000000000E+00  0.00000000000E+00  0.18893666852E+04  0.18893666852E+04  0.00000000000E+00 0. -1.
         21   -1    0    0  501  502  0.00000000000E+00 -0.00000000000E+00 -0.56915268232E+02  0.56915268232E+02  0.00000000000E+00 0. -1.
         23    2    1    2    0    0 -0.72728617574E+02 -0.50229541028E+00  0.41971756965E+03  0.43532860104E+03  0.89768861528E+02 0.  0.
         24    2    1    2    0    0  0.24217680887E+03 -0.88154625367E+02  0.11769396660E+04  0.12073555345E+04  0.78099707778E+02 0.  0.
        -13    1    4    4    0    0  0.13749162952E+03 -0.90301008723E+01  0.63053300490E+03  0.64541255114E+03  0.00000000000E+00 0.  1.
         14    1    4    4    0    0  0.10468517935E+03 -0.79124524494E+02  0.54640666115E+03  0.56194298331E+03  0.00000000000E+00 0. -1.
        -13    1    3    3    0    0  0.13526078441E+02 -0.16071187631E+02  0.35575033067E+02  0.41313688380E+02  0.00000000000E+00 0.  1.
         13    1    3    3    0    0 -0.86254696016E+02  0.15568892221E+02  0.38414253658E+03  0.39401491266E+03  0.00000000000E+00 0. -1.
          1    1    1    2  501    0 -0.16944819129E+03  0.88656920777E+02  0.23579418133E+03  0.30359781798E+03  0.00000000000E+00 0. -1.
<scales pt_clust_5="13000.00000" pt_clust_6="13000.00000" pt_clust_7="13000.00000" pt_clust_8="13000.00000" pt_clust_9="203.18359"></scales>
<clustering>
<clus scale="   78.100">  5  6 -1 -1</clus>
<clus scale="   89.769">  7  8 -1 -1</clus>
<clus scale="  115.534">  1  7  2 -1</clus>
<clus scale="  203.184">  2  9  1 -1</clus>
<clus scale="  203.184">  2  5  1 -1</clus>
</clustering>
</event>
<event>
 9    2  0.3764910E-005  0.1313855E+03  0.7546771E-02  0.1227753E+00
         -3   -1    0    0    0  501 -0.00000000000E+00  0.00000000000E+00  0.12442425445E+03  0.12442425445E+03  0.00000000000E+00 0.  1.
         21   -1    0    0  501  502  0.00000000000E+00 -0.00000000000E+00 -0.27857620398E+03  0.27857620398E+03  0.00000000000E+00 0. -1.
         23    2    1    2    0    0  0.98126859515E+02 -0.27775813118E+02  0.48724924050E+02  0.14466861678E+03  0.90302348279E+02 0.  0.
         24    2    1    2    0    0 -0.76441597280E+02  0.19869746276E+02 -0.94112224563E+02  0.14714503773E+03  0.80971764864E+02 0.  0.
        -13    1    4    4    0    0 -0.91354638793E+02  0.17505989233E+02 -0.62361766298E+02  0.11198714026E+03  0.00000000000E+00 0.  1.
         14    1    4    4    0    0  0.14913041514E+02  0.23637570427E+01 -0.31750458265E+02  0.35157897471E+02  0.00000000000E+00 0. -1.
        -11    1    3    3    0    0  0.50037138631E+02  0.28326554704E+02  0.25912754215E+01  0.57557133807E+02  0.00000000000E+00 0. -1.
         11    1    3    3    0    0  0.48089720884E+02 -0.56102367822E+02  0.46133648629E+02  0.87111482972E+02  0.00000000000E+00 0.  1.
         -4    1    1    2    0  502 -0.21685262235E+02  0.79060668414E+01 -0.10876464901E+03  0.11118680392E+03  0.00000000000E+00 0.  1.
<scales pt_clust_5="13000.00000" pt_clust_6="13000.00000" pt_clust_7="13000.00000" pt_clust_8="13000.00000" pt_clust_9="23.08152"></scales>
<clustering>
<clus scale="   23.082">  2  9  1 -1</clus>
<clus scale="   80.972">  5  6 -1 -1</clus>
<clus scale="   90.302">  7  8 -1 -1</clus>
<clus scale="  125.156">  2  5  1 -1</clus>
<clus scale="   23.082">  2  5  1 -1</clus>
</clustering>
</event>
<event>
 9    2  0.3764910E-005  0.1251776E+03  0.7546771E-02  0.1237712E+00
          2   -1    0    0  502    0 -0.00000000000E+00  0.00000000000E+00  0.60235151157E+03  0.60235151157E+03  0.00000000000E+00 0. -1.
         21   -1    0    0  501  502  0.00000000000E+00 -0.00000000000E+00 -0.89446452672E+02  0.89446452672E+02  0.00000000000E+00 0.  1.
         23    2    1    2    0    0 -0.60507830498E+02  0.56979934967E+02  0.25221813239E+03  0.28074392858E+03  0.91078299227E+02 0.  0.
         24    2    1    2    0    0  0.28390201214E+02 -0.11009603218E+03 -0.36307051023E+01  0.13954589163E+03  0.80825330342E+02 0.  0.
        -13    1    4    4    0    0 -0.19351757717E+02 -0.33706331195E+02 -0.25958991903E+02  0.46738384118E+02  0.00000000000E+00 0.  1.
         14    1    4    4    0    0  0.47741958932E+02 -0.76389700984E+02  0.22328286801E+02  0.92807507511E+02  0.00000000000E+00 0. -1.
        -11    1    3    3    0    0 -0.83144053188E+02  0.55324342331E+02  0.21651077577E+03  0.23843370663E+03  0.00000000000E+00 0. -1.
         11    1    3    3    0    0  0.22636222690E+02  0.16555926359E+01  0.35707356624E+02  0.42310221953E+02  0.00000000000E+00 0.  1.
          1    1    1    2  501    0  0.32117629283E+02  0.53116097211E+02  0.26431763161E+03  0.27150814403E+03  0.00000000000E+00 0. -1.
<scales pt_clust_5="13000.00000" pt_clust_6="13000.00000" pt_clust_7="13000.00000" pt_clust_8="13000.00000" pt_clust_9="62.07146"></scales>
<clustering>
<clus scale="   62.071">  2  9  1 -1</clus>
<clus scale="   80.825">  5  6 -1 -1</clus>
<clus scale="   91.078">  7  8 -1 -1</clus>
<clus scale="  117.928">  2  5  1 -1</clus>
<clus scale="   62.071">  2  5  1 -1</clus>
</clustering>
</event>
<event>
 9    2  0.3764910E-005  0.9641613E+02  0.7546771E-02  0.1293639E+00
         21   -1    0    0  501  502  0.00000000000E+00  0.00000000000E+00  0.32103016927E+03  0.32103016927E+03  0.00000000000E+00 0.  1.
          4   -1    0    0  502    0 -0.00000000000E+00 -0.00000000000E+00 -0.28969520945E+03  0.28969520945E+03  0.00000000000E+00 0. -1.
         23    2    1    2    0    0  0.11883841508E+02 -0.32380214807E+02 -0.24825705261E+03  0.26650564595E+03  0.90575886132E+02 0.  0.
         24    2    1    2    0    0  0.39129347227E+01 -0.12421321571E+02  0.28503469188E+03  0.29640406002E+03  0.80255784435E+02 0.  0.
        -11    1    4    4    0    0 -0.19167695977E+02 -0.38669964021E+02  0.19725152921E+03  0.20191813307E+03  0.00000000000E+00 0.  1.
         12    1    4    4    0    0  0.23080630700E+02  0.26248642449E+02  0.87783162668E+02  0.94485926952E+02  0.00000000000E+00 0. -1.
        -11    1    3    3    0    0 -0.23307156241E+02  0.18790048356E+02 -0.45625163594E+02  0.54570550687E+02  0.00000000000E+00 0.  1.
         11    1    3    3    0    0  0.35190997749E+02 -0.51170263163E+02 -0.20263188902E+03  0.21193509526E+03  0.00000000000E+00 0. -1.
          3    1    1    2  501    0 -0.15796776230E+02  0.44801536378E+02 -0.54426794460E+01  0.47815672751E+02  0.00000000000E+00 0. -1.
<scales pt_clust_5="13000.00000" pt_clust_6="13000.00000" pt_clust_7="13000.00000" pt_clust_8="13000.00000" pt_clust_9="47.50493"></scales>
<clustering>
<clus scale="   47.505">  1  9  2 -1</clus>
<clus scale="   80.256">  5  6 -1 -1</clus>
<clus scale="   86.793">  1  5  2 -1</clus>
<clus scale="   90.576">  7  8 -1 -1</clus>
<clus scale="   47.505">  1  5  2 -1</clus>
</clustering>
</event>
<event>
 9    2  0.3764910E-005  0.8658207E+02  0.7546771E-02  0.1315295E+00
         21   -1    0    0  501  502  0.00000000000E+00  0.00000000000E+00  0.14566168209E+03  0.14566168209E+03  0.00000000000E+00 0. -1.
          4   -1    0    0  502    0 -0.00000000000E+00 -0.00000000000E+00 -0.12333627795E+03  0.12333627795E+03  0.00000000000E+00 0. -1.
         24    2    1    2    0    0 -0.49729456644E+01 -0.10525072268E+02 -0.56706361365E+02  0.98246510749E+02  0.79380464349E+02 0.  0.
         23    2    1    2    0    0 -0.45509842309E+02  0.22321550696E+02  0.47881625585E+02  0.11027004717E+03  0.85425030651E+02 0.  0.
        -11    1    3    3    0    0  0.31806012629E+02 -0.90004571775E+01 -0.30748889173E+01  0.33197674777E+02  0.00000000000E+00 0.  1.
         12    1    3    3    0    0 -0.36778958294E+02 -0.15246150905E+01 -0.53631472448E+02  0.65048835972E+02  0.00000000000E+00 0. -1.
        -13    1    4    4    0    0 -0.16970180348E+02 -0.26111554695E+02 -0.67675168859E+01  0.31868473362E+02  0.00000000000E+00 0.  1.
         13    1    4    4    0    0 -0.28539661961E+02  0.48433105391E+02  0.54649142471E+02  0.78401573808E+02  0.00000000000E+00 0. -1.
          3    1    1    2  501    0  0.50482787974E+02 -0.11796478428E+02  0.31150139926E+02  0.60481402119E+02  0.00000000000E+00 0. -1.
<scales pt_clust_5="13000.00000" pt_clust_6="13000.00000" pt_clust_7="13000.00000" pt_clust_8="13000.00000" pt_clust_9="51.84273"></scales>
<clustering>
<clus scale="   51.843">  1  9  2 -1</clus>
<clus scale="   79.380">  5  6 -1 -1</clus>
<clus scale="   80.624">  2  5  1 -1</clus>
<clus scale="   85.425">  7  8 -1 -1</clus>
<clus scale="   51.843">  1  5  2 -1</clus>
</clustering>
</event>
<event>
 9    2  0.3764910E-005  0.9714390E+02  0.7546771E-02  0.1291511E+00
         21   -1    0    0  501  502  0.00000000000E+00  0.00000000000E+00  0.61500484562E+02  0.61500484562E+02  0.00000000000E+00 0. -1.
         -1   -1    0    0    0  501 -0.00000000000E+00 -0.00000000000E+00 -0.34861724951E+03  0.34861724951E+03  0.00000000000E+00 0.  1.
         23    2    1    2    0    0 -0.39991799948E+02  0.36453953647E+01 -0.26348065483E+03  0.28171174829E+03  0.91251414708E+02 0.  0.
         24    2    1    2    0    0  0.15002993616E+02  0.48430335457E+01 -0.44816885291E+02  0.94566377264E+02  0.81766140366E+02 0.  0.
        -11    1    4    4    0    0 -0.20263330266E+02 -0.23924137483E+02 -0.36816785224E+02  0.48357445982E+02  0.00000000000E+00 0.  1.
         12    1    4    4    0    0  0.35266323882E+02  0.28767171028E+02 -0.80001000675E+01  0.46208931282E+02  0.00000000000E+00 0. -1.
        -13    1    3    3    0    0 -0.28141599506E+02 -0.38736825324E+02 -0.19106318738E+03  0.19697114721E+03  0.00000000000E+00 0.  1.
         13    1    3    3    0    0 -0.11850200441E+02  0.42382220689E+02 -0.72417467446E+02  0.84740601086E+02  0.00000000000E+00 0. -1.
         -2    1    1    2    0  502  0.24988806332E+02 -0.84884289105E+01  0.21180775175E+02  0.33839608512E+02  0.00000000000E+00 0.  1.
<scales pt_clust_5="13000.00000" pt_clust_6="13000.00000" pt_clust_7="13000.00000" pt_clust_8="13000.00000" pt_clust_9="26.39117"></scales>
<clustering>
<clus scale="   26.391">  1  9  2 -1</clus>
<clus scale="   81.766">  5  6 -1 -1</clus>
<clus scale="   88.294">  1  5  2 -1</clus>
<clus scale="   91.251">  7  8 -1 -1</clus>
<clus scale="   26.391">  1  5  2 -1</clus>
</clustering>
</event>
<event>
 9    2  0.3764910E-005  0.1071115E+03  0.7546771E-02  0.1271479E+00
          2   -1    0    0  502    0 -0.00000000000E+00  0.00000000000E+00  0.59021213884E+02  0.59021213884E+02  0.00000000000E+00 0. -1.
         21   -1    0    0  501  502  0.00000000000E+00 -0.00000000000E+00 -0.39226512540E+03  0.39226512540E+03  0.00000000000E+00 0.  1.
         23    2    1    2    0    0  0.40060282632E+02 -0.35750215901E+02 -0.16149705377E+02  0.10702245272E+03  0.91159685282E+02 0.  0.
         24    2    1    2    0    0 -0.34231843719E+02  0.62169777940E+02 -0.27038581460E+03  0.29028576323E+03  0.78233210242E+02 0.  0.
        -13    1    4    4    0    0 -0.56228147258E+02  0.57140724706E+02 -0.17859314365E+03  0.19576051165E+03  0.00000000000E+00 0.  1.
         14    1    4    4    0    0  0.21996303539E+02  0.50290532340E+01 -0.91792670954E+02  0.94525251583E+02  0.00000000000E+00 0. -1.
        -13    1    3    3    0    0  0.34448855117E+02  0.21742092344E+02  0.12407076416E+02  0.42583773243E+02  0.00000000000E+00 0.  1.
         13    1    3    3    0    0  0.56114275144E+01 -0.57492308246E+02 -0.28556781794E+02  0.64438679476E+02  0.00000000000E+00 0. -1.
          1    1    1    2  501    0 -0.58284389129E+01 -0.26419562038E+02 -0.46708391541E+02  0.53978123336E+02  0.00000000000E+00 0. -1.
<scales pt_clust_5="13000.00000" pt_clust_6="13000.00000" pt_clust_7="13000.00000" pt_clust_8="13000.00000" pt_clust_9="27.05483"></scales>
<clustering>
<clus scale="   27.055">  2  9  1 -1</clus>
<clus scale="   78.233">  5  6 -1 -1</clus>
<clus scale="   91.160">  7  8 -1 -1</clus>
<clus scale="   96.349">  2  5  1 -1</clus>
<clus scale="   27.055">  2  5  1 -1</clus>
</clustering>
</event>
<event>
 9    2  0.3764910E-005  0.1204627E+03  0.7546771E-02  0.1263037E+00
          2   -1    0    0  502    0 -0.00000000000E+00  0.00000000000E+00  0.76401986349E+02  0.76401986349E+02  0.00000000000E+00 0. -1.
         21   -1    0    0  501  502  0.00000000000E+00 -0.00000000000E+00 -0.79025883148E+03  0.79025883148E+03  0.00000000000E+00 0. -1.
         24    2    1    2    0    0 -0.13735250170E+02 -0.64318567379E+00  0.13853163719E+02  0.80995461349E+02  0.78608420854E+02 0.  0.
         23    2    1    2    0    0 -0.66264452328E+02  0.13935576227E+02 -0.94021219308E+02  0.14680846950E+03  0.90152976159E+02 0.  0.
        -11    1    3    3    0    0 -0.19830896856E+02  0.36732563711E+02  0.10041402346E+02  0.42934548652E+02  0.00000000000E+00 0.  1.
         12    1    3    3    0    0  0.60956466861E+01 -0.37375749385E+02  0.38117613738E+01  0.38060912698E+02  0.00000000000E+00 0. -1.
        -13    1    4    4    0    0 -0.73050411610E+02 -0.80098658572E+01 -0.31050286112E+02  0.79778699256E+02  0.00000000000E+00 0. -1.
         13    1    4    4    0    0  0.67859592812E+01  0.21945442084E+02 -0.62970933197E+02  0.67029770247E+02  0.00000000000E+00 0.  1.
          1    1    1    2  501    0  0.79999702498E+02 -0.13292390553E+02 -0.63368878954E+03  0.63885688698E+03  0.00000000000E+00 0. -1.
<scales pt_clust_5="13000.00000" pt_clust_6="13000.00000" pt_clust_7="13000.00000" pt_clust_8="13000.00000" pt_clust_9="79.89804"></scales>
<clustering>
<clus scale="   78.608">  5  6 -1 -1</clus>
<clus scale="   79.802">  1  5  2 -1</clus>
<clus scale="   79.898">  2  9  1 -1</clus>
<clus scale="   90.153">  7  8 -1 -1</clus>
<clus scale="   79.898">  2  5  1 -1</clus>
</clustering>
</event>
<event>
 9    2  0.3764910E-005  0.9485886E+02  0.7546771E-02  0.1297914E+00
         -3   -1    0    0    0  501 -0.00000000000E+00  0.00000000000E+00  0.44409791430E+02  0.44409791430E+02  0.00000000000E+00 0.  1.
         21   -1    0    0  501  502  0.00000000000E+00 -0.00000000000E+00 -0.47227610107E+03  0.47227610107E+03  0.00000000000E+00 0. -1.
         23    2    1    2    0    0 -0.10461767724E+02  0.22600630175E+02 -0.37756503002E+02  0.10108821181E+03  0.90404844893E+02 0.  0.
         24    2    1    2    0    0  0.55014360981E+02 -0.13687201046E+02 -0.24893322653E+03  0.26728986041E+03  0.79134056013E+02 0.  0.
        -11    1    4    4    0    0  0.51581686506E+01 -0.38944373728E+02 -0.13137241175E+03  0.13712031767E+03  0.00000000000E+00 0.  1.
         12    1    4    4    0    0  0.49856192331E+02  0.25257172682E+02 -0.11756081478E+03  0.13016954274E+03  0.00000000000E+00 0. -1.
        -13    1    3    3    0    0 -0.48669901168E+01  0.54688914141E+02 -0.53895467669E+01  0.55168941779E+02  0.00000000000E+00 0.  1.
         13    1    3    3    0    0 -0.55947776076E+01 -0.32088283966E+02 -0.32366956235E+02  0.45919270032E+02  0.00000000000E+00 0. -1.
         -4    1    1    2    0  502 -0.44552593257E+02 -0.89134291287E+01 -0.14117658010E+03  0.14830782027E+03  0.00000000000E+00 0.  1.
<scales pt_clust_5="13000.00000" pt_clust_6="13000.00000" pt_clust_7="13000.00000" pt_clust_8="13000.00000" pt_clust_9="45.43548"></scales>
<clustering>
<clus scale="   45.435">  2  9  1 -1</clus>
<clus scale="   79.134">  5  6 -1 -1</clus>
<clus scale="   84.186">  2  5  1 -1</clus>
<clus scale="   90.405">  7  8 -1 -1</clus>
<clus scale="   45.435">  2  5  1 -1</clus>
</clustering>
</event>
<event>
 9    2  0.3764910E-005  0.1820502E+03  0.7546771E-02  0.1166633E+00
         21   -1    0    0  501  502  0.00000000000E+00  0.00000000000E+00  0.69780778021E+03  0.69780778021E+03  0.00000000000E+00 0.  1.
         -1   -1    0    0    0  501 -0.00000000000E+00 -0.00000000000E+00 -0.90729749060E+02  0.90729749060E+02  0.00000000000E+00 0.  1.
         24    2    1    2    0    0  0.13211044336E+03  0.98965099876E+02  0.44296484874E+02  0.18910246055E+03  0.80933934623E+02 0.  0.
         23    2    1    2    0    0 -0.11270881915E+03 -0.83392916026E+02  0.37373724117E+03  0.40876083023E+03  0.88024056577E+02 0.  0.
        -13    1    3    3    0    0  0.14345871230E+03  0.93538643895E+02  0.41015512099E+02  0.17610267536E+03  0.00000000000E+00 0.  1.
         14    1    3    3    0    0 -0.11348268940E+02  0.54264559809E+01  0.32809727753E+01  0.12999785183E+02  0.00000000000E+00 0. -1.
        -11    1    4    4    0    0  0.93642371028E+01 -0.20289192546E+02  0.23017656213E+02  0.32080410973E+02  0.00000000000E+00 0.  1.
         11    1    4    4    0    0 -0.12207305625E+03 -0.63103723481E+02  0.35071958495E+03  0.37668041925E+03  0.00000000000E+00 0. -1.
         -2    1    1    2    0  502 -0.19401624212E+02 -0.15572183849E+02  0.18904430511E+03  0.19067423850E+03  0.00000000000E+00 0.  1.
<scales pt_clust_5="13000.00000" pt_clust_6="13000.00000" pt_clust_7="13000.00000" pt_clust_8="13000.00000" pt_clust_9="24.87802"></scales>
<clustering>
<clus scale="   24.878">  1  9  2 -1</clus>
<clus scale="   80.934">  5  6 -1 -1</clus>
<clus scale="   88.024">  7  8 -1 -1</clus>
<clus scale="  178.730">  2  5  1 -1</clus>
<clus scale="   24.878">  1  5  2 -1</clus>
</clustering>
</event>
<event>
 9    2  0.3764910E-005  0.1798555E+03  0.7546771E-02  0.1178883E+00
          2   -1    0    0  502    0 -0.00000000000E+00  0.00000000000E+00  0.83568756588E+03  0.83568756588E+03  0.00000000000E+00 0. -1.
         21   -1    0    0  501  502  0.00000000000E+00 -0.00000000000E+00 -0.36977651139E+03  0.36977651139E+03  0.00000000000E+00 0. -1.
         23    2    1    2    0    0  0.79866832136E+02 -0.69888266189E+02  0.68734040007E+03  0.70150262541E+03  0.91684389400E+02 0.  0.
         24    2    1    2    0    0 -0.21527846327E+03 -0.38262386447E+01  0.54319612599E+01  0.22966928900E+03  0.79743459006E+02 0.  0.
        -13    1    4    4    0    0 -0.11559840695E+03  0.21815622386E+02 -0.28958065885E+02  0.12115066095E+03  0.00000000000E+00 0.  1.
         14    1    4    4    0    0 -0.99680056324E+02 -0.25641861031E+02  0.34390027145E+02  0.10851862805E+03  0.00000000000E+00 0. -1.
        -13    1    3    3    0    0  0.98791691826E+02 -0.46163911212E+02  0.56731960280E+03  0.57770445454E+03  0.00000000000E+00 0. -1.
         13    1    3    3    0    0 -0.18924859690E+02 -0.23724354976E+02  0.12002079727E+03  0.12379817087E+03  0.00000000000E+00 0.  1.
          1    1    1    2  501    0  0.13541163113E+03  0.73714504833E+02 -0.22686130684E+03  0.27429216287E+03  0.00000000000E+00 0. -1.
<scales pt_clust_5="13000.00000" pt_clust_6="13000.00000" pt_clust_7="13000.00000" pt_clust_8="13000.00000" pt_clust_9="161.21101"></scales>
<clustering>
<clus scale="   79.743">  5  6 -1 -1</clus>
<clus scale="   91.684">  7  8 -1 -1</clus>
<clus scale="  140.247">  1  7  2 -1</clus>
<clus scale="  161.211">  2  9  1 -1</clus>
<clus scale="  161.211">  2  5  1 -1</clus>
</clustering>
</event>
<event>
 9    2  0.3764910E-005  0.1632161E+03  0.7546771E-02  0.1210607E+00
         -3   -1    0    0    0  501 -0.00000000000E+00  0.00000000000E+00  0.35474865323E+03  0.35474865323E+03  0.00000000000E+00 0.  1.
         21   -1    0    0  501  502  0.00000000000E+00 -0.00000000000E+00 -0.11822138288E+03  0.11822138288E+03  0.00000000000E+00 0. -1.
         23    2    1    2    0    0  0.92897369400E+01 -0.20349206374E+02  0.67776569790E+02  0.11558000044E+03  0.90910305669E+02 0.  0.
         24    2    1    2    0    0 -0.91417959407E+02 -0.10395037720E+03  0.51424923860E+02  0.16775678626E+03  0.79592036794E+02 0.  0.
        -13    1    4    4    0    0 -0.35406646738E+02 -0.88330069548E+02  0.54250226179E+02  0.10953957668E+03  0.00000000000E+00 0.  1.
         14    1    4    4    0    0 -0.56011312668E+02 -0.15620307653E+02 -0.28253023192E+01  0.58217209579E+02  0.00000000000E+00 0. -1.
        -11    1    3    3    0    0 -0.31624424349E+02 -0.18766610846E+02  0.44479258867E+00  0.36776184393E+02  0.00000000000E+00 0. -1.
         11    1    3    3    0    0  0.40914161289E+02 -0.15825955280E+01  0.67331777202E+02  0.78803816048E+02  0.00000000000E+00 0.  1.
         -4    1    1    2    0  502  0.82128222467E+02  0.12429958358E+03  0.11732577671E+03  0.18963324941E+03  0.00000000000E+00 0.  1.
<scales pt_clust_5="13000.00000" pt_clust_6="13000.00000" pt_clust_7="13000.00000" pt_clust_8="13000.00000" pt_clust_9="142.49429"></scales>
<clustering>
<clus scale="   79.592">  5  6 -1 -1</clus>
<clus scale="   90.910">  7  8 -1 -1</clus>
<clus scale="   93.622">  1  7  2 -1</clus>
<clus scale="  142.494">  2  9  1 -1</clus>
<clus scale="  142.494">  2  5  1 -1</clus>
</clustering>
</event>
<event>
 9    2  0.3764910E-005  0.2544120E+03  0.7546771E-02  0.1111220E+00
          2   -1    0    0  502    0 -0.00000000000E+00  0.00000000000E+00  0.29554704128E+03  0.29554704128E+03  0.00000000000E+00 0. -1.
         21   -1    0    0  501  502  0.00000000000E+00 -0.00000000000E+00 -0.29083006013E+03  0.29083006013E+03  0.00000000000E+00 0.  1.
         23    2    1    2    0    0  0.24423243725E+03 -0.33870657344E+02  0.12833320894E+03  0.29275643952E+03  0.91870645618E+02 0.  0.
         24    2    1    2    0    0 -0.21262824313E+03  0.33484828043E+02 -0.12644267235E+03  0.26188798569E+03  0.79155316765E+02 0.  0.
        -13    1    4    4    0    0 -0.20185830142E+03  0.12832452919E+02 -0.12655638141E+03  0.23859581592E+03  0.00000000000E+00 0.  1.
         14    1    4    4    0    0 -0.10769941717E+02  0.20652375124E+02  0.11370906627E+00  0.23292169770E+02  0.00000000000E+00 0. -1.
        -11    1    3    3    0    0  0.10501064480E+03 -0.45732115993E+02  0.95735707735E+02  0.14927822242E+03  0.00000000000E+00 0.  1.
         11    1    3    3    0    0  0.13922179245E+03  0.11861458649E+02  0.32597501201E+02  0.14347821709E+03  0.00000000000E+00 0. -1.
          1    1    1    2  501    0 -0.31604194120E+02  0.38582930018E+00  0.28264445634E+01  0.31732676205E+02  0.00000000000E+00 0. -1.
<scales pt_clust_5="13000.00000" pt_clust_6="13000.00000" pt_clust_7="13000.00000" pt_clust_8="13000.00000" pt_clust_9="31.60656"></scales>
<clustering>
<clus scale="   31.607">  2  9  1 -1</clus>
<clus scale="   79.155">  5  6 -1 -1</clus>
<clus scale="   91.871">  7  8 -1 -1</clus>
<clus scale="  250.102">  2  5  1 -1</clus>
<clus scale="   31.607">  2  5  1 -1</clus>
</clustering>
</event>
<event>
 9    2  0.3764910E-005  0.1311565E+03  0.7546771E-02  0.1228397E+00
         21   -1    0    0  501  502  0.00000000000E+00  0.00000000000E+00  0.13512533638E+03  0.13512533638E+03  0.00000000000E+00 0.  1.
         -3   -1    0    0    0  501 -0.00000000000E+00 -0.00000000000E+00 -0.23809353561E+03  0.23809353561E+03  0.00000000000E+00 0.  1.
         24    2    1    2    0    0 -0.46335931701E+02  0.69415308851E+02 -0.96821423030E+02  0.14995155463E+03  0.78393731304E+02 0.  0.
         23    2    1    2    0    0  0.45056524001E+02 -0.12923285087E+03 -0.66258830819E+01  0.16343417637E+03  0.89082027249E+02 0.  0.
        -13    1    3    3    0    0 -0.66150240125E+02  0.35140852087E+02 -0.62441878651E+02  0.97517803316E+02  0.00000000000E+00 0.  1.
         14    1    3    3    0    0  0.19814308424E+02  0.34274456764E+02 -0.34379544378E+02  0.52433751310E+02  0.00000000000E+00 0. -1.
        -11    1    4    4    0    0  0.36006243801E+02 -0.78354300457E+02  0.38866663337E+02  0.94585746874E+02  0.00000000000E+00 0.  1.
         11    1    4    4    0    0  0.90502801999E+01 -0.50878550417E+02 -0.45492546419E+02  0.68848429495E+02  0.00000000000E+00 0. -1.
         -4    1    1    2    0  502  0.12794077001E+01  0.59817542023E+02  0.47910688832E+00  0.59833140993E+02  0.00000000000E+00 0.  1.
<scales pt_clust_5="13000.00000" pt_clust_6="13000.00000" pt_clust_7="13000.00000" pt_clust_8="13000.00000" pt_clust_9="59.83122"></scales>
<clustering>
<clus scale="   59.831">  1  9  2 -1</clus>
<clus scale="   78.394">  5  6 -1 -1</clus>
<clus scale="   89.082">  7  8 -1 -1</clus>
<clus scale="  124.145">  2  5  1 -1</clus>
<clus scale="   59.831">  1  5  2 -1</clus>
</clustering>
</event>
<event>
 9    2  0.3764910E-005  0.1064892E+03  0.7546771E-02  0.1272219E+00
         21   -1    0    0  501  502  0.00000000000E+00  0.00000000000E+00  0.19549896554E+03  0.19549896554E+03  0.00000000000E+00 0. -1.
          2   -1    0    0  502    0 -0.00000000000E+00 -0.00000000000E+00 -0.33317726122E+03  0.33317726122E+03  0.00000000000E+00 0. -1.
         24    2    1    2    0    0  0.35574347785E+02  0.31844286518E+02 -0.25710368260E+03  0.27398691302E+03  0.81773663835E+02 0.  0.
         23    2    1    2    0    0 -0.63573145645E+02 -0.43344453215E+02 -0.10481666053E+02  0.12130254930E+03  0.93188822674E+02 0.  0.
        -11    1    3    3    0    0  0.58430090090E+02  0.13921373673E+02 -0.21196205786E+03  0.22030840666E+03  0.00000000000E+00 0.  1.
         12    1    3    3    0    0 -0.22855742305E+02  0.17922912845E+02 -0.45141624741E+02  0.53678506364E+02  0.00000000000E+00 0. -1.
        -13    1    4    4    0    0 -0.11712187336E+02  0.28790286695E+02 -0.93338784930E+01  0.32452692152E+02  0.00000000000E+00 0.  1.
         13    1    4    4    0    0 -0.51860958309E+02 -0.72134739910E+02 -0.11477875598E+01  0.88849857147E+02  0.00000000000E+00 0. -1.
          1    1    1    2  501    0  0.27998797860E+02  0.11500166697E+02  0.12990705297E+03  0.13338676444E+03  0.00000000000E+00 0. -1.
<scales pt_clust_5="13000.00000" pt_clust_6="13000.00000" pt_clust_7="13000.00000" pt_clust_8="13000.00000" pt_clust_9="30.26857"></scales>
<clustering>
<clus scale="   30.269">  1  9  2 -1</clus>
<clus scale="   81.774">  5  6 -1 -1</clus>
<clus scale="   93.189">  7  8 -1 -1</clus>
<clus scale="   96.658">  2  5  1 -1</clus>
<clus scale="   30.269">  1  5  2 -1</clus>
</clustering>
</event>
<event>
 9    2  0.3764910E-005  0.1018415E+03  0.7546771E-02  0.1281085E+00
         21   -1    0    0  501  502  0.00000000000E+00  0.00000000000E+00  0.14163056357E+03  0.14163056357E+03  0.00000000000E+00 0. -1.
         -1   -1    0    0    0  501 -0.00000000000E+00 -0.00000000000E+00 -0.12663996633E+03  0.12663996633E+03  0.00000000000E+00 0.  1.
         23    2    1    2    0    0  0.10400405541E+02  0.26731990457E+02 -0.64691592674E+01  0.95200476392E+02  0.90545640063E+02 0.  0.
         24    2    1    2    0    0 -0.49168924493E+02 -0.62095047462E+02  0.35823043779E+02  0.11866556947E+03  0.80776536545E+02 0.  0.
        -11    1    4    4    0    0 -0.14034053677E+01 -0.21600698858E+02 -0.23820201357E+02  0.32186359385E+02  0.00000000000E+00 0.  1.
         12    1    4    4    0    0 -0.47765519126E+02 -0.40494348604E+02  0.59643245136E+02  0.86479210083E+02  0.00000000000E+00 0. -1.
        -13    1    3    3    0    0  0.29510568726E+02 -0.19227246089E+02  0.18202881852E+02  0.39647264299E+02  0.00000000000E+00 0.  1.
         13    1    3    3    0    0 -0.19110163185E+02  0.45959236546E+02 -0.24672041119E+02  0.55553212093E+02  0.00000000000E+00 0. -1.
         -2    1    1    2    0  502  0.38768518953E+02  0.35363057005E+02 -0.14363287272E+02  0.54404484041E+02  0.00000000000E+00 0.  1.
<scales pt_clust_5="13000.00000" pt_clust_6="13000.00000" pt_clust_7="13000.00000" pt_clust_8="13000.00000" pt_clust_9="52.47425"></scales>
<clustering>
<clus scale="   52.474">  1  9  2 -1</clus>
<clus scale="   80.777">  5  6 -1 -1</clus>
<clus scale="   90.546">  7  8 -1 -1</clus>
<clus scale="   93.263">  1  5  2 -1</clus>
<clus scale="   52.474">  1  5  2 -1</clus>
</clustering>
</event>
<event>
 9    2  0.3764910E-005  0.2976326E+03  0.7546771E-02  0.1086430E+00
          2   -1    0    0  502    0 -0.00000000000E+00  0.00000000000E+00  0.13009856908E+04  0.13009856908E+04  0.00000000000E+00 0. -1.
         21   -1    0    0  501  502  0.00000000000E+00 -0.00000000000E+00 -0.55261547244E+02  0.55261547244E+02  0.00000000000E+00 0.  1.
         24    2    1    2    0    0 -0.13331247812E+03 -0.54192878507E+02  0.37350431211E+03  0.40815315465E+03  0.79840100070E+02 0.  0.
         23    2    1    2    0    0 -0.93153592284E+02 -0.20449934730E+02  0.30060004352E+03  0.32873343519E+03  0.92787357220E+02 0.  0.
        -13    1    3    3    0    0 -0.99712145415E+02 -0.55118823929E+02  0.18956991581E+03  0.22117266937E+03  0.00000000000E+00 0.  1.
         14    1    3    3    0    0 -0.33600332700E+02  0.92594542242E+00  0.18393439630E+03  0.18698048528E+03  0.00000000000E+00 0. -1.
        -13    1    4    4    0    0 -0.43097519592E+02 -0.56684459464E+02  0.15603910246E+03  0.17151887837E+03  0.00000000000E+00 0. -1.
         13    1    4    4    0    0 -0.50056072692E+02  0.36234524734E+02  0.14456094106E+03  0.15721455682E+03  0.00000000000E+00 0.  1.
          1    1    1    2  501    0  0.22646607040E+03  0.74642813237E+02  0.57161978795E+03  0.61936064824E+03  0.00000000000E+00 0. -1.
<scales pt_clust_5="13000.00000" pt_clust_6="13000.00000" pt_clust_7="13000.00000" pt_clust_8="13000.00000" pt_clust_9="238.45018"></scales>
<clustering>
<clus scale="   79.840">  5  6 -1 -1</clus>
<clus scale="   92.787">  7  8 -1 -1</clus>
<clus scale="   94.196">  5  7 -1 -1</clus>
<clus scale="  238.450">  2  9  1 -1</clus>
<clus scale="  238.450">  2  5  1 -1</clus>
</clustering>
</event>
<event>
 9    2  0.3764910E-005  0.1089519E+03  0.7546771E-02  0.1268034E+00
         -3   -1    0    0    0  501 -0.00000000000E+00  0.00000000000E+00  0.14072915458E+03  0.14072915458E+03  0.00000000000E+00 0.  1.
         21   -1    0    0  501  502  0.00000000000E+00 -0.00000000000E+00 -0.10644706130E+03  0.10644706130E+03  0.00000000000E+00 0.  1.
         23    2    1    2    0    0  0.48453463482E+02 -0.36894233008E+02  0.76184016328E+01  0.11158267257E+03  0.93186534548E+02 0.  0.
         24    2    1    2    0    0 -0.22062994071E+02  0.51589228927E+02  0.38417968639E+01  0.97735404657E+02  0.79932632082E+02 0.  0.
        -11    1    4    4    0    0 -0.59842402720E+01  0.60749086097E+02 -0.22915490793E+02  0.65202625036E+02  0.00000000000E+00 0.  1.
         12    1    4    4    0    0 -0.16078753799E+02 -0.91598571700E+01  0.26757287657E+02  0.32532779621E+02  0.00000000000E+00 0. -1.
        -13    1    3    3    0    0  0.11740393656E+02  0.24145334978E+02  0.26675903132E+02  0.37847560718E+02  0.00000000000E+00 0. -1.
         13    1    3    3    0    0  0.36713069826E+02 -0.61039567987E+02 -0.19057501499E+02  0.73735111849E+02  0.00000000000E+00 0.  1.
         -4    1    1    2    0  502 -0.26390469411E+02 -0.14694995919E+02  0.22821894791E+02  0.37858138658E+02  0.00000000000E+00 0.  1.
<scales pt_clust_5="13000.00000" pt_clust_6="13000.00000" pt_clust_7="13000.00000" pt_clust_8="13000.00000" pt_clust_9="30.20597"></scales>
<clustering>
<clus scale="   30.206">  2  9  1 -1</clus>
<clus scale="   79.933">  5  6 -1 -1</clus>
<clus scale="   93.187">  7  8 -1 -1</clus>
<clus scale="   97.857">  2  5  1 -1</clus>
<clus scale="   30.206">  2  5  1 -1</clus>
</clustering>
</event>
<event>
 9    2  0.3764910E-005  0.1026458E+03  0.7546771E-02  0.1280875E+00
         -1   -1    0    0    0  501 -0.00000000000E+00  0.00000000000E+00  0.16577394952E+03  0.16577394952E+03  0.00000000000E+00 0.  1.
         21   -1    0    0  501  502  0.00000000000E+00 -0.00000000000E+00 -0.88335360628E+02  0.88335360628E+02  0.00000000000E+00 0.  1.
         24    2    1    2    0    0  0.42048105922E+02 -0.72791226846E+01  0.84971182790E+02  0.12552588735E+03  0.81948872181E+02 0.  0.
         23    2    1    2    0    0 -0.36311730113E+02 -0.16372571202E+02 -0.14255760812E+02  0.10333447026E+03  0.94277161578E+02 0.  0.
        -13    1    3    3    0    0  0.52189449601E+02 -0.26959208398E+02  0.85077478441E+02  0.10338624137E+03  0.00000000000E+00 0.  1.
         14    1    3    3    0    0 -0.10141343679E+02  0.19680085714E+02 -0.10629565071E+00  0.22139645979E+02  0.00000000000E+00 0. -1.
        -11    1    4    4    0    0  0.27118339388E+02 -0.16703063365E+01  0.16006140054E+02  0.31533962228E+02  0.00000000000E+00 0. -1.
         11    1    4    4    0    0 -0.63430069501E+02 -0.14702264865E+02 -0.30261900866E+02  0.71800508028E+02  0.00000000000E+00 0.  1.
         -2    1    1    2    0  502 -0.57363758081E+01  0.23651693886E+02  0.67231669150E+01  0.25248952542E+02  0.00000000000E+00 0.  1.
<scales pt_clust_5="13000.00000" pt_clust_6="13000.00000" pt_clust_7="13000.00000" pt_clust_8="13000.00000" pt_clust_9="24.33739"></scales>
<clustering>
<clus scale="   24.337">  2  9  1 -1</clus>
<clus scale="   81.949">  5  6 -1 -1</clus>
<clus scale="   91.453">  1  5  2 -1</clus>
<clus scale="   94.277">  7  8 -1 -1</clus>
<clus scale="   24.337">  2  5  1 -1</clus>
</clustering>
</event>
<event>
 9    2  0.3764910E-005  0.1054042E+03  0.7546771E-02  0.1276360E+00
         21   -1    0    0  501  502  0.00000000000E+00  0.00000000000E+00  0.21025029173E+03  0.21025029173E+03  0.00000000000E+00 0.  1.
          2   -1    0    0  502    0 -0.00000000000E+00 -0.00000000000E+00 -0.10029773602E+03  0.10029773602E+03  0.00000000000E+00 0. -1.
         24    2    1    2    0    0  0.13634384211E+02  0.62661587463E+02 -0.49627586841E+02  0.10752067131E+03  0.70607552053E+02 0.  0.
         23    2    1    2    0    0 -0.17295005096E+02 -0.33745625651E+02  0.10951352388E+03  0.14509464290E+03  0.87300395377E+02 0.  0.
        -11    1    3    3    0    0 -0.19881488923E+02  0.32826721698E+01  0.42798079178E+01  0.20600152771E+02  0.00000000000E+00 0.  1.
         12    1    3    3    0    0  0.33515873134E+02  0.59378915293E+02 -0.53907394759E+02  0.86920518538E+02  0.00000000000E+00 0. -1.
        -11    1    4    4    0    0 -0.28978931871E+02 -0.52828955896E+02  0.10670586945E+03  0.12254313382E+03  0.00000000000E+00 0.  1.
         11    1    4    4    0    0  0.11683926774E+02  0.19083330245E+02  0.28076544379E+01  0.22551509075E+02  0.00000000000E+00 0. -1.
          1    1    1    2  501    0  0.36606208852E+01 -0.28915961812E+02  0.50066618670E+02  0.57932713538E+02  0.00000000000E+00 0. -1.
<scales pt_clust_5="13000.00000" pt_clust_6="13000.00000" pt_clust_7="13000.00000" pt_clust_8="13000.00000" pt_clust_9="29.14675"></scales>
<clustering>
<clus scale="   29.147">  1  9  2 -1</clus>
<clus scale="   70.608">  5  6 -1 -1</clus>
<clus scale="   87.300">  7  8 -1 -1</clus>
<clus scale="   92.055">  2  5  1 -1</clus>
<clus scale="   29.147">  1  5  2 -1</clus>
</clustering>
</event>
<event>
 9    2  0.3764910E-005  0.1406526E+03  0.7546771E-02  0.1214504E+00
          2   -1    0    0  502    0 -0.00000000000E+00  0.00000000000E+00  0.97164577035E+02  0.97164577035E+02  0.00000000000E+00 0. -1.
         21   -1    0    0  501  502  0.00000000000E+00 -0.00000000000E+00 -0.33918838206E+03  0.33918838206E+03  0.00000000000E+00 0. -1.
         23    2    1    2    0    0 -0.41996273711E+02 -0.84390376496E+02 -0.33916762095E+02  0.13382703408E+03  0.88735030556E+02 0.  0.
         24    2    1    2    0    0  0.86731817648E+02  0.11588374921E+03 -0.15772499067E+03  0.22815218902E+03  0.78897383666E+02 0.  0.
        -11    1    4    4    0    0  0.57264427556E+02  0.69715679818E+02 -0.40761308845E+02  0.98999873609E+02  0.00000000000E+00 0.  1.
         12    1    4    4    0    0  0.29467390091E+02  0.46168069395E+02 -0.11696368182E+03  0.12915231541E+03  0.00000000000E+00 0. -1.
        -11    1    3    3    0    0 -0.19071010018E+02  0.75939207664E+01 -0.33191422075E+02  0.39026165006E+02  0.00000000000E+00 0.  1.
         11    1    3    3    0    0 -0.22925263694E+02 -0.91984297262E+02 -0.72534001968E+00  0.94800869070E+02  0.00000000000E+00 0. -1.
          1    1    1    2  501    0 -0.44735543936E+02 -0.31493372717E+02 -0.50382052263E+02  0.74373736000E+02  0.00000000000E+00 0. -1.
<scales pt_clust_5="13000.00000" pt_clust_6="13000.00000" pt_clust_7="13000.00000" pt_clust_8="13000.00000" pt_clust_9="54.70924"></scales>
<clustering>
<clus scale="   54.709">  2  9  1 -1</clus>
<clus scale="   78.897">  5  6 -1 -1</clus>
<clus scale="   88.735">  7  8 -1 -1</clus>
<clus scale="  134.663">  2  5  1 -1</clus>
<clus scale="   54.709">  2  5  1 -1</clus>
</clustering>
</event>
<event>
 9    2  0.3764910E-005  0.9101014E+02  0.7546771E-02  0.1303767E+00
          2   -1    0    0  502    0 -0.00000000000E+00  0.00000000000E+00  0.33057072470E+03  0.33057072470E+03  0.00000000000E+00 0. -1.
         21   -1    0    0  501  502  0.00000000000E+00 -0.00000000000E+00 -0.12478084252E+03  0.12478084252E+03  0.00000000000E+00 0. -1.
         23    2    1    2    0    0  0.22862250953E+02 -0.16482010500E+02  0.17956803445E+03  0.20241143207E+03  0.89058237396E+02 0.  0.
         24    2    1    2    0    0  0.11719486557E+02  0.18389633246E+02  0.12293797558E+03  0.15020968698E+03  0.83508557926E+02 0.  0.
        -13    1    4    4    0    0 -0.23825101582E+02  0.37756911649E+02  0.52008810942E+02  0.68542951922E+02  0.00000000000E+00 0.  1.
         14    1    4    4    0    0  0.35544588139E+02 -0.19367278404E+02  0.70929164641E+02  0.81666735060E+02  0.00000000000E+00 0. -1.
        -13    1    3    3    0    0  0.52521967384E+02 -0.53886930728E+01  0.15025148439E+03  0.15925797824E+03  0.00000000000E+00 0. -1.
         13    1    3    3    0    0 -0.29659716431E+02 -0.11093317427E+02  0.29316550057E+02  0.43153453831E+02  0.00000000000E+00 0.  1.
          1    1    1    2  501    0 -0.34581737510E+02 -0.19076227456E+01 -0.96716127853E+02  0.10273044817E+03  0.00000000000E+00 0. -1.
<scales pt_clust_5="13000.00000" pt_clust_6="13000.00000" pt_clust_7="13000.00000" pt_clust_8="13000.00000" pt_clust_9="34.63431"></scales>
<clustering>
<clus scale="   34.634">  2  9  1 -1</clus>
<clus scale="   83.509">  5  6 -1 -1</clus>
<clus scale="   85.587">  2  5  1 -1</clus>
<clus scale="   89.058">  7  8 -1 -1</clus>
<clus scale="   34.634">  2  5  1 -1</clus>
</clustering>
</event>
<event>
 9    2  0.3764910E-005  0.1197667E+03  0.7546771E-02  0.1246816E+00
         21   -1    0    0  501  502  0.00000000000E+00  0.00000000000E+00  0.28927574575E+02  0.28927574575E+02  0.00000000000E+00 0. -1.
          2   -1    0    0  502    0 -0.00000000000E+00 -0.00000000000E+00 -0.16918338454E+04  0.16918338454E+04  0.00000000000E+00 0. -1.
         24    2    1    2    0    0 -0.96395678548E+02  0.47411618922E+01 -0.12958491621E+04  0.13018608607E+04  0.79385415329E+02 0.  0.
         23    2    1    2    0    0  0.84336028572E+01 -0.46896310888E+02 -0.22000603041E+03  0.24243979034E+03  0.90022268878E+02 0.  0.
        -11    1    3    3    0    0 -0.19580612314E+02 -0.70417031587E+01 -0.58804048850E+02  0.62377096142E+02  0.00000000000E+00 0.  1.
         12    1    3    3    0    0 -0.76815066235E+02  0.11782865051E+02 -0.12370451132E+04  0.12394837645E+04  0.00000000000E+00 0. -1.
        -11    1    4    4    0    0  0.12952582272E+02  0.20769264316E+02 -0.21187519866E+02  0.32373488008E+02  0.00000000000E+00 0.  1.
         11    1    4    4    0    0 -0.45189794153E+01 -0.67665575205E+02 -0.19881851054E+03  0.21006630234E+03  0.00000000000E+00 0. -1.
          1    1    1    2  501    0  0.87962075691E+02  0.42155148996E+02 -0.14705107829E+03  0.17646076893E+03  0.00000000000E+00 0. -1.
<scales pt_clust_5="13000.00000" pt_clust_6="13000.00000" pt_clust_7="13000.00000" pt_clust_8="13000.00000" pt_clust_9="97.54170"></scales>
<clustering>
<clus scale="   79.385">  5  6 -1 -1</clus>
<clus scale="   90.022">  7  8 -1 -1</clus>
<clus scale="   97.542">  1  9  2 -1</clus>
<clus scale="  111.991">  2  5  1 -1</clus>
<clus scale="   97.542">  1  5  2 -1</clus>
</clustering>
</event>
<event>
 9    2  0.3764910E-005  0.1228257E+03  0.7546771E-02  0.1244761E+00
          2   -1    0    0  502    0 -0.00000000000E+00  0.00000000000E+00  0.57455496963E+03  0.57455496963E+03  0.00000000000E+00 0. -1.
         21   -1    0    0  501  502  0.00000000000E+00 -0.00000000000E+00 -0.49440986552E+02  0.49440986552E+02  0.00000000000E+00 0. -1.
         24    2    1    2    0    0  0.29079392815E+02 -0.82318935517E+02  0.23398209197E+03  0.25935331648E+03  0.69960740246E+02 0.  0.
         23    2    1    2    0    0  0.33804624243E+02  0.80479339353E+02  0.92687387532E+02  0.15646481976E+03  0.90942901494E+02 0.  0.
        -13    1    3    3    0    0 -0.92538764860E+01 -0.66629881754E+02  0.11334667658E+03  0.13180532791E+03  0.00000000000E+00 0.  1.
         14    1    3    3    0    0  0.38333269301E+02 -0.15689053763E+02  0.12063541539E+03  0.12754798857E+03  0.00000000000E+00 0. -1.
        -11    1    4    4    0    0  0.57270176474E+02  0.31367066021E+02  0.74524585041E+02  0.99084205198E+02  0.00000000000E+00 0.  1.
         11    1    4    4    0    0 -0.23465552230E+02  0.49112273331E+02  0.18162802491E+02  0.57380614563E+02  0.00000000000E+00 0. -1.
          1    1    1    2  501    0 -0.62884017059E+02  0.18395961645E+01  0.19844450358E+03  0.20817781994E+03  0.00000000000E+00 0. -1.
<scales pt_clust_5="13000.00000" pt_clust_6="13000.00000" pt_clust_7="13000.00000" pt_clust_8="13000.00000" pt_clust_9="62.91095"></scales>
<clustering>
<clus scale="   62.911">  2  9  1 -1</clus>
<clus scale="   69.961">  5  6 -1 -1</clus>
<clus scale="   90.943">  7  8 -1 -1</clus>
<clus scale="  108.213">  1  5  2 -1</clus>
<clus scale="   62.911">  2  5  1 -1</clus>
</clustering>
</event>
<event>
 9    2  0.3764910E-005  0.9202382E+02  0.7546771E-02  0.1302622E+00
         21   -1    0    0  501  502  0.00000000000E+00  0.00000000000E+00  0.30553065849E+03  0.30553065849E+03  0.00000000000E+00 0. -1.
          2   -1    0    0  502    0 -0.00000000000E+00 -0.00000000000E+00 -0.76777541964E+02  0.76777541964E+02  0.00000000000E+00 0. -1.
         24    2    1    2    0    0 -0.13138771989E+02 -0.24902498509E+02 -0.17664092429E+02  0.87960808868E+02  0.81439069089E+02 0.  0.
         23    2    1    2    0    0 -0.25435904936E+02  0.15433803741E+02  0.80572004168E+02  0.12381207609E+03  0.89176200707E+02 0.  0.
        -13    1    3    3    0    0 -0.42501288729E+02 -0.17897749158E+02 -0.30360695413E+02  0.55212868015E+02  0.00000000000E+00 0.  1.
         14    1    3    3    0    0  0.29362516739E+02 -0.70047493505E+01  0.12696602985E+02  0.32747940852E+02  0.00000000000E+00 0. -1.
        -11    1    4    4    0    0 -0.49106944569E+02  0.34621307548E+02  0.68288317808E+02  0.90958349206E+02  0.00000000000E+00 0. -1.
         11    1    4    4    0    0  0.23671039632E+02 -0.19187503808E+02  0.12283686360E+02  0.32853726885E+02  0.00000000000E+00 0.  1.
          1    1    1    2  501    0  0.38574676926E+02  0.94686947678E+01  0.16584520478E+03  0.17053531549E+03  0.00000000000E+00 0. -1.
<scales pt_clust_5="13000.00000" pt_clust_6="13000.00000" pt_clust_7="13000.00000" pt_clust_8="13000.00000" pt_clust_9="39.71979"></scales>
<clustering>
<clus scale="   39.720">  1  9  2 -1</clus>
<clus scale="   81.439">  5  6 -1 -1</clus>
<clus scale="   84.548">  2  5  1 -1</clus>
<clus scale="   89.176">  7  8 -1 -1</clus>
<clus scale="   39.720">  1  5  2 -1</clus>
</clustering>
</event>
<event>
 9    2  0.3764910E-005  0.9406721E+02  0.7546771E-02  0.1300525E+00
         -3   -1    0    0    0  501 -0.00000000000E+00  0.00000000000E+00  0.12922176424E+03  0.12922176424E+03  0.00000000000E+00 0.  1.
         21   -1    0    0  501  502  0.00000000000E+00 -0.00000000000E+00 -0.16368517030E+03  0.16368517030E+03  0.00000000000E+00 0.  1.
         23    2    1    2    0    0 -0.31812278767E+02  0.78856866572E+01  0.73208602756E+02  0.12078984712E+03  0.90313246616E+02 0.  0.
         24    2    1    2    0    0  0.11736226195E+02 -0.51714907783E+01 -0.19119812945E+02  0.81277084459E+02  0.77948148721E+02 0.  0.
        -13    1    4    4    0    0 -0.17256793169E+02  0.13464910114E+02 -0.36589253856E+02  0.42636536123E+02  0.00000000000E+00 0.  1.
         14    1    4    4    0    0  0.28993019364E+02 -0.18636400892E+02  0.17469440911E+02  0.38640548337E+02  0.00000000000E+00 0. -1.
        -11    1    3    3    0    0 -0.47184367411E+02 -0.10714416949E+02  0.81914240931E+02  0.95137301443E+02  0.00000000000E+00 0.  1.
         11    1    3    3    0    0  0.15372088644E+02  0.18600103607E+02 -0.87056381754E+01  0.25652545673E+02  0.00000000000E+00 0. -1.
         -4    1    1    2    0  502  0.20076052572E+02 -0.27141958789E+01 -0.88552195871E+02  0.90840002971E+02  0.00000000000E+00 0.  1.
<scales pt_clust_5="13000.00000" pt_clust_6="13000.00000" pt_clust_7="13000.00000" pt_clust_8="13000.00000" pt_clust_9="20.25870"></scales>
<clustering>
<clus scale="   20.259">  2  9  1 -1</clus>
<clus scale="   77.948">  5  6 -1 -1</clus>
<clus scale="   82.268">  2  5  1 -1</clus>
<clus scale="   90.313">  7  8 -1 -1</clus>
<clus scale="   20.259">  2  5  1 -1</clus>
</clustering>
</event>
<event>
 9    2  0.3764910E-005  0.9864318E+02  0.7546771E-02  0.1289769E+00
         21   -1    0    0  501  502  0.00000000000E+00  0.00000000000E+00  0.16431562766E+03  0.16431562766E+03  0.00000000000E+00 0.  1.
          4   -1    0    0  502    0 -0.00000000000E+00 -0.00000000000E+00 -0.17913607151E+03  0.17913607151E+03  0.00000000000E+00 0. -1.
         23    2    1    2    0    0  0.86796409190E+01 -0.40355567890E+02 -0.13805176959E+03  0.17037204712E+03  0.90908939754E+02 0.  0.
         24    2    1    2    0    0 -0.17607648413E+02  0.10727350544E+02  0.11576426031E+03  0.14124731555E+03  0.78258129617E+02 0.  0.
        -11    1    4    4    0    0 -0.30035879302E+02  0.10284172323E+02  0.12288297022E+03  0.12691785775E+03  0.00000000000E+00 0.  1.
         12    1    4    4    0    0  0.12428230889E+02  0.44317822119E+00 -0.71187099080E+01  0.14329457796E+02  0.00000000000E+00 0. -1.
        -11    1    3    3    0    0 -0.18118679578E+02  0.13521476168E+02 -0.33681313551E+01  0.22857409657E+02  0.00000000000E+00 0.  1.
         11    1    3    3    0    0  0.26798320497E+02 -0.53877044059E+02 -0.13468363824E+03  0.14751463747E+03  0.00000000000E+00 0. -1.
          3    1    1    2  501    0  0.89280074942E+01  0.29628217346E+02  0.74670654322E+01  0.31832336501E+02  0.00000000000E+00 0. -1.
<scales pt_clust_5="13000.00000" pt_clust_6="13000.00000" pt_clust_7="13000.00000" pt_clust_8="13000.00000" pt_clust_9="30.94415"></scales>
<clustering>
<clus scale="   30.944">  1  9  2 -1</clus>
<clus scale="   78.258">  5  6 -1 -1</clus>
<clus scale="   87.123">  1  5  2 -1</clus>
<clus scale="   90.909">  7  8 -1 -1</clus>
<clus scale="   30.944">  1  5  2 -1</clus>
</clustering>
</event>
<event>
 9    2  0.3764910E-005  0.1072630E+03  0.7546771E-02  0.1269916E+00
          4   -1    0    0  502    0 -0.00000000000E+00  0.00000000000E+00  0.55334239886E+03  0.55334239886E+03  0.00000000000E+00 0. -1.
         21   -1    0    0  501  502  0.00000000000E+00 -0.00000000000E+00 -0.54102601170E+02  0.54102601170E+02  0.00000000000E+00 0.  1.
         23    2    1    2    0    0  0.47094229979E+02  0.27107953033E+02  0.45637115647E+03  0.46885096793E+03  0.92703236515E+02 0.  0.
         24    2    1    2    0    0 -0.29387794828E+02 -0.50483908603E+02  0.40504764736E+02  0.10917395296E+03  0.82861622753E+02 0.  0.
        -13    1    4    4    0    0 -0.53712426987E+02 -0.46720015454E+02  0.13180974645E+02  0.72398361511E+02  0.00000000000E+00 0.  1.
         14    1    4    4    0    0  0.24324632159E+02 -0.37638931498E+01  0.27323790090E+02  0.36775591446E+02  0.00000000000E+00 0. -1.
        -13    1    3    3    0    0  0.57233273647E+02  0.50308363865E+02  0.39793898145E+03  0.40516911536E+03  0.00000000000E+00 0. -1.
         13    1    3    3    0    0 -0.10139043668E+02 -0.23200410833E+02  0.58432175020E+02  0.63681852571E+02  0.00000000000E+00 0.  1.
          3    1    1    2  501    0 -0.17706435151E+02  0.23375955571E+02  0.23638764866E+01  0.29420079141E+02  0.00000000000E+00 0. -1.
<scales pt_clust_5="13000.00000" pt_clust_6="13000.00000" pt_clust_7="13000.00000" pt_clust_8="13000.00000" pt_clust_9="29.32496"></scales>
<clustering>
<clus scale="   29.325">  2  9  1 -1</clus>
<clus scale="   82.862">  5  6 -1 -1</clus>
<clus scale="   92.703">  7  8 -1 -1</clus>
<clus scale="   98.881">  2  5  1 -1</clus>
<clus scale="   29.325">  2  5  1 -1</clus>
</clustering>
</event>
<event>
 9    2  0.3764910E-005  0.1734815E+03  0.7546771E-02  0.1175110E+00
          2   -1    0    0  502    0 -0.00000000000E+00  0.00000000000E+00  0.16257727793E+04  0.16257727793E+04  0.00000000000E+00 0. -1.
         21   -1    0    0  501  502  0.00000000000E+00 -0.00000000000E+00 -0.94803867914E+02  0.94803867914E+02  0.00000000000E+00 0. -1.
         24    2    1    2    0    0  0.74654603701E+02 -0.13169857806E+03  0.13974124487E+04  0.14081046170E+04  0.84138192490E+02 0.  0.
         23    2    1    2    0    0 -0.22678194426E+02  0.95052923560E+02 -0.30332386673E+02  0.13667667739E+03  0.90615129433E+02 0.  0.
        -11    1    3    3    0    0  0.43667029034E+02 -0.53759144795E+02  0.31882600784E+03  0.32626197809E+03  0.00000000000E+00 0.  1.
         12    1    3    3    0    0  0.30987574668E+02 -0.77939433262E+02  0.10785864408E+04  0.10818426389E+04  0.00000000000E+00 0. -1.
        -13    1    4    4    0    0 -0.25296675179E+02  0.12943650756E+02  0.24820120977E+02  0.37729276104E+02  0.00000000000E+00 0.  1.
         13    1    4    4    0    0  0.26184807525E+01  0.82109272804E+02 -0.55152507650E+02  0.98947401289E+02  0.00000000000E+00 0. -1.
          1    1    1    2  501    0 -0.51976409275E+02  0.36645654497E+02  0.16388884936E+03  0.17579535278E+03  0.00000000000E+00 0. -1.
<scales pt_clust_5="13000.00000" pt_clust_6="13000.00000" pt_clust_7="13000.00000" pt_clust_8="13000.00000" pt_clust_9="63.59603"></scales>
<clustering>
<clus scale="   63.596">  2  9  1 -1</clus>
<clus scale="   84.138">  5  6 -1 -1</clus>
<clus scale="   90.615">  7  8 -1 -1</clus>
<clus scale="  170.188">  1  5  2 -1</clus>
<clus scale="   63.596">  2  5  1 -1</clus>
</clustering>
</event>
<event>
 9    2  0.3764910E-005  0.9267957E+02  0.7546771E-02  0.1302651E+00
         -1   -1    0    0    0  501 -0.00000000000E+00  0.00000000000E+00  0.40572044391E+03  0.40572044391E+03  0.00000000000E+00 0.  1.
         21   -1    0    0  501  502  0.00000000000E+00 -0.00000000000E+00 -0.35822090837E+02  0.35822090837E+02  0.00000000000E+00 0. -1.
         23    2    1    2    0    0 -0.13003610956E+02  0.85869066952E+01  0.27927424958E+03  0.29406020844E+03  0.90743985188E+02 0.  0.
         24    2    1    2    0    0  0.29744104660E+02  0.27466236882E+01  0.93600871809E+02  0.12704818356E+03  0.80547265864E+02 0.  0.
        -11    1    4    4    0    0  0.41631405804E+02 -0.23431192749E+02  0.84184968191E+02  0.96795163165E+02  0.00000000000E+00 0.  1.
         12    1    4    4    0    0 -0.11887301144E+02  0.26177816437E+02  0.94159036177E+01  0.30253020392E+02  0.00000000000E+00 0. -1.
        -11    1    3    3    0    0 -0.27433037192E+02 -0.33370532911E+02  0.18336803784E+03  0.18838790114E+03  0.00000000000E+00 0.  1.
         11    1    3    3    0    0  0.14429426237E+02  0.41957439607E+02  0.95906211737E+02  0.10567230730E+03  0.00000000000E+00 0. -1.
         -2    1    1    2    0  502 -0.16740493704E+02 -0.11333530383E+02 -0.29767683082E+01  0.20434142751E+02  0.00000000000E+00 0.  1.
<scales pt_clust_5="13000.00000" pt_clust_6="13000.00000" pt_clust_7="13000.00000" pt_clust_8="13000.00000" pt_clust_9="20.21616"></scales>
<clustering>
<clus scale="   20.216">  2  9  1 -1</clus>
<clus scale="   80.547">  5  6 -1 -1</clus>
<clus scale="   82.722">  2  5  1 -1</clus>
<clus scale="   90.744">  7  8 -1 -1</clus>
<clus scale="   20.216">  2  5  1 -1</clus>
</clustering>
</event>
<event>
 9    2  0.3764910E-005  0.1005877E+03  0.7546771E-02  0.1286626E+00
         21   -1    0    0  501  502  0.00000000000E+00  0.00000000000E+00  0.83328628267E+02  0.83328628267E+02  0.00000000000E+00 0. -1.
          2   -1    0    0  502    0 -0.00000000000E+00 -0.00000000000E+00 -0.19730027664E+03  0.19730027664E+03  0.00000000000E+00 0. -1.
         24    2    1    2    0    0  0.39880144765E+01  0.35160553274E+02 -0.85293839944E+02  0.12329087069E+03  0.81691069869E+02 0.  0.
         23    2    1    2    0    0  0.40560556689E+02 -0.14192363255E+02 -0.14272884202E+02  0.10603752713E+03  0.95883575253E+02 0.  0.
        -13    1    3    3    0    0  0.24309320122E+02  0.11727445660E+01  0.48647764616E+01  0.24819033515E+02  0.00000000000E+00 0.  1.
         14    1    3    3    0    0 -0.20321305645E+02  0.33987808708E+02 -0.90158616406E+02  0.98471837172E+02  0.00000000000E+00 0. -1.
        -11    1    4    4    0    0  0.33821576184E+02  0.16611923764E+02  0.32410665837E+02  0.49702175875E+02  0.00000000000E+00 0. -1.
         11    1    4    4    0    0  0.67389805047E+01 -0.30804287019E+02 -0.46683550039E+02  0.56335351257E+02  0.00000000000E+00 0.  1.
          1    1    1    2  501    0 -0.44548571165E+02 -0.20968190019E+02 -0.14404924228E+02  0.51300507089E+02  0.00000000000E+00 0. -1.
<scales pt_clust_5="13000.00000" pt_clust_6="13000.00000" pt_clust_7="13000.00000" pt_clust_8="13000.00000" pt_clust_9="49.23657"></scales>
<clustering>
<clus scale="   49.237">  1  9  2 -1</clus>
<clus scale="   81.691">  5  6 -1 -1</clus>
<clus scale="   87.165">  2  5  1 -1</clus>
<clus scale="   95.884">  7  8 -1 -1</clus>
<clus scale="   49.237">  1  5  2 -1</clus>
</clustering>
</event>
<event>
 9    2  0.3764910E-005  0.9084165E+02  0.7546771E-02  0.1308795E+00
         -3   -1    0    0    0  501 -0.00000000000E+00  0.00000000000E+00  0.30389243720E+03  0.30389243720E+03  0.00000000000E+00 0.  1.
         21   -1    0    0  501  502  0.00000000000E+00 -0.00000000000E+00 -0.47753298214E+02  0.47753298214E+02  0.00000000000E+00 0. -1.
         24    2    1    2    0    0 -0.34399666975E+01 -0.57237080598E+01  0.18526916700E+03  0.20108755554E+03  0.77890606280E+02 0.  0.
         23    2    1    2    0    0 -0.11052769108E+02  0.20792481198E+02  0.84259337138E+02  0.12573112981E+03  0.90300554424E+02 0.  0.
        -13    1    3    3    0    0 -0.22254329220E+02  0.28338475794E+02  0.11795032301E+03  0.12333127372E+03  0.00000000000E+00 0.  1.
         14    1    3    3    0    0  0.18814362523E+02 -0.34062183854E+02  0.67318843999E+02  0.77756281826E+02  0.00000000000E+00 0. -1.
        -13    1    4    4    0    0 -0.48815795463E+02  0.25420043544E+02  0.54184066389E+02  0.77233888617E+02  0.00000000000E+00 0.  1.
         13    1    4    4    0    0  0.37763026356E+02 -0.46275623460E+01  0.30075270749E+02  0.48497241194E+02  0.00000000000E+00 0. -1.
         -4    1    1    2    0  502  0.14492735805E+02 -0.15068773138E+02 -0.13389365162E+02  0.24827050056E+02  0.00000000000E+00 0.  1.
<scales pt_clust_5="13000.00000" pt_clust_6="13000.00000" pt_clust_7="13000.00000" pt_clust_8="13000.00000" pt_clust_9="20.90711"></scales>
<clustering>
<clus scale="   20.907">  2  9  1 -1</clus>
<clus scale="   77.891">  5  6 -1 -1</clus>
<clus scale="   78.517">  1  5  2 -1</clus>
<clus scale="   90.301">  7  8 -1 -1</clus>
<clus scale="   20.907">  2  5  1 -1</clus>
</clustering>
</event>
<event>
 9    2  0.3764910E-005  0.8794584E+02  0.7546771E-02  0.1309628E+00
          2   -1    0    0  502    0 -0.00000000000E+00  0.00000000000E+00  0.32980259893E+03  0.32980259893E+03  0.00000000000E+00 0. -1.
         21   -1    0    0  501  502  0.00000000000E+00 -0.00000000000E+00 -0.10895660592E+03  0.10895660592E+03  0.00000000000E+00 0.  1.
         24    2    1    2    0    0 -0.98707570695E+01  0.19370070685E+02  0.24950137105E+03  0.26380104093E+03  0.82869919505E+02 0.  0.
         23    2    1    2    0    0 -0.42856897417E+02 -0.22460164999E+02  0.23049766307E+02  0.10104486212E+03  0.85659790833E+02 0.  0.
        -13    1    3    3    0    0 -0.44512037100E+02  0.14909967619E+02  0.10298652168E+03  0.11318061773E+03  0.00000000000E+00 0.  1.
         14    1    3    3    0    0  0.34641280030E+02  0.44601030658E+01  0.14651484937E+03  0.15062042321E+03  0.00000000000E+00 0. -1.
        -13    1    4    4    0    0  0.25076904218E+02 -0.11011783219E+01  0.15337555669E+02  0.29416055696E+02  0.00000000000E+00 0. -1.
         13    1    4    4    0    0 -0.67933801635E+02 -0.21358986677E+02  0.77122106383E+01  0.71628806421E+02  0.00000000000E+00 0.  1.
          1    1    1    2  501    0  0.52727654486E+02  0.30900943139E+01 -0.51705144347E+02  0.73913301797E+02  0.00000000000E+00 0. -1.
<scales pt_clust_5="13000.00000" pt_clust_6="13000.00000" pt_clust_7="13000.00000" pt_clust_8="13000.00000" pt_clust_9="52.81812"></scales>
<clustering>
<clus scale="   52.818">  2  9  1 -1</clus>
<clus scale="   82.870">  5  6 -1 -1</clus>
<clus scale="   85.231">  1  5  2 -1</clus>
<clus scale="   85.660">  7  8 -1 -1</clus>
<clus scale="   52.818">  2  5  1 -1</clus>
</clustering>
</event>
<event>
 9    2  0.3764910E-005  0.1129398E+03  0.7546771E-02  0.1259110E+00
         21   -1    0    0  501  502  0.00000000000E+00  0.00000000000E+00  0.92727566149E+02  0.92727566149E+02  0.00000000000E+00 0. -1.
          2   -1    0    0  502    0 -0.00000000000E+00 -0.00000000000E+00 -0.41347043921E+03  0.41347043921E+03  0.00000000000E+00 0. -1.
         23    2    1    2    0    0 -0.52836562952E+02 -0.21510779464E+02 -0.17123051752E+03  0.20247578651E+03  0.91772206970E+02 0.  0.
         24    2    1    2    0    0  0.78683875594E+02  0.79635342052E+02  0.31041034837E+01  0.13837914549E+03  0.81278610129E+02 0.  0.
        -13    1    4    4    0    0  0.20424864701E+02 -0.37744415387E+01  0.26808000866E+02  0.33912983021E+02  0.00000000000E+00 0.  1.
         14    1    4    4    0    0  0.58259010893E+02  0.83409783590E+02 -0.23703897382E+02  0.10446616246E+03  0.00000000000E+00 0. -1.
        -11    1    3    3    0    0 -0.11761177651E+02  0.34667552704E+02 -0.42135176833E+02  0.55817001325E+02  0.00000000000E+00 0.  1.
         11    1    3    3    0    0 -0.41075385301E+02 -0.56178332167E+02 -0.12909534069E+03  0.14665878518E+03  0.00000000000E+00 0. -1.
          1    1    1    2  501    0 -0.25847312643E+02 -0.58124562588E+02 -0.15261645902E+03  0.16534307337E+03  0.00000000000E+00 0. -1.
<scales pt_clust_5="13000.00000" pt_clust_6="13000.00000" pt_clust_7="13000.00000" pt_clust_8="13000.00000" pt_clust_9="63.61252"></scales>
<clustering>
<clus scale="   63.613">  1  9  2 -1</clus>
<clus scale="   81.279">  5  6 -1 -1</clus>
<clus scale="   91.772">  7  8 -1 -1</clus>
<clus scale="  104.592">  1  5  2 -1</clus>
<clus scale="   63.613">  1  5  2 -1</clus>
</clustering>
</event>
<event>
 9    2  0.3764910E-005  0.1498572E+03  0.7546771E-02  0.1205376E+00
          2   -1    0    0  502    0 -0.00000000000E+00  0.00000000000E+00  0.24143419406E+03  0.24143419406E+03  0.00000000000E+00 0. -1.
         21   -1    0    0  501  502  0.00000000000E+00 -0.00000000000E+00 -0.13354887475E+03  0.13354887475E+03  0.00000000000E+00 0.  1.
         23    2    1    2    0    0 -0.73965395777E+02 -0.70279545605E+02  0.13253381109E+03  0.19662998281E+03  0.10338300031E+03 0.  0.
         24    2    1    2    0    0  0.89120092080E+02  0.90202514317E+02 -0.28380309913E+02  0.15304466905E+03  0.80860029261E+02 0.  0.
        -13    1    4    4    0    0  0.48813118528E+02  0.97831946196E+02 -0.19182691394E+02  0.11100353997E+03  0.00000000000E+00 0.  1.
         14    1    4    4    0    0  0.40306973552E+02 -0.76294318796E+01 -0.91976185190E+01  0.42041129078E+02  0.00000000000E+00 0. -1.
        -13    1    3    3    0    0 -0.54960125993E+02 -0.96713983779E+02  0.90134862233E+02  0.14317298452E+03  0.00000000000E+00 0. -1.
         13    1    3    3    0    0 -0.19005269784E+02  0.26434438174E+02  0.42398948860E+02  0.53456998284E+02  0.00000000000E+00 0.  1.
          1    1    1    2  501    0 -0.15154696303E+02 -0.19922968712E+02  0.37318181228E+01  0.25308416957E+02  0.00000000000E+00 0. -1.
<scales pt_clust_5="13000.00000" pt_clust_6="13000.00000" pt_clust_7="13000.00000" pt_clust_8="13000.00000" pt_clust_9="25.03177"></scales>
<clustering>
<clus scale="   25.032">  2  9  1 -1</clus>
<clus scale="   80.860">  5  6 -1 -1</clus>
<clus scale="  103.383">  7  8 -1 -1</clus>
<clus scale="  135.305">  2  5  1 -1</clus>
<clus scale="   25.032">  2  5  1 -1</clus>
</clustering>
</event>
<event>
 9    2  0.3764910E-005  0.9981029E+02  0.7546771E-02  0.1287105E+00
         -1   -1    0    0    0  501 -0.00000000000E+00  0.00000000000E+00  0.14275054381E+03  0.14275054381E+03  0.00000000000E+00 0.  1.
         21   -1    0    0  501  502  0.00000000000E+00 -0.00000000000E+00 -0.17293743067E+03  0.17293743067E+03  0.00000000000E+00 0.  1.
         23    2    1    2    0    0 -0.23220063767E+02  0.19695431421E+01 -0.56156442607E+02  0.11013553106E+03  0.91832666810E+02 0.  0.
         24    2    1    2    0    0  0.47223790969E+02 -0.33056750736E+02 -0.57250768718E+02  0.11352953432E+03  0.79299870378E+02 0.  0.
        -13    1    4    4    0    0  0.50999518297E+02 -0.54809057957E+02 -0.50990548377E+02  0.90581563932E+02  0.00000000000E+00 0.  1.
         14    1    4    4    0    0 -0.37757273283E+01  0.21752307221E+02 -0.62602203411E+01  0.22947970390E+02  0.00000000000E+00 0. -1.
        -11    1    3    3    0    0 -0.33151302813E+02  0.41338535318E+02 -0.40190710067E+02  0.66506966223E+02  0.00000000000E+00 0.  1.
         11    1    3    3    0    0  0.99312390463E+01 -0.39368992176E+02 -0.15965732540E+02  0.43628564835E+02  0.00000000000E+00 0. -1.
         -2    1    1    2    0  502 -0.24003727202E+02  0.31087207594E+02  0.83220324460E+02  0.92022909098E+02  0.00000000000E+00 0.  1.
<scales pt_clust_5="13000.00000" pt_clust_6="13000.00000" pt_clust_7="13000.00000" pt_clust_8="13000.00000" pt_clust_9="39.27588"></scales>
<clustering>
<clus scale="   39.276">  2  9  1 -1</clus>
<clus scale="   79.300">  5  6 -1 -1</clus>
<clus scale="   88.416">  2  5  1 -1</clus>
<clus scale="   91.833">  7  8 -1 -1</clus>
<clus scale="   39.276">  2  5  1 -1</clus>
</clustering>
</event>
<event>
 9    2  0.3764910E-005  0.9212168E+02  0.7546771E-02  0.1304293E+00
          2   -1    0    0  502    0 -0.00000000000E+00  0.00000000000E+00  0.36304642756E+03  0.36304642756E+03  0.00000000000E+00 0. -1.
         21   -1    0    0  501  502  0.00000000000E+00 -0.00000000000E+00 -0.61803759183E+02  0.61803759183E+02  0.00000000000E+00 0. -1.
         24    2    1    2    0    0 -0.12679549189E+02 -0.15891403842E+02  0.25012627117E+03  0.26316613049E+03  0.79246154624E+02 0.  0.
         23    2    1    2    0    0 -0.13098249716E+02  0.28854204546E+02  0.77285771832E+02  0.12273068301E+03  0.89919968631E+02 0.  0.
        -11    1    3    3    0    0  0.23359713020E+02  0.18738889207E+02  0.67919039506E+02  0.74228148896E+02  0.00000000000E+00 0.  1.
         12    1    3    3    0    0 -0.36039262209E+02 -0.34630293049E+02  0.18220723166E+03  0.18893798159E+03  0.00000000000E+00 0. -1.
        -11    1    4    4    0    0 -0.40962468143E+02  0.28704183292E+02  0.80403681676E+02  0.94692164206E+02  0.00000000000E+00 0. -1.
         11    1    4    4    0    0  0.27864218427E+02  0.15002125421E+00 -0.31179098441E+01  0.28038518804E+02  0.00000000000E+00 0.  1.
          1    1    1    2  501    0  0.25777798905E+02 -0.12962800705E+02 -0.26169374629E+02  0.38953373242E+02  0.00000000000E+00 0. -1.
<scales pt_clust_5="13000.00000" pt_clust_6="13000.00000" pt_clust_7="13000.00000" pt_clust_8="13000.00000" pt_clust_9="28.85358"></scales>
<clustering>
<clus scale="   28.854">  2  9  1 -1</clus>
<clus scale="   79.246">  5  6 -1 -1</clus>
<clus scale="   81.736">  1  5  2 -1</clus>
<clus scale="   89.920">  7  8 -1 -1</clus>
<clus scale="   28.854">  2  5  1 -1</clus>
</clustering>
</event>
<event>
 9    2  0.3764910E-005  0.9186136E+02  0.7546771E-02  0.1303358E+00
         -1   -1    0    0    0  501 -0.00000000000E+00  0.00000000000E+00  0.54430095410E+02  0.54430095410E+02  0.00000000000E+00 0.  1.
         21   -1    0    0  501  502  0.00000000000E+00 -0.00000000000E+00 -0.46579976432E+03  0.46579976432E+03  0.00000000000E+00 0. -1.
         24    2    1    2    0    0 -0.35381685464E+02 -0.19108660736E+01 -0.81216979669E+02  0.11997921859E+03  0.80890667149E+02 0.  0.
         23    2    1    2    0    0 -0.22626907712E+02 -0.20192915480E+02 -0.32453038546E+03  0.33791939423E+03  0.89161735736E+02 0.  0.
        -13    1    3    3    0    0 -0.50343259887E+02  0.21875199763E+02 -0.32644805946E+02  0.63864321306E+02  0.00000000000E+00 0.  1.
         14    1    3    3    0    0  0.14961574422E+02 -0.23786065836E+02 -0.48572173722E+02  0.56114897285E+02  0.00000000000E+00 0. -1.
        -13    1    4    4    0    0  0.30770191355E+02  0.79977603145E+01 -0.14708760930E+03  0.15048433027E+03  0.00000000000E+00 0.  1.
         13    1    4    4    0    0 -0.53397099067E+02 -0.28190675795E+02 -0.17744277616E+03  0.18743506396E+03  0.00000000000E+00 0. -1.
         -2    1    1    2    0  502  0.58008593176E+02  0.22103781554E+02 -0.56223037774E+01  0.62331246908E+02  0.00000000000E+00 0.  1.
<scales pt_clust_5="13000.00000" pt_clust_6="13000.00000" pt_clust_7="13000.00000" pt_clust_8="13000.00000" pt_clust_9="62.07719"></scales>
<clustering>
<clus scale="   62.077">  2  9  1 -1</clus>
<clus scale="   80.891">  5  6 -1 -1</clus>
<clus scale="   83.857">  1  5  2 -1</clus>
<clus scale="   89.162">  7  8 -1 -1</clus>
<clus scale="   62.077">  2  5  1 -1</clus>
</clustering>
</event>
<event>
 9    2  0.3764910E-005  0.9915244E+02  0.7546771E-02  0.1289927E+00
          2   -1    0    0  502    0 -0.00000000000E+00  0.00000000000E+00  0.80475956117E+02  0.80475956117E+02  0.00000000000E+00 0. -1.
         21   -1    0    0  501  502  0.00000000000E+00 -0.00000000000E+00 -0.33789593029E+03  0.33789593029E+03  0.00000000000E+00 0. -1.
         23    2    1    2    0    0 -0.35933582173E+02 -0.84280706608E+01  0.47881760410E+00  0.10043290085E+03  0.93403873603E+02 0.  0.
         24    2    1    2    0    0  0.10056743634E+02  0.12341560466E+02 -0.27511069458E+03  0.28661526016E+03  0.78796959824E+02 0.  0.
        -11    1    4    4    0    0  0.25713951906E+02  0.10282069732E+02 -0.29368941268E+02  0.40366607385E+02  0.00000000000E+00 0.  1.
         12    1    4    4    0    0 -0.15657208272E+02  0.20594907339E+01 -0.24574175331E+03  0.24624865277E+03  0.00000000000E+00 0. -1.
        -11    1    3    3    0    0  0.27937000560E+02 -0.19763012290E+02  0.79603552979E+01  0.35134312453E+02  0.00000000000E+00 0. -1.
         11    1    3    3    0    0 -0.63870582733E+02  0.11334941629E+02 -0.74815376938E+01  0.65298588397E+02  0.00000000000E+00 0.  1.
          1    1    1    2  501    0  0.25876838539E+02 -0.39134898054E+01  0.17211902796E+02  0.31323725402E+02  0.00000000000E+00 0. -1.
<scales pt_clust_5="13000.00000" pt_clust_6="13000.00000" pt_clust_7="13000.00000" pt_clust_8="13000.00000" pt_clust_9="26.17111"></scales>
<clustering>
<clus scale="   26.171">  2  9  1 -1</clus>
<clus scale="   78.797">  5  6 -1 -1</clus>
<clus scale="   85.533">  2  5  1 -1</clus>
<clus scale="   93.404">  7  8 -1 -1</clus>
<clus scale="   26.171">  2  5  1 -1</clus>
</clustering>
</event>
<event>
 9    2  0.3764910E-005  0.2972129E+03  0.7546771E-02  0.1131236E+00
         21   -1    0    0  501  502  0.00000000000E+00  0.00000000000E+00  0.88263517247E+03  0.88263517247E+03  0.00000000000E+00 0.  1.
          2   -1    0    0  502    0 -0.00000000000E+00 -0.00000000000E+00 -0.26059895489E+03  0.26059895489E+03  0.00000000000E+00 0. -1.
         24    2    1    2    0    0 -0.25571689860E+02 -0.46784041679E+02  0.18327874596E+03  0.20652401656E+03  0.78856913566E+02 0.  0.
         23    2    1    2    0    0 -0.27140131581E+03 -0.58774485099E+02  0.53293460384E+03  0.60776497723E+03  0.90806724738E+02 0.  0.
        -13    1    3    3    0    0 -0.34532641899E+02 -0.65016669758E+02  0.12842745349E+03  0.14803135314E+03  0.00000000000E+00 0.  1.
         14    1    3    3    0    0  0.89609520390E+01  0.18232628080E+02  0.54851292470E+02  0.58492663418E+02  0.00000000000E+00 0. -1.
        -13    1    4    4    0    0 -0.13039218143E+03  0.17763668731E+02  0.24897494192E+03  0.28161354834E+03  0.00000000000E+00 0.  1.
         13    1    4    4    0    0 -0.14100913438E+03 -0.76538153830E+02  0.28395966192E+03  0.32615142889E+03  0.00000000000E+00 0. -1.
          1    1    1    2  501    0  0.29697300567E+03  0.10555852678E+03 -0.94177132216E+02  0.32894513358E+03  0.00000000000E+00 0. -1.
<scales pt_clust_5="13000.00000" pt_clust_6="13000.00000" pt_clust_7="13000.00000" pt_clust_8="13000.00000" pt_clust_9="283.00125"></scales>
<clustering>
<clus scale="   78.857">  5  6 -1 -1</clus>
<clus scale="   90.807">  7  8 -1 -1</clus>
<clus scale="   95.190">  2  5  1 -1</clus>
<clus scale="  283.001">  1  9  2 -1</clus>
<clus scale="  283.001">  1  5  2 -1</clus>
</clustering>
</event>
<event>
 9    2  0.3764910E-005  0.9808736E+02  0.7546771E-02  0.1291502E+00
          2   -1    0    0  502    0 -0.00000000000E+00  0.00000000000E+00  0.11651529633E+03  0.11651529633E+03  0.00000000000E+00 0. -1.
         21   -1    0    0  501  502  0.00000000000E+00 -0.00000000000E+00 -0.95362759489E+02  0.95362759489E+02  0.00000000000E+00 0. -1.
         24    2    1    2    0    0  0.46656349652E+01  0.38150960196E+02  0.23530801446E+02  0.92284377988E+02  0.80532253728E+02 0.  0.
         23    2    1    2    0    0  0.48533854834E+01 -0.16623551799E+02 -0.78081359093E+01  0.95437424710E+02  0.93527735051E+02 0.  0.
        -13    1    3    3    0    0 -0.28470847546E+02 -0.70246171165E+01  0.21246067938E+02  0.36212288087E+02  0.00000000000E+00 0.  1.
         14    1    3    3    0    0  0.33136482511E+02  0.45175577312E+02  0.22847335080E+01  0.56072089901E+02  0.00000000000E+00 0. -1.
        -13    1    4    4    0    0 -0.28900067486E+02 -0.35892443252E+01 -0.38303923644E+02  0.48117430751E+02  0.00000000000E+00 0.  1.
         13    1    4    4    0    0  0.33753452970E+02 -0.13034307474E+02  0.30495787734E+02  0.47319993959E+02  0.00000000000E+00 0. -1.
          1    1    1    2  501    0 -0.95190204486E+01 -0.21527408396E+02  0.54298713061E+01  0.24156253123E+02  0.00000000000E+00 0. -1.
<scales pt_clust_5="13000.00000" pt_clust_6="13000.00000" pt_clust_7="13000.00000" pt_clust_8="13000.00000" pt_clust_9="23.53809"></scales>
<clustering>
<clus scale="   23.538">  2  9  1 -1</clus>
<clus scale="   80.532">  5  6 -1 -1</clus>
<clus scale="   85.785">  1  5  2 -1</clus>
<clus scale="   93.528">  7  8 -1 -1</clus>
<clus scale="   23.538">  2  5  1 -1</clus>
</clustering>
</event>
<event>
 9    2  0.3764910E-005  0.1104853E+03  0.7546771E-02  0.1263640E+00
         21   -1    0    0  501  502  0.00000000000E+00  0.00000000000E+00  0.27474735460E+03  0.27474735460E+03  0.00000000000E+00 0. -1.
          2   -1    0    0  502    0 -0.00000000000E+00 -0.00000000000E+00 -0.25725657037E+03  0.25725657037E+03  0.00000000000E+00 0. -1.
         24    2    1    2    0    0  0.65412312946E+02 -0.59782013316E+01 -0.19553106855E+03  0.22138243058E+03  0.80394478841E+02 0.  0.
         23    2    1    2    0    0 -0.19547305444E+02 -0.37819451521E+02  0.22481124099E+03  0.24611705281E+03  0.90670290304E+02 0.  0.
        -11    1    3    3    0    0  0.77380052565E+02  0.14667530167E+02 -0.16307697674E+03  0.18109916985E+03  0.00000000000E+00 0.  1.
         12    1    3    3    0    0 -0.11967739619E+02 -0.20645731498E+02 -0.32454091806E+02  0.40283260737E+02  0.00000000000E+00 0. -1.
        -13    1    4    4    0    0  0.26463195809E+02 -0.36584730300E+02  0.60566390973E+02  0.75544893534E+02  0.00000000000E+00 0.  1.
         13    1    4    4    0    0 -0.46010501253E+02 -0.12347212207E+01  0.16424485002E+03  0.17057215928E+03  0.00000000000E+00 0. -1.
          1    1    1    2  501    0 -0.45865007502E+02  0.43797652852E+02 -0.11789388209E+02  0.64504441575E+02  0.00000000000E+00 0. -1.
<scales pt_clust_5="13000.00000" pt_clust_6="13000.00000" pt_clust_7="13000.00000" pt_clust_8="13000.00000" pt_clust_9="63.41796"></scales>
<clustering>
<clus scale="   63.418">  1  9  2 -1</clus>
<clus scale="   80.394">  5  6 -1 -1</clus>
<clus scale="   90.670">  7  8 -1 -1</clus>
<clus scale="  102.221">  2  5  1 -1</clus>
<clus scale="   63.418">  1  5  2 -1</clus>
</clustering>
</event>
<event>
 9    2  0.3764910E-005  0.1084019E+03  0.7546771E-02  0.1269548E+00
         -3   -1    0    0    0  501 -0.00000000000E+00  0.00000000000E+00  0.56799489320E+02  0.56799489320E+02  0.00000000000E+00 0.  1.
         21   -1    0    0  501  502  0.00000000000E+00 -0.00000000000E+00 -0.52639930005E+03  0.52639930005E+03  0.00000000000E+00 0.  1.
         23    2    1    2    0    0  0.40203820914E+02  0.23594188425E+02 -0.25347928420E+02  0.10746888231E+03  0.93455926752E+02 0.  0.
         24    2    1    2    0    0 -0.83882497926E+02 -0.37645593975E+02 -0.28016946805E+03  0.30535295002E+03  0.79322311195E+02 0.  0.
        -11    1    4    4    0    0 -0.69068270705E+02 -0.59340372129E+02 -0.17902171840E+03  0.20084939990E+03  0.00000000000E+00 0.  1.
         12    1    4    4    0    0 -0.14814227221E+02  0.21694778154E+02 -0.10114774965E+03  0.10450355012E+03  0.00000000000E+00 0. -1.
        -11    1    3    3    0    0  0.18196574357E+02 -0.97370027804E+01  0.31701570423E+02  0.37827425352E+02  0.00000000000E+00 0.  1.
         11    1    3    3    0    0  0.22007246557E+02  0.33331191206E+02 -0.57049498844E+02  0.69641456953E+02  0.00000000000E+00 0. -1.
         -4    1    1    2    0  502  0.43678677012E+02  0.14051405549E+02 -0.16408241425E+03  0.17037695704E+03  0.00000000000E+00 0.  1.
<scales pt_clust_5="13000.00000" pt_clust_6="13000.00000" pt_clust_7="13000.00000" pt_clust_8="13000.00000" pt_clust_9="45.88321"></scales>
<clustering>
<clus scale="   45.883">  2  9  1 -1</clus>
<clus scale="   79.322">  5  6 -1 -1</clus>
<clus scale="   93.456">  7  8 -1 -1</clus>
<clus scale="   96.483">  2  5  1 -1</clus>
<clus scale="   45.883">  2  5  1 -1</clus>
</clustering>
</event>
<event>
 9    2  0.3764910E-005  0.1368096E+03  0.7546771E-02  0.1229907E+00
         21   -1    0    0  501  502  0.00000000000E+00  0.00000000000E+00  0.87094527775E+02  0.87094527775E+02  0.00000000000E+00 0.  1.
          2   -1    0    0  502    0 -0.00000000000E+00 -0.00000000000E+00 -0.60287666078E+03  0.60287666078E+03  0.00000000000E+00 0. -1.
         24    2    1    2    0    0 -0.67735023845E+02  0.89597751011E+01 -0.41163401291E+03  0.42477140308E+03  0.79497630549E+02 0.  0.
         23    2    1    2    0    0  0.73871400103E+02 -0.30607950170E+02 -0.15458710506E+03  0.20996945140E+03  0.11745708622E+03 0.  0.
        -13    1    3    3    0    0 -0.19599515963E+02  0.75246675930E+01 -0.16469681276E+02  0.26683553918E+02  0.00000000000E+00 0.  1.
         14    1    3    3    0    0 -0.48135507882E+02  0.14351075081E+01 -0.39516433163E+03  0.39808784916E+03  0.00000000000E+00 0. -1.
        -11    1    4    4    0    0 -0.13436958446E+02 -0.45210058375E+02 -0.85628805899E+02  0.97758854485E+02  0.00000000000E+00 0. -1.
         11    1    4    4    0    0  0.87308358549E+02  0.14602108205E+02 -0.68958299165E+02  0.11221059692E+03  0.00000000000E+00 0.  1.
          1    1    1    2  501    0 -0.61363762580E+01  0.21648175069E+02  0.50438984969E+02  0.55230334076E+02  0.00000000000E+00 0. -1.
<scales pt_clust_5="13000.00000" pt_clust_6="13000.00000" pt_clust_7="13000.00000" pt_clust_8="13000.00000" pt_clust_9="22.50108"></scales>
<clustering>
<clus scale="   22.501">  1  9  2 -1</clus>
<clus scale="   79.498">  5  6 -1 -1</clus>
<clus scale="  106.022">  2  5  1 -1</clus>
<clus scale="  117.457">  7  8 -1 -1</clus>
<clus scale="   22.501">  1  5  2 -1</clus>
</clustering>
</event>
<event>
 9    2  0.3764910E-005  0.9359252E+02  0.7546771E-02  0.1303120E+00
         21   -1    0    0  501  502  0.00000000000E+00  0.00000000000E+00  0.26688301528E+03  0.26688301528E+03  0.00000000000E+00 0.  1.
         -1   -1    0    0    0  501 -0.00000000000E+00 -0.00000000000E+00 -0.23278691982E+03  0.23278691982E+03  0.00000000000E+00 0.  1.
         23    2    1    2    0    0 -0.14911347147E+02  0.65438402514E+01 -0.18102038008E+03  0.20358997908E+03  0.91735115751E+02 0.  0.
         24    2    1    2    0    0  0.37258352874E+02  0.36418090186E+02  0.20546212571E+02  0.95573838002E+02  0.77445138696E+02 0.  0.
        -11    1    4    4    0    0 -0.16403253884E+02  0.17888603339E+02 -0.15057713388E+02  0.28562275817E+02  0.00000000000E+00 0.  1.
         12    1    4    4    0    0  0.53661606758E+02  0.18529486847E+02  0.35603925960E+02  0.67011562184E+02  0.00000000000E+00 0. -1.
        -11    1    3    3    0    0 -0.17239769661E+02 -0.39966936577E+02 -0.11356906278E+03  0.12162441243E+03  0.00000000000E+00 0.  1.
         11    1    3    3    0    0  0.23284225142E+01  0.46510776829E+02 -0.67451317295E+02  0.81965566657E+02  0.00000000000E+00 0. -1.
         -2    1    1    2    0  502 -0.22347005727E+02 -0.42961930437E+02  0.19457026297E+03  0.20050611802E+03  0.00000000000E+00 0.  1.
<scales pt_clust_5="13000.00000" pt_clust_6="13000.00000" pt_clust_7="13000.00000" pt_clust_8="13000.00000" pt_clust_9="48.42640"></scales>
<clustering>
<clus scale="   48.426">  1  9  2 -1</clus>
<clus scale="   77.445">  5  6 -1 -1</clus>
<clus scale="   79.637">  1  5  2 -1</clus>
<clus scale="   91.735">  7  8 -1 -1</clus>
<clus scale="   48.426">  1  5  2 -1</clus>
</clustering>
</event>
<event>
 9    2  0.3764910E-005  0.1253159E+03  0.7546771E-02  0.1257799E+00
         -1   -1    0    0    0  501 -0.00000000000E+00  0.00000000000E+00  0.53185945636E+03  0.53185945636E+03  0.00000000000E+00 0.  1.
         21   -1    0    0  501  502  0.00000000000E+00 -0.00000000000E+00 -0.58308708577E+02  0.58308708577E+02  0.00000000000E+00 0. -1.
         24    2    1    2    0    0 -0.59498865988E+01 -0.21007844844E+02  0.90610258607E+01  0.79087196484E+02  0.75471529483E+02 0.  0.
         23    2    1    2    0    0 -0.54522543017E+02  0.76135852651E+02  0.30102906453E+03  0.32828217605E+03  0.91549514831E+02 0.  0.
        -11    1    3    3    0    0 -0.33975096742E+02  0.65197315654E+01  0.17707619082E+02  0.38863528814E+02  0.00000000000E+00 0.  1.
         12    1    3    3    0    0  0.28025210143E+02 -0.27527576409E+02 -0.86465932209E+01  0.40223667670E+02  0.00000000000E+00 0. -1.
        -13    1    4    4    0    0  0.83983932213E+00 -0.20002355050E+02  0.45500201945E+02  0.49709837202E+02  0.00000000000E+00 0. -1.
         13    1    4    4    0    0 -0.55362382339E+02  0.96138207701E+02  0.25552886258E+03  0.27857233885E+03  0.00000000000E+00 0.  1.
         -2    1    1    2    0  502  0.60472429616E+02 -0.55128007807E+02  0.16346065740E+03  0.18279879241E+03  0.00000000000E+00 0.  1.
<scales pt_clust_5="13000.00000" pt_clust_6="13000.00000" pt_clust_7="13000.00000" pt_clust_8="13000.00000" pt_clust_9="85.57314"></scales>
<clustering>
<clus scale="   75.472">  5  6 -1 -1</clus>
<clus scale="   78.566">  1  5  2 -1</clus>
<clus scale="   85.573">  2  9  1 -1</clus>
<clus scale="   91.550">  7  8 -1 -1</clus>
<clus scale="   85.573">  2  5  1 -1</clus>
</clustering>
</event>
<event>
 9    2  0.3764910E-005  0.1226414E+03  0.7546771E-02  0.1241924E+00
          2   -1    0    0  502    0 -0.00000000000E+00  0.00000000000E+00  0.50633079959E+03  0.50633079959E+03  0.00000000000E+00 0. -1.
         21   -1    0    0  501  502  0.00000000000E+00 -0.00000000000E+00 -0.51593284519E+02  0.51593284519E+02  0.00000000000E+00 0.  1.
         23    2    1    2    0    0 -0.80247620455E+02 -0.64660270000E+02  0.34307951075E+03  0.36962800145E+03  0.91108054861E+02 0.  0.
         24    2    1    2    0    0  0.39013110895E+02  0.31320182359E+02  0.90626208032E+02  0.13125063869E+03  0.80688561323E+02 0.  0.
        -11    1    4    4    0    0  0.48092949220E+02  0.41876237838E+02  0.32681221930E+02  0.71656216248E+02  0.00000000000E+00 0.  1.
         12    1    4    4    0    0 -0.90798383254E+01 -0.10556055479E+02  0.57944986101E+02  0.59594422437E+02  0.00000000000E+00 0. -1.
        -11    1    3    3    0    0 -0.49885376593E+02 -0.48749331014E+02  0.32182027066E+03  0.32929217221E+03  0.00000000000E+00 0. -1.
         11    1    3    3    0    0 -0.30362243862E+02 -0.15910938986E+02  0.21259240087E+02  0.40335829244E+02  0.00000000000E+00 0.  1.
          1    1    1    2  501    0  0.41234509560E+02  0.33340087641E+02  0.21031796296E+02  0.57045443972E+02  0.00000000000E+00 0. -1.
<scales pt_clust_5="13000.00000" pt_clust_6="13000.00000" pt_clust_7="13000.00000" pt_clust_8="13000.00000" pt_clust_9="53.02684"></scales>
<clustering>
<clus scale="   53.027">  2  9  1 -1</clus>
<clus scale="   80.689">  5  6 -1 -1</clus>
<clus scale="   91.108">  7  8 -1 -1</clus>
<clus scale="  115.112">  2  5  1 -1</clus>
<clus scale="   53.027">  2  5  1 -1</clus>
</clustering>
</event>
<event>
 9    2  0.3764910E-005  0.1033785E+03  0.7546771E-02  0.1281401E+00
         21   -1    0    0  501  502  0.00000000000E+00  0.00000000000E+00  0.61457436304E+02  0.61457436304E+02  0.00000000000E+00 0. -1.
          2   -1    0    0  502    0 -0.00000000000E+00 -0.00000000000E+00 -0.35621690100E+03  0.35621690100E+03  0.00000000000E+00 0. -1.
         23    2    1    2    0    0  0.43525147183E+02 -0.14076929784E+02 -0.14853854880E+03  0.18212656341E+03  0.94940961812E+02 0.  0.
         24    2    1    2    0    0 -0.31982638065E+02 -0.57566527176E+02 -0.47509242804E+02  0.11303243263E+03  0.78628293157E+02 0.  0.
        -13    1    4    4    0    0 -0.12218643729E+02  0.19451660337E+02 -0.12514889988E+02  0.26158838198E+02  0.00000000000E+00 0.  1.
         14    1    4    4    0    0 -0.19763994336E+02 -0.77018187513E+02 -0.34994352816E+02  0.86873594428E+02  0.00000000000E+00 0. -1.
        -13    1    3    3    0    0  0.21557215198E+02  0.28337484532E+02 -0.12158846853E+02  0.37623983222E+02  0.00000000000E+00 0.  1.
         13    1    3    3    0    0  0.21967931985E+02 -0.42414414316E+02 -0.13637970195E+03  0.14450258019E+03  0.00000000000E+00 0. -1.
          1    1    1    2  501    0 -0.11542509117E+02  0.71643456960E+02 -0.98711673090E+02  0.12251534127E+03  0.00000000000E+00 0. -1.
<scales pt_clust_5="13000.00000" pt_clust_6="13000.00000" pt_clust_7="13000.00000" pt_clust_8="13000.00000" pt_clust_9="72.56735"></scales>
<clustering>
<clus scale="   72.567">  1  9  2 -1</clus>
<clus scale="   78.628">  5  6 -1 -1</clus>
<clus scale="   88.633">  1  5  2 -1</clus>
<clus scale="   94.941">  7  8 -1 -1</clus>
<clus scale="   72.567">  1  5  2 -1</clus>
</clustering>
</event>
<event>
 9    2  0.3764910E-005  0.2103422E+03  0.7546771E-02  0.1159608E+00
         21   -1    0    0  501  502  0.00000000000E+00  0.00000000000E+00  0.39255618770E+03  0.39255618770E+03  0.00000000000E+00 0.  1.
         -3   -1    0    0    0  501 -0.00000000000E+00 -0.00000000000E+00 -0.27760442479E+03  0.27760442479E+03  0.00000000000E+00 0.  1.
         24    2    1    2    0    0 -0.65072702046E+02 -0.87259576932E+02  0.24858527257E+02  0.13858806521E+03  0.82097595119E+02 0.  0.
         23    2    1    2    0    0  0.89273663081E+02 -0.11365316487E+03 -0.14289418689E+03  0.22297125857E+03  0.91709348996E+02 0.  0.
        -13    1    3    3    0    0 -0.85728124173E+01 -0.61809256521E+02 -0.15929016203E+02  0.64401947654E+02  0.00000000000E+00 0.  1.
         14    1    3    3    0    0 -0.56499889628E+02 -0.25450320411E+02  0.40787543460E+02  0.74186117559E+02  0.00000000000E+00 0. -1.
        -11    1    4    4    0    0  0.24628345270E+02 -0.83110906573E+02 -0.11973064643E+03  0.14781544533E+03  0.00000000000E+00 0.  1.
         11    1    4    4    0    0  0.64645317811E+02 -0.30542258300E+02 -0.23163540461E+02  0.75155813239E+02  0.00000000000E+00 0. -1.
         -4    1    1    2    0  502 -0.24200961035E+02  0.20091274180E+03  0.23298742254E+03  0.30860128871E+03  0.00000000000E+00 0.  1.
<scales pt_clust_5="13000.00000" pt_clust_6="13000.00000" pt_clust_7="13000.00000" pt_clust_8="13000.00000" pt_clust_9="189.29672"></scales>
<clustering>
<clus scale="   82.098">  5  6 -1 -1</clus>
<clus scale="   91.709">  7  8 -1 -1</clus>
<clus scale="  136.340">  2  5  1 -1</clus>
<clus scale="  189.297">  1  9  2 -1</clus>
<clus scale="  189.297">  1  5  2 -1</clus>
</clustering>
</event>
<event>
 9    2  0.3764910E-005  0.1555054E+03  0.7546771E-02  0.1203614E+00
         21   -1    0    0  501  502  0.00000000000E+00  0.00000000000E+00  0.70570465359E+03  0.70570465359E+03  0.00000000000E+00 0.  1.
         -1   -1    0    0    0  501 -0.00000000000E+00 -0.00000000000E+00 -0.12946046139E+03  0.12946046139E+03  0.00000000000E+00 0.  1.
         24    2    1    2    0    0  0.26433867774E+02  0.93852498525E+02  0.50339309894E+03  0.51886860019E+03  0.79454209167E+02 0.  0.
         23    2    1    2    0    0 -0.10431782917E+03  0.28769069712E+02 -0.22040090768E+02  0.14278485165E+03  0.90509001792E+02 0.  0.
        -11    1    3    3    0    0 -0.70307742104E+01  0.91978483569E+02  0.36581689063E+03  0.37726843321E+03  0.00000000000E+00 0.  1.
         12    1    3    3    0    0  0.33464641984E+02  0.18740149563E+01  0.13757620831E+03  0.14160016698E+03  0.00000000000E+00 0. -1.
        -11    1    4    4    0    0 -0.87563819060E+02  0.54191502979E+02  0.35127883537E+01  0.10303630955E+03  0.00000000000E+00 0.  1.
         11    1    4    4    0    0 -0.16754010112E+02 -0.25422433266E+02 -0.25552879122E+02  0.39748542105E+02  0.00000000000E+00 0. -1.
         -2    1    1    2    0  502  0.77883961399E+02 -0.12262156824E+03  0.94891184025E+02  0.17351166314E+03  0.00000000000E+00 0.  1.
<scales pt_clust_5="13000.00000" pt_clust_6="13000.00000" pt_clust_7="13000.00000" pt_clust_8="13000.00000" pt_clust_9="126.45177"></scales>
<clustering>
<clus scale="   79.454">  5  6 -1 -1</clus>
<clus scale="   90.509">  7  8 -1 -1</clus>
<clus scale="  125.778">  2  5  1 -1</clus>
<clus scale="  126.452">  1  9  2 -1</clus>
<clus scale="  126.452">  1  5  2 -1</clus>
</clustering>
</event>
<event>
 9    2  0.3764910E-005  0.1075840E+03  0.7546771E-02  0.1279881E+00
         21   -1    0    0  501  502  0.00000000000E+00  0.00000000000E+00  0.15824308542E+03  0.15824308542E+03  0.00000000000E+00 0.  1.
         -1   -1    0    0    0  501 -0.00000000000E+00 -0.00000000000E+00 -0.18341911482E+03  0.18341911482E+03  0.00000000000E+00 0.  1.
         23    2    1    2    0    0  0.10851390671E+02  0.19723458094E+02 -0.12162398105E+03  0.16333466988E+03  0.10667264945E+03 0.  0.
         24    2    1    2    0    0  0.27176703748E+01  0.15153174929E+01  0.11969366261E+01  0.79798545449E+02  0.79728873560E+02 0.  0.
        -11    1    4    4    0    0  0.40173440684E+02  0.82456536811E+01 -0.47349501076E+01  0.41283360977E+02  0.00000000000E+00 0.  1.
         12    1    4    4    0    0 -0.37455770310E+02 -0.67303361882E+01  0.59318867337E+01  0.38515184472E+02  0.00000000000E+00 0. -1.
        -13    1    3    3    0    0  0.27791669774E+02  0.58895703908E+02 -0.85115203956E+02  0.10717125917E+03  0.00000000000E+00 0.  1.
         13    1    3    3    0    0 -0.16940279103E+02 -0.39172245813E+02 -0.36508777089E+02  0.56163410711E+02  0.00000000000E+00 0. -1.
         -2    1    1    2    0  502 -0.13569061045E+02 -0.21238775587E+02  0.95251015016E+02  0.98528984911E+02  0.00000000000E+00 0.  1.
<scales pt_clust_5="13000.00000" pt_clust_6="13000.00000" pt_clust_7="13000.00000" pt_clust_8="13000.00000" pt_clust_9="25.20327"></scales>
<clustering>
<clus scale="   25.203">  1  9  2 -1</clus>
<clus scale="   79.729">  5  6 -1 -1</clus>
<clus scale="   80.944">  1  5  2 -1</clus>
<clus scale="  106.673">  7  8 -1 -1</clus>
<clus scale="   25.203">  1  5  2 -1</clus>
</clustering>
</event>
<event>
 9    2  0.3764910E-005  0.1062481E+03  0.7546771E-02  0.1270777E+00
         -3   -1    0    0    0  501 -0.00000000000E+00  0.00000000000E+00  0.82869496280E+02  0.82869496280E+02  0.00000000000E+00 0.  1.
         21   -1    0    0  501  502  0.00000000000E+00 -0.00000000000E+00 -0.19719479079E+03  0.19719479079E+03  0.00000000000E+00 0. -1.
         23    2    1    2    0    0  0.52327911747E+02  0.31699299303E+02 -0.57438794036E+00  0.10860139953E+03  0.89726685739E+02 0.  0.
         24    2    1    2    0    0 -0.27758778694E+02 -0.45431211307E+02 -0.74313410239E+02  0.12301163552E+03  0.82309384491E+02 0.  0.
        -11    1    4    4    0    0 -0.50209609652E+02 -0.35431736558E+01 -0.34624590063E+02  0.61093544815E+02  0.00000000000E+00 0.  1.
         12    1    4    4    0    0  0.22450830958E+02 -0.41888037651E+02 -0.39688820176E+02  0.61918090700E+02  0.00000000000E+00 0. -1.
        -11    1    3    3    0    0 -0.24173346141E+02  0.17524352992E+02 -0.65555200500E+01  0.30568422507E+02  0.00000000000E+00 0.  1.
         11    1    3    3    0    0  0.76501257888E+02  0.14174946312E+02  0.59811321096E+01  0.78032977021E+02  0.00000000000E+00 0. -1.
         -4    1    1    2    0  502 -0.24569133053E+02  0.13731912004E+02 -0.39437496328E+02  0.48451252026E+02  0.00000000000E+00 0.  1.
<scales pt_clust_5="13000.00000" pt_clust_6="13000.00000" pt_clust_7="13000.00000" pt_clust_8="13000.00000" pt_clust_9="28.14618"></scales>
<clustering>
<clus scale="   28.146">  2  9  1 -1</clus>
<clus scale="   82.309">  5  6 -1 -1</clus>
<clus scale="   89.727">  7  8 -1 -1</clus>
<clus scale="  100.063">  2  5  1 -1</clus>
<clus scale="   28.146">  2  5  1 -1</clus>
</clustering>
</event>
<event>
 9    2  0.3764910E-005  0.9441389E+02  0.7546771E-02  0.1297595E+00
         21   -1    0    0  501  502  0.00000000000E+00  0.00000000000E+00  0.41585229272E+02  0.41585229272E+02  0.00000000000E+00 0. -1.
          2   -1    0    0  502    0 -0.00000000000E+00 -0.00000000000E+00 -0.35357640516E+03  0.35357640516E+03  0.00000000000E+00 0. -1.
         24    2    1    2    0    0 -0.24032564822E+02 -0.83394682156E+01 -0.16718296268E+03  0.18752262410E+03  0.81039994057E+02 0.  0.
         23    2    1    2    0    0  0.57942112184E+01  0.48777645586E+02 -0.11555854883E+03  0.15450308466E+03  0.90025515091E+02 0.  0.
        -13    1    3    3    0    0  0.29108378114E+02 -0.44556517322E+01 -0.81133318616E+02  0.86312026383E+02  0.00000000000E+00 0.  1.
         14    1    3    3    0    0 -0.53140942936E+02 -0.38838164834E+01 -0.86049644062E+02  0.10121059771E+03  0.00000000000E+00 0. -1.
        -11    1    4    4    0    0  0.31973279592E+02 -0.65905527019E+01 -0.13184092796E+02  0.35207190965E+02  0.00000000000E+00 0.  1.
         11    1    4    4    0    0 -0.26179068374E+02  0.55368198288E+02 -0.10237445604E+03  0.11929589369E+03  0.00000000000E+00 0. -1.
          1    1    1    2  501    0  0.18238353603E+02 -0.40438177370E+02 -0.29249664373E+02  0.53135925673E+02  0.00000000000E+00 0. -1.
<scales pt_clust_5="13000.00000" pt_clust_6="13000.00000" pt_clust_7="13000.00000" pt_clust_8="13000.00000" pt_clust_9="44.36084"></scales>
<clustering>
<clus scale="   44.361">  1  9  2 -1</clus>
<clus scale="   81.040">  5  6 -1 -1</clus>
<clus scale="   85.889">  2  5  1 -1</clus>
<clus scale="   90.026">  7  8 -1 -1</clus>
<clus scale="   44.361">  1  5  2 -1</clus>
</clustering>
</event>
<event>
 9    2  0.3764910E-005  0.1559832E+03  0.7546771E-02  0.1195183E+00
         21   -1    0    0  501  502  0.00000000000E+00  0.00000000000E+00  0.37476874955E+03  0.37476874955E+03  0.00000000000E+00 0.  1.
         -1   -1    0    0    0  501 -0.00000000000E+00 -0.00000000000E+00 -0.16375924376E+03  0.16375924376E+03  0.00000000000E+00 0.  1.
         23    2    1    2    0    0  0.28745643284E+02 -0.14255117084E+03 -0.80023728230E+02  0.18929426079E+03  0.91002042680E+02 0.  0.
         24    2    1    2    0    0  0.15261001892E+02  0.74585757465E+02  0.14376780445E+03  0.18117722720E+03  0.79750063730E+02 0.  0.
        -11    1    4    4    0    0  0.42613086951E+02  0.20702168593E+02  0.82421597269E+02  0.95067211279E+02  0.00000000000E+00 0.  1.
         12    1    4    4    0    0 -0.27352085059E+02  0.53883588871E+02  0.61346207178E+02  0.86110015921E+02  0.00000000000E+00 0. -1.
        -11    1    3    3    0    0  0.83938315356E+01 -0.97510380556E+02 -0.96254375159E+02  0.13727212194E+03  0.00000000000E+00 0.  1.
         11    1    3    3    0    0  0.20351811748E+02 -0.45040790286E+02  0.16230646929E+02  0.52022138852E+02  0.00000000000E+00 0. -1.
         -2    1    1    2    0  502 -0.44006645175E+02  0.67965413378E+02  0.14726542957E+03  0.16805650533E+03  0.00000000000E+00 0.  1.
<scales pt_clust_5="13000.00000" pt_clust_6="13000.00000" pt_clust_7="13000.00000" pt_clust_8="13000.00000" pt_clust_9="80.96840"></scales>
<clustering>
<clus scale="   79.750">  5  6 -1 -1</clus>
<clus scale="   80.968">  1  9  2 -1</clus>
<clus scale="   91.002">  7  8 -1 -1</clus>
<clus scale="  149.698">  1  5  2 -1</clus>
<clus scale="   80.968">  1  5  2 -1</clus>
</clustering>
</event>
<event>
 9    2  0.3764910E-005  0.1219590E+03  0.7546771E-02  0.1243116E+00
          2   -1    0    0  502    0 -0.00000000000E+00  0.00000000000E+00  0.18587712356E+03  0.18587712356E+03  0.00000000000E+00 0. -1.
         21   -1    0    0  501  502  0.00000000000E+00 -0.00000000000E+00 -0.62780586058E+03  0.62780586058E+03  0.00000000000E+00 0. -1.
         23    2    1    2    0    0  0.35245913939E+02 -0.70323750616E+02  0.14773367661E+03  0.19124653383E+03  0.92532659889E+02 0.  0.
         24    2    1    2    0    0  0.36944014697E+01  0.10154451925E+03 -0.28254546405E+03  0.31129033468E+03  0.82126702218E+02 0.  0.
        -11    1    4    4    0    0  0.26086036514E+02  0.98001239153E+02 -0.26101959308E+03  0.28002848453E+03  0.00000000000E+00 0.  1.
         12    1    4    4    0    0 -0.22391635044E+02  0.35432800985E+01 -0.21525870975E+02  0.31261850154E+02  0.00000000000E+00 0. -1.
        -13    1    3    3    0    0  0.35384453906E+02 -0.38756033126E+02  0.14672493795E+02  0.54491942121E+02  0.00000000000E+00 0.  1.
         13    1    3    3    0    0 -0.13853996656E+00 -0.31567717490E+02  0.13306118281E+03  0.13675459171E+03  0.00000000000E+00 0. -1.
          1    1    1    2  501    0 -0.38940315409E+02 -0.31220768635E+02 -0.30711694957E+03  0.31114611563E+03  0.00000000000E+00 0. -1.
<scales pt_clust_5="13000.00000" pt_clust_6="13000.00000" pt_clust_7="13000.00000" pt_clust_8="13000.00000" pt_clust_9="49.91077"></scales>
<clustering>
<clus scale="   49.911">  2  9  1 -1</clus>
<clus scale="   82.127">  5  6 -1 -1</clus>
<clus scale="   92.533">  7  8 -1 -1</clus>
<clus scale="  114.265">  2  5  1 -1</clus>
<clus scale="   49.911">  2  5  1 -1</clus>
</clustering>
</event>
<event>
 9    2  0.3764910E-005  0.1003009E+03  0.7546771E-02  0.1284383E+00
         21   -1    0    0  501  502  0.00000000000E+00  0.00000000000E+00  0.24863793518E+03  0.24863793518E+03  0.00000000000E+00 0. -1.
          2   -1    0    0  502    0 -0.00000000000E+00 -0.00000000000E+00 -0.33603164646E+03  0.33603164646E+03  0.00000000000E+00 0. -1.
         23    2    1    2    0    0 -0.45253964300E+02 -0.12509183374E+02 -0.30602273606E+03  0.32229880323E+03  0.89566749550E+02 0.  0.
         24    2    1    2    0    0  0.24865441150E+02  0.98248739233E+01  0.62400957272E+02  0.10479506177E+03  0.79832995635E+02 0.  0.
        -13    1    4    4    0    0  0.36126132040E+02  0.32476840775E+02  0.14619400544E+02  0.50730360487E+02  0.00000000000E+00 0.  1.
         14    1    4    4    0    0 -0.11260690890E+02 -0.22651966852E+02  0.47781556728E+02  0.54064701284E+02  0.00000000000E+00 0. -1.
        -13    1    3    3    0    0  0.64352539972E+01 -0.26485073949E+02 -0.27657731256E+02  0.38830680322E+02  0.00000000000E+00 0.  1.
         13    1    3    3    0    0 -0.51689218297E+02  0.13975890575E+02 -0.27836500481E+03  0.28346812291E+03  0.00000000000E+00 0. -1.
          1    1    1    2  501    0  0.20388523150E+02  0.26843094506E+01  0.15622806751E+03  0.15757571663E+03  0.00000000000E+00 0. -1.
<scales pt_clust_5="13000.00000" pt_clust_6="13000.00000" pt_clust_7="13000.00000" pt_clust_8="13000.00000" pt_clust_9="20.56447"></scales>
<clustering>
<clus scale="   20.564">  1  9  2 -1</clus>
<clus scale="   79.833">  5  6 -1 -1</clus>
<clus scale="   89.567">  7  8 -1 -1</clus>
<clus scale="   91.714">  1  5  2 -1</clus>
<clus scale="   20.564">  1  5  2 -1</clus>
</clustering>
</event>
<event>
 9    2  0.3764910E-005  0.1262199E+03  0.7546771E-02  0.1240013E+00
          2   -1    0    0  502    0 -0.00000000000E+00  0.00000000000E+00  0.84081167770E+03  0.84081167770E+03  0.00000000000E+00 0. -1.
         21   -1    0    0  501  502  0.00000000000E+00 -0.00000000000E+00 -0.28338932673E+02  0.28338932673E+02  0.00000000000E+00 0.  1.
         23    2    1    2    0    0 -0.53409211187E+02  0.37742292129E+02  0.53398011263E+03  0.54749554490E+03  0.10168375754E+03 0.  0.
         24    2    1    2    0    0  0.83204861946E+02 -0.53234422969E+02  0.21785202490E+03  0.25233645181E+03  0.80356874748E+02 0.  0.
        -11    1    4    4    0    0  0.44975763025E+02 -0.71567833985E+02  0.15439845146E+03  0.17602174847E+03  0.00000000000E+00 0.  1.
         12    1    4    4    0    0  0.38229098921E+02  0.18333411016E+02  0.63453573440E+02  0.76314703342E+02  0.00000000000E+00 0. -1.
        -11    1    3    3    0    0  0.20616165360E+02 -0.17089439812E+02  0.83356550739E+02  0.87552211727E+02  0.00000000000E+00 0.  1.
         11    1    3    3    0    0 -0.74025376547E+02  0.54831731941E+02  0.45062356189E+03  0.45994333317E+03  0.00000000000E+00 0. -1.
          1    1    1    2  501    0 -0.29795650759E+02  0.15492130839E+02  0.60640607498E+02  0.69318613661E+02  0.00000000000E+00 0. -1.
<scales pt_clust_5="13000.00000" pt_clust_6="13000.00000" pt_clust_7="13000.00000" pt_clust_8="13000.00000" pt_clust_9="33.58254"></scales>
<clustering>
<clus scale="   33.583">  2  9  1 -1</clus>
<clus scale="   80.357">  5  6 -1 -1</clus>
<clus scale="  101.684">  7  8 -1 -1</clus>
<clus scale="  109.768">  2  5  1 -1</clus>
<clus scale="   33.583">  2  5  1 -1</clus>
</clustering>
</event>
<event>
 9    2  0.3764910E-005  0.1224272E+03  0.7546771E-02  0.1242143E+00
          2   -1    0    0  502    0 -0.00000000000E+00  0.00000000000E+00  0.11508141141E+04  0.11508141141E+04  0.00000000000E+00 0. -1.
         21   -1    0    0  501  502  0.00000000000E+00 -0.00000000000E+00 -0.62480055635E+02  0.62480055635E+02  0.00000000000E+00 0. -1.
         24    2    1    2    0    0 -0.60527992238E+02 -0.71654337253E+02  0.87291987611E+03  0.88165060258E+03  0.80750808202E+02 0.  0.
         23    2    1    2    0    0  0.35986980970E+02  0.40449839092E+02  0.25472369079E+03  0.27577569280E+03  0.90756938065E+02 0.  0.
        -11    1    3    3    0    0 -0.18633844200E+02 -0.84968493296E+01  0.36898131914E+02  0.42200577448E+02  0.00000000000E+00 0.  1.
         12    1    3    3    0    0 -0.41894148038E+02 -0.63157487924E+02  0.83602174420E+03  0.83945002513E+03  0.00000000000E+00 0. -1.
        -13    1    4    4    0    0 -0.74637438442E+01 -0.24123683335E+02  0.91899214314E+02  0.95305430912E+02  0.00000000000E+00 0.  1.
         13    1    4    4    0    0  0.43450724814E+02  0.64573522428E+02  0.16282447647E+03  0.18047026188E+03  0.00000000000E+00 0. -1.
          1    1    1    2  501    0  0.24541011269E+02  0.31204498161E+02 -0.39309508395E+02  0.55867874399E+02  0.00000000000E+00 0. -1.
<scales pt_clust_5="13000.00000" pt_clust_6="13000.00000" pt_clust_7="13000.00000" pt_clust_8="13000.00000" pt_clust_9="39.69864"></scales>
<clustering>
<clus scale="   39.699">  2  9  1 -1</clus>
<clus scale="   80.751">  5  6 -1 -1</clus>
<clus scale="   90.757">  7  8 -1 -1</clus>
<clus scale="  115.205">  1  5  2 -1</clus>
<clus scale="   39.699">  2  5  1 -1</clus>
</clustering>
</event>
<event>
 9    2  0.3764910E-005  0.1202760E+03  0.7546771E-02  0.1246308E+00
          2   -1    0    0  502    0 -0.00000000000E+00  0.00000000000E+00  0.91389597607E+03  0.91389597607E+03  0.00000000000E+00 0. -1.
         21   -1    0    0  501  502  0.00000000000E+00 -0.00000000000E+00 -0.87631431291E+02  0.87631431291E+02  0.00000000000E+00 0. -1.
         24    2    1    2    0    0 -0.76977293127E+02 -0.13414259308E+02  0.76206965153E+03  0.77022988252E+03  0.79990450287E+02 0.  0.
         23    2    1    2    0    0  0.83301259963E+02 -0.45837941332E+02  0.96496735213E+02  0.16351681349E+03  0.91574623171E+02 0.  0.
        -13    1    3    3    0    0 -0.68677178720E+02 -0.16126782568E+02  0.30403543020E+03  0.31211243296E+03  0.00000000000E+00 0.  1.
         14    1    3    3    0    0 -0.83001144073E+01  0.27125232592E+01  0.45803422133E+03  0.45811744956E+03  0.00000000000E+00 0. -1.
        -13    1    4    4    0    0  0.70752620192E+02 -0.64068100077E+02  0.41211970071E+02  0.10396673116E+03  0.00000000000E+00 0.  1.
         13    1    4    4    0    0  0.12548639771E+02  0.18230158745E+02  0.55284765142E+02  0.59550082324E+02  0.00000000000E+00 0. -1.
          1    1    1    2  501    0 -0.63239668359E+01  0.59252200641E+02 -0.32301841964E+02  0.67780711353E+02  0.00000000000E+00 0. -1.
<scales pt_clust_5="13000.00000" pt_clust_6="13000.00000" pt_clust_7="13000.00000" pt_clust_8="13000.00000" pt_clust_9="59.58872"></scales>
<clustering>
<clus scale="   59.589">  2  9  1 -1</clus>
<clus scale="   79.990">  5  6 -1 -1</clus>
<clus scale="   91.575">  7  8 -1 -1</clus>
<clus scale="  111.709">  1  5  2 -1</clus>
<clus scale="   59.589">  2  5  1 -1</clus>
</clustering>
</event>
<event>
 9    2  0.3764910E-005  0.9860298E+02  0.7546771E-02  0.1286171E+00
         21   -1    0    0  501  502  0.00000000000E+00  0.00000000000E+00  0.30925376574E+02  0.30925376574E+02  0.00000000000E+00 0. -1.
         -1   -1    0    0    0  501 -0.00000000000E+00 -0.00000000000E+00 -0.77568377058E+03  0.77568377058E+03  0.00000000000E+00 0.  1.
         23    2    1    2    0    0  0.22303866957E+02 -0.17256677742E+02 -0.16964944306E+03  0.19473622006E+03  0.91356480142E+02 0.  0.
         24    2    1    2    0    0 -0.19074189497E+02 -0.76016968497E+02 -0.25155235483E+03  0.27512483907E+03  0.79200288184E+02 0.  0.
        -11    1    4    4    0    0 -0.23599073632E+02 -0.21538566291E+02 -0.19055940844E+03  0.19321934235E+03  0.00000000000E+00 0.  1.
         12    1    4    4    0    0  0.45248841352E+01 -0.54478402206E+02 -0.60992946394E+02  0.81905496721E+02  0.00000000000E+00 0. -1.
        -11    1    3    3    0    0  0.50580604885E+02 -0.25690286185E+02 -0.66308920712E+02  0.87265464881E+02  0.00000000000E+00 0.  1.
         11    1    3    3    0    0 -0.28276737928E+02  0.84336084426E+01 -0.10334052235E+03  0.10747075518E+03  0.00000000000E+00 0. -1.
         -2    1    1    2    0  502 -0.32296774604E+01  0.93273646239E+02 -0.32355659612E+03  0.33674808803E+03  0.00000000000E+00 0.  1.
<scales pt_clust_5="13000.00000" pt_clust_6="13000.00000" pt_clust_7="13000.00000" pt_clust_8="13000.00000" pt_clust_9="93.32959"></scales>
<clustering>
<clus scale="   79.200">  5  6 -1 -1</clus>
<clus scale="   91.356">  7  8 -1 -1</clus>
<clus scale="   93.330">  1  9  2 -1</clus>
<clus scale="   93.330">  1  5  2 -1</clus>
<clus scale="   93.330">  1  5  2 -1</clus>
</clustering>
</event>
<event>
 9    2  0.3764910E-005  0.1508872E+03  0.7546771E-02  0.1221347E+00
         -1   -1    0    0    0  501 -0.00000000000E+00  0.00000000000E+00  0.43464730961E+03  0.43464730961E+03  0.00000000000E+00 0.  1.
         21   -1    0    0  501  502  0.00000000000E+00 -0.00000000000E+00 -0.82071912176E+02  0.82071912176E+02  0.00000000000E+00 0.  1.
         24    2    1    2    0    0  0.34641779387E+02  0.34912483271E+02  0.43499315605E+02  0.10396832691E+03  0.80611960497E+02 0.  0.
         23    2    1    2    0    0 -0.13267865225E+03  0.15094611218E+02  0.17603804279E+03  0.24009210485E+03  0.93932711317E+02 0.  0.
        -13    1    3    3    0    0  0.14168908096E+02  0.18355924978E+02 -0.22868843569E+02  0.32568112390E+02  0.00000000000E+00 0.  1.
         14    1    3    3    0    0  0.20472871291E+02  0.16556558294E+02  0.66368159175E+02  0.71400214521E+02  0.00000000000E+00 0. -1.
        -13    1    4    4    0    0 -0.74039287177E+02  0.52339181049E+02  0.12240761466E+03  0.15233131669E+03  0.00000000000E+00 0.  1.
         13    1    4    4    0    0 -0.58639365069E+02 -0.37244569832E+02  0.53630428128E+02  0.87760788162E+02  0.00000000000E+00 0. -1.
         -2    1    1    2    0  502  0.98036872859E+02 -0.50007094489E+02  0.13303803904E+03  0.17265879002E+03  0.00000000000E+00 0.  1.
<scales pt_clust_5="13000.00000" pt_clust_6="13000.00000" pt_clust_7="13000.00000" pt_clust_8="13000.00000" pt_clust_9="118.08305"></scales>
<clustering>
<clus scale="   80.612">  5  6 -1 -1</clus>
<clus scale="   93.933">  7  8 -1 -1</clus>
<clus scale="   94.431">  1  5  2 -1</clus>
<clus scale="  118.083">  2  9  1 -1</clus>
<clus scale="  118.083">  2  5  1 -1</clus>
</clustering>
</event>
<event>
 9    2  0.3764910E-005  0.2199554E+03  0.7546771E-02  0.1169359E+00
         21   -1    0    0  501  502  0.00000000000E+00  0.00000000000E+00  0.25159736303E+03  0.25159736303E+03  0.00000000000E+00 0. -1.
          2   -1    0    0  502    0 -0.00000000000E+00 -0.00000000000E+00 -0.37003636107E+03  0.37003636107E+03  0.00000000000E+00 0. -1.
         23    2    1    2    0    0  0.39333845751E+01  0.19512967470E+02 -0.13442752003E+03  0.16471775932E+03  0.93085738336E+02 0.  0.
         24    2    1    2    0    0 -0.10423522579E+03  0.16397398753E+03 -0.82157043641E+02  0.22591710318E+03  0.80847429183E+02 0.  0.
        -13    1    4    4    0    0 -0.71776154240E+02  0.44825784261E+02 -0.50067036924E+02  0.98325355013E+02  0.00000000000E+00 0.  1.
         14    1    4    4    0    0 -0.32459071552E+02  0.11914820327E+03 -0.32090006717E+02  0.12759174816E+03  0.00000000000E+00 0. -1.
        -13    1    3    3    0    0  0.40251075631E+02  0.19078825249E+02 -0.28857300862E+02  0.53074423929E+02  0.00000000000E+00 0. -1.
         13    1    3    3    0    0 -0.36317691056E+02  0.43414222100E+00 -0.10557021916E+03  0.11164333539E+03  0.00000000000E+00 0.  1.
          1    1    1    2  501    0  0.10030184122E+03 -0.18348695500E+03  0.98145565635E+02  0.23099886160E+03  0.00000000000E+00 0. -1.
<scales pt_clust_5="13000.00000" pt_clust_6="13000.00000" pt_clust_7="13000.00000" pt_clust_8="13000.00000" pt_clust_9="204.55824"></scales>
<clustering>
<clus scale="   80.847">  5  6 -1 -1</clus>
<clus scale="   93.086">  7  8 -1 -1</clus>
<clus scale="   95.190">  2  7  1 -1</clus>
<clus scale="  204.558">  1  9  2 -1</clus>
<clus scale="  204.558">  1  5  2 -1</clus>
</clustering>
</event>
<event>
 9    2  0.3764910E-005  0.2784908E+03  0.7546771E-02  0.1097603E+00
         21   -1    0    0  501  502  0.00000000000E+00  0.00000000000E+00  0.42869480739E+03  0.42869480739E+03  0.00000000000E+00 0.  1.
         -3   -1    0    0    0  501 -0.00000000000E+00 -0.00000000000E+00 -0.62408461165E+03  0.62408461165E+03  0.00000000000E+00 0.  1.
         23    2    1    2    0    0  0.26513322895E+03  0.58536014248E+01 -0.50787939902E+03  0.58042613109E+03  0.92860734248E+02 0.  0.
         24    2    1    2    0    0 -0.23436062025E+03 -0.70114043643E+02  0.31093810917E+03  0.40108783357E+03  0.65939844276E+02 0.  0.
        -11    1    4    4    0    0 -0.23200696964E+03 -0.78252862056E+02  0.30169278581E+03  0.38854765652E+03  0.00000000000E+00 0.  1.
         12    1    4    4    0    0 -0.23536506171E+01  0.81388184124E+01  0.92453233672E+01  0.12540177054E+02  0.00000000000E+00 0. -1.
        -13    1    3    3    0    0  0.15685464605E+03 -0.31702779987E+02 -0.35461372541E+03  0.38904927772E+03  0.00000000000E+00 0.  1.
         13    1    3    3    0    0  0.10827858290E+03  0.37556381412E+02 -0.15326567360E+03  0.19137685337E+03  0.00000000000E+00 0. -1.
         -4    1    1    2    0  502 -0.30772608699E+02  0.64260442219E+02  0.15514855769E+01  0.71265454378E+02  0.00000000000E+00 0.  1.
<scales pt_clust_5="13000.00000" pt_clust_6="13000.00000" pt_clust_7="13000.00000" pt_clust_8="13000.00000" pt_clust_9="71.24856"></scales>
<clustering>
<clus scale="   65.940">  5  6 -1 -1</clus>
<clus scale="   71.249">  1  9  2 -1</clus>
<clus scale="   92.861">  7  8 -1 -1</clus>
<clus scale="  270.707">  1  5  2 -1</clus>
<clus scale="   71.249">  1  5  2 -1</clus>
</clustering>
</event>
<event>
 9    2  0.3764910E-005  0.1053117E+03  0.7546771E-02  0.1273257E+00
         -3   -1    0    0    0  501 -0.00000000000E+00  0.00000000000E+00  0.65121390460E+02  0.65121390460E+02  0.00000000000E+00 0.  1.
         21   -1    0    0  501  502  0.00000000000E+00 -0.00000000000E+00 -0.34416440883E+03  0.34416440883E+03  0.00000000000E+00 0. -1.
         23    2    1    2    0    0  0.14343643723E+02  0.47706537405E+02 -0.79730254535E+01  0.10274471958E+03  0.89505611228E+02 0.  0.
         24    2    1    2    0    0 -0.33613944134E+02 -0.70807022595E+02 -0.20246050704E+03  0.23162620504E+03  0.80727382352E+02 0.  0.
        -11    1    4    4    0    0 -0.42596915998E+02 -0.18035835703E+02 -0.42029222399E+02  0.62499953260E+02  0.00000000000E+00 0.  1.
         12    1    4    4    0    0  0.89829718644E+01 -0.52771186892E+02 -0.16043128464E+03  0.16912625178E+03  0.00000000000E+00 0. -1.
        -11    1    3    3    0    0 -0.36789369779E+02  0.16426628134E+02  0.71619638748E+01  0.40921700443E+02  0.00000000000E+00 0.  1.
         11    1    3    3    0    0  0.51133013502E+02  0.31279909271E+02 -0.15134989328E+02  0.61823019142E+02  0.00000000000E+00 0. -1.
         -4    1    1    2    0  502  0.19270300411E+02  0.23100485190E+02 -0.68609485875E+02  0.74914874664E+02  0.00000000000E+00 0.  1.
<scales pt_clust_5="13000.00000" pt_clust_6="13000.00000" pt_clust_7="13000.00000" pt_clust_8="13000.00000" pt_clust_9="30.08283"></scales>
<clustering>
<clus scale="   30.083">  2  9  1 -1</clus>
<clus scale="   80.727">  5  6 -1 -1</clus>
<clus scale="   89.506">  7  8 -1 -1</clus>
<clus scale="   97.960">  2  5  1 -1</clus>
<clus scale="   30.083">  2  5  1 -1</clus>
</clustering>
</event>
<event>
 9    2  0.3764910E-005  0.1020894E+03  0.7546771E-02  0.1285324E+00
          2   -1    0    0  502    0 -0.00000000000E+00  0.00000000000E+00  0.37833109096E+02  0.37833109096E+02  0.00000000000E+00 0. -1.
         21   -1    0    0  501  502  0.00000000000E+00 -0.00000000000E+00 -0.64158470435E+03  0.64158470435E+03  0.00000000000E+00 0. -1.
         24    2    1    2    0    0  0.53124082032E+02  0.14077950806E+01 -0.93413092371E+02  0.13419552114E+03  0.80363437521E+02 0.  0.
         23    2    1    2    0    0  0.31202822896E+02  0.20185137961E+02 -0.26790631223E+03  0.28763609562E+03  0.97875816338E+02 0.  0.
        -13    1    3    3    0    0  0.19951828811E+02  0.38227556162E+02 -0.25413787605E+02  0.50052793363E+02  0.00000000000E+00 0.  1.
         14    1    3    3    0    0  0.33172253221E+02 -0.36819761081E+02 -0.67999304767E+02  0.84142727782E+02  0.00000000000E+00 0. -1.
        -11    1    4    4    0    0 -0.29783698835E+02 -0.14888963334E+02 -0.68078521318E+02  0.75785453817E+02  0.00000000000E+00 0.  1.
         11    1    4    4    0    0  0.60986521732E+02  0.35074101294E+02 -0.19982779091E+03  0.21185064181E+03  0.00000000000E+00 0. -1.
          1    1    1    2  501    0 -0.84326904928E+02 -0.21592933041E+02 -0.24243219066E+03  0.25758619668E+03  0.00000000000E+00 0. -1.
<scales pt_clust_5="13000.00000" pt_clust_6="13000.00000" pt_clust_7="13000.00000" pt_clust_8="13000.00000" pt_clust_9="87.04758"></scales>
<clustering>
<clus scale="   80.363">  5  6 -1 -1</clus>
<clus scale="   87.048">  2  9  1 -1</clus>
<clus scale="   85.445">  1  5  2 -1</clus>
<clus scale="   97.876">  7  8 -1 -1</clus>
<clus scale="   87.048">  2  5  1 -1</clus>
</clustering>
</event>
<event>
 9    2  0.3764910E-005  0.6217542E+03  0.7546771E-02  0.9861273E-01
         21   -1    0    0  501  502  0.00000000000E+00  0.00000000000E+00  0.27342710732E+04  0.27342710732E+04  0.00000000000E+00 0.  1.
         -1   -1    0    0    0  501 -0.00000000000E+00 -0.00000000000E+00 -0.25215158370E+03  0.25215158370E+03  0.00000000000E+00 0.  1.
         24    2    1    2    0    0 -0.26326257795E+03  0.82115840615E+02  0.23147854353E+03  0.36934371825E+03  0.82354537630E+02 0.  0.
         23    2    1    2    0    0 -0.19393866620E+03  0.19358452403E+03 -0.15563351959E+02  0.28883376499E+03  0.89975283724E+02 0.  0.
        -13    1    3    3    0    0 -0.26373073235E+03  0.89534956113E+02  0.21701140550E+03  0.35307840158E+03  0.00000000000E+00 0.  1.
         14    1    3    3    0    0  0.46815440033E+00 -0.74191154978E+01  0.14467138031E+02  0.16265316662E+02  0.00000000000E+00 0. -1.
        -11    1    4    4    0    0 -0.30213959917E+02  0.85401682959E+02  0.91328128923E+01  0.91048004357E+02  0.00000000000E+00 0. -1.
         11    1    4    4    0    0 -0.16372470629E+03  0.10818284107E+03 -0.24696164851E+02  0.19778576063E+03  0.00000000000E+00 0.  1.
         -2    1    1    2    0  502  0.45720124415E+03 -0.27570036465E+03  0.22662042979E+04  0.23282451736E+04  0.00000000000E+00 0.  1.
<scales pt_clust_5="13000.00000" pt_clust_6="13000.00000" pt_clust_7="13000.00000" pt_clust_8="13000.00000" pt_clust_9="533.89481"></scales>
<clustering>
<clus scale="   82.355">  5  6 -1 -1</clus>
<clus scale="   89.975">  7  8 -1 -1</clus>
<clus scale="  279.145">  5  7 -1 -1</clus>
<clus scale="  533.895">  1  9  2 -1</clus>
<clus scale="  533.895">  1  5  2 -1</clus>
</clustering>
</event>
<event>
 9    2  0.3764910E-005  0.1012987E+03  0.7546771E-02  0.1282160E+00
          2   -1    0    0  502    0 -0.00000000000E+00  0.00000000000E+00  0.65680540814E+03  0.65680540814E+03  0.00000000000E+00 0. -1.
         21   -1    0    0  501  502  0.00000000000E+00 -0.00000000000E+00 -0.53817922628E+02  0.53817922628E+02  0.00000000000E+00 0.  1.
         23    2    1    2    0    0 -0.24588383035E+02  0.44558829314E+02  0.54472179877E+03  0.55448348588E+03  0.90222060588E+02 0.  0.
         24    2    1    2    0    0 -0.14771775834E+02 -0.15544499810E+02  0.46296086777E+01  0.83559666506E+02  0.80628454992E+02 0.  0.
        -11    1    4    4    0    0 -0.44757683698E+02 -0.23469567307E+02  0.11414238123E+02  0.51810767911E+02  0.00000000000E+00 0.  1.
         12    1    4    4    0    0  0.29985907864E+02  0.79250674977E+01 -0.67846294454E+01  0.31748898595E+02  0.00000000000E+00 0. -1.
        -13    1    3    3    0    0 -0.37332068535E+02  0.67610513169E+02  0.41011395828E+03  0.41732280504E+03  0.00000000000E+00 0. -1.
         13    1    3    3    0    0  0.12743685499E+02 -0.23051683855E+02  0.13460784049E+03  0.13716068084E+03  0.00000000000E+00 0.  1.
          1    1    1    2  501    0  0.39360158869E+02 -0.29014329504E+02  0.53636078065E+02  0.72580178376E+02  0.00000000000E+00 0. -1.
<scales pt_clust_5="13000.00000" pt_clust_6="13000.00000" pt_clust_7="13000.00000" pt_clust_8="13000.00000" pt_clust_9="48.89840"></scales>
<clustering>
<clus scale="   48.898">  2  9  1 -1</clus>
<clus scale="   80.628">  5  6 -1 -1</clus>
<clus scale="   90.222">  7  8 -1 -1</clus>
<clus scale="   92.857">  2  5  1 -1</clus>
<clus scale="   48.898">  2  5  1 -1</clus>
</clustering>
</event>
<event>
 9    2  0.3764910E-005  0.1602922E+03  0.7546771E-02  0.1189869E+00
          2   -1    0    0  502    0 -0.00000000000E+00  0.00000000000E+00  0.12182007014E+04  0.12182007014E+04  0.00000000000E+00 0. -1.
         21   -1    0    0  501  502  0.00000000000E+00 -0.00000000000E+00 -0.93603667676E+02  0.93603667676E+02  0.00000000000E+00 0.  1.
         24    2    1    2    0    0  0.14056086864E+03 -0.17081862757E+02  0.10544865545E+04  0.10672290305E+04  0.83586853598E+02 0.  0.
         23    2    1    2    0    0 -0.80266652767E+02  0.24758434315E+02  0.11417579617E+03  0.16950154571E+03  0.92945930256E+02 0.  0.
        -13    1    3    3    0    0  0.84874966211E+02  0.26559018570E+02  0.45740266166E+03  0.46596817086E+03  0.00000000000E+00 0.  1.
         14    1    3    3    0    0  0.55685902427E+02 -0.43640881326E+02  0.59708389287E+03  0.60126085967E+03  0.00000000000E+00 0. -1.
        -13    1    4    4    0    0  0.66335985689E+01 -0.22760373192E+02  0.36982575268E+02  0.43928920898E+02  0.00000000000E+00 0. -1.
         13    1    4    4    0    0 -0.86900251336E+02  0.47518807507E+02  0.77193220903E+02  0.12557262481E+03  0.00000000000E+00 0.  1.
          1    1    1    2  501    0 -0.60294215871E+02 -0.76765715581E+01 -0.44065316943E+02  0.75073792869E+02  0.00000000000E+00 0. -1.
<scales pt_clust_5="13000.00000" pt_clust_6="13000.00000" pt_clust_7="13000.00000" pt_clust_8="13000.00000" pt_clust_9="60.78094"></scales>
<clustering>
<clus scale="   60.781">  2  9  1 -1</clus>
<clus scale="   83.587">  5  6 -1 -1</clus>
<clus scale="   92.946">  7  8 -1 -1</clus>
<clus scale="  155.053">  1  5  2 -1</clus>
<clus scale="   60.781">  2  5  1 -1</clus>
</clustering>
</event>
<event>
 9    2  0.3764910E-005  0.1080853E+03  0.7546771E-02  0.1268011E+00
          2   -1    0    0  502    0 -0.00000000000E+00  0.00000000000E+00  0.11466453336E+04  0.11466453336E+04  0.00000000000E+00 0. -1.
         21   -1    0    0  501  502  0.00000000000E+00 -0.00000000000E+00 -0.38733190650E+02  0.38733190650E+02  0.00000000000E+00 0. -1.
         24    2    1    2    0    0 -0.27645760411E+02  0.36767103501E+02  0.81538096962E+03  0.82104600571E+03  0.84583153770E+02 0.  0.
         23    2    1    2    0    0  0.79902188745E+02 -0.72474392755E+02  0.25039421742E+03  0.28829786947E+03  0.93709658267E+02 0.  0.
        -13    1    3    3    0    0 -0.16047140481E+02 -0.24414046670E+02  0.15451874818E+03  0.15725647818E+03  0.00000000000E+00 0.  1.
         14    1    3    3    0    0 -0.11598619930E+02  0.61181150171E+02  0.66086222144E+03  0.66378952752E+03  0.00000000000E+00 0. -1.
        -11    1    4    4    0    0  0.18701855118E+02 -0.47654146661E+02  0.19649240161E+03  0.20305157219E+03  0.00000000000E+00 0.  1.
         11    1    4    4    0    0  0.61200333627E+02 -0.24820246094E+02  0.53901815809E+02  0.85246297279E+02  0.00000000000E+00 0. -1.
          1    1    1    2  501    0 -0.52256428333E+02  0.35707289254E+02  0.42136955938E+02  0.76034649100E+02  0.00000000000E+00 0. -1.
<scales pt_clust_5="13000.00000" pt_clust_6="13000.00000" pt_clust_7="13000.00000" pt_clust_8="13000.00000" pt_clust_9="63.29095"></scales>
<clustering>
<clus scale="   63.291">  2  9  1 -1</clus>
<clus scale="   84.583">  5  6 -1 -1</clus>
<clus scale="   93.710">  7  8 -1 -1</clus>
<clus scale="  100.276">  1  5  2 -1</clus>
<clus scale="   63.291">  2  5  1 -1</clus>
</clustering>
</event>
<event>
 9    2  0.3764910E-005  0.1182017E+03  0.7546771E-02  0.1257113E+00
         -1   -1    0    0    0  501 -0.00000000000E+00  0.00000000000E+00  0.48084137707E+02  0.48084137707E+02  0.00000000000E+00 0.  1.
         21   -1    0    0  501  502  0.00000000000E+00 -0.00000000000E+00 -0.38796536242E+03  0.38796536242E+03  0.00000000000E+00 0. -1.
         24    2    1    2    0    0  0.25062105396E+02 -0.45698381356E+02 -0.36308710302E+02  0.10213825121E+03  0.79984052980E+02 0.  0.
         23    2    1    2    0    0 -0.39775521364E+02  0.30750798653E+02 -0.26432093063E+03  0.28940729777E+03  0.10659890205E+03 0.  0.
        -13    1    3    3    0    0  0.16119132282E+02 -0.58190222553E+02  0.24650380356E+01  0.60431819754E+02  0.00000000000E+00 0.  1.
         14    1    3    3    0    0  0.89429731140E+01  0.12491841198E+02 -0.38773748338E+02  0.41706431456E+02  0.00000000000E+00 0. -1.
        -13    1    4    4    0    0 -0.37200594075E+02 -0.23696674512E+02 -0.20133795514E+03  0.20611256333E+03  0.00000000000E+00 0. -1.
         13    1    4    4    0    0 -0.25749272887E+01  0.54447473165E+02 -0.62982975494E+02  0.83294734447E+02  0.00000000000E+00 0.  1.
         -2    1    1    2    0  502  0.14713415968E+02  0.14947582703E+02 -0.39251583781E+02  0.44503951144E+02  0.00000000000E+00 0.  1.
<scales pt_clust_5="13000.00000" pt_clust_6="13000.00000" pt_clust_7="13000.00000" pt_clust_8="13000.00000" pt_clust_9="20.97415"></scales>
<clustering>
<clus scale="   20.974">  2  9  1 -1</clus>
<clus scale="   79.984">  5  6 -1 -1</clus>
<clus scale="   94.899">  1  5  2 -1</clus>
<clus scale="  106.599">  7  8 -1 -1</clus>
<clus scale="   20.974">  2  5  1 -1</clus>
</clustering>
</event>
<event>
 9    2  0.3764910E-005  0.1160383E+03  0.7546771E-02  0.1253685E+00
         21   -1    0    0  501  502  0.00000000000E+00  0.00000000000E+00  0.63825313965E+03  0.63825313965E+03  0.00000000000E+00 0.  1.
         -1   -1    0    0    0  501 -0.00000000000E+00 -0.00000000000E+00 -0.12256961845E+03  0.12256961845E+03  0.00000000000E+00 0.  1.
         24    2    1    2    0    0  0.78490182960E+02  0.87073412937E+01 -0.80742933468E+02  0.13871300777E+03  0.80531674557E+02 0.  0.
         23    2    1    2    0    0 -0.12013645848E+02  0.27062004025E+01  0.20547004440E+03  0.22537770770E+03  0.91790635555E+02 0.  0.
        -13    1    3    3    0    0  0.92123173507E+02  0.27292893015E+00 -0.51959837979E+02  0.10576662210E+03  0.00000000000E+00 0.  1.
         14    1    3    3    0    0 -0.13632990547E+02  0.84344123635E+01 -0.28783095488E+02  0.32946385675E+02  0.00000000000E+00 0. -1.
        -13    1    4    4    0    0  0.16801481159E+02 -0.35466763683E+02  0.13200973283E+03  0.13771982666E+03  0.00000000000E+00 0. -1.
         13    1    4    4    0    0 -0.28815127007E+02  0.38172964086E+02  0.73460311574E+02  0.87657881038E+02  0.00000000000E+00 0.  1.
         -2    1    1    2    0  502 -0.66476537112E+02 -0.11413541696E+02  0.39095641027E+03  0.39673204263E+03  0.00000000000E+00 0.  1.
<scales pt_clust_5="13000.00000" pt_clust_6="13000.00000" pt_clust_7="13000.00000" pt_clust_8="13000.00000" pt_clust_9="67.44923"></scales>
<clustering>
<clus scale="   67.449">  1  9  2 -1</clus>
<clus scale="   80.532">  5  6 -1 -1</clus>
<clus scale="   91.791">  7  8 -1 -1</clus>
<clus scale="  107.353">  2  5  1 -1</clus>
<clus scale="   67.449">  1  5  2 -1</clus>
</clustering>
</event>
<event>
 9    2  0.3764910E-005  0.2118531E+03  0.7546771E-02  0.1169028E+00
         21   -1    0    0  501  502  0.00000000000E+00  0.00000000000E+00  0.47810570828E+02  0.47810570828E+02  0.00000000000E+00 0. -1.
         -3   -1    0    0    0  501 -0.00000000000E+00 -0.00000000000E+00 -0.20207940583E+04  0.20207940583E+04  0.00000000000E+00 0.  1.
         24    2    1    2    0    0 -0.48944854738E+02 -0.51215791285E+02 -0.14377265550E+03  0.17942549033E+03  0.80649079525E+02 0.  0.
         23    2    1    2    0    0  0.19725263463E+03 -0.42279020475E+02 -0.47427418577E+03  0.52294716998E+03  0.88552932521E+02 0.  0.
        -11    1    3    3    0    0  0.10115173206E+02 -0.25668571376E+02 -0.94311556083E+02  0.98264245258E+02  0.00000000000E+00 0.  1.
         12    1    3    3    0    0 -0.59060027943E+02 -0.25547219909E+02 -0.49461099413E+02  0.81161245067E+02  0.00000000000E+00 0. -1.
        -11    1    4    4    0    0  0.56993512915E+02 -0.51982565089E+02 -0.20783834583E+03  0.22169173549E+03  0.00000000000E+00 0. -1.
         11    1    4    4    0    0  0.14025912172E+03  0.97035446148E+01 -0.26643583994E+03  0.30125543449E+03  0.00000000000E+00 0.  1.
         -4    1    1    2    0  502 -0.14830777990E+03  0.93494811760E+02 -0.13549366463E+04  0.13662319689E+04  0.00000000000E+00 0.  1.
<scales pt_clust_5="13000.00000" pt_clust_6="13000.00000" pt_clust_7="13000.00000" pt_clust_8="13000.00000" pt_clust_9="192.45816"></scales>
<clustering>
<clus scale="   80.649">  5  6 -1 -1</clus>
<clus scale="   88.553">  7  8 -1 -1</clus>
<clus scale="  107.345">  2  5  1 -1</clus>
<clus scale="  192.458">  1  9  2 -1</clus>
<clus scale="  192.458">  1  5  2 -1</clus>
</clustering>
</event>
<event>
 9    2  0.3764910E-005  0.2094998E+03  0.7546771E-02  0.1153979E+00
         21   -1    0    0  501  502  0.00000000000E+00  0.00000000000E+00  0.15058276504E+03  0.15058276504E+03  0.00000000000E+00 0. -1.
          2   -1    0    0  502    0 -0.00000000000E+00 -0.00000000000E+00 -0.12314288253E+04  0.12314288253E+04  0.00000000000E+00 0. -1.
         23    2    1    2    0    0 -0.11596754310E+03  0.54490106001E+02 -0.13677367989E+03  0.20854430514E+03  0.91466086563E+02 0.  0.
         24    2    1    2    0    0  0.30313156194E+02 -0.19760416239E+03 -0.12278298798E+01  0.21598404591E+03  0.81739268956E+02 0.  0.
        -11    1    4    4    0    0  0.20856585698E+02 -0.60719252227E+02  0.36273992491E+02  0.73740269115E+02  0.00000000000E+00 0.  1.
         12    1    4    4    0    0  0.94565704963E+01 -0.13688491017E+03 -0.37501822370E+02  0.14224377680E+03  0.00000000000E+00 0. -1.
        -11    1    3    3    0    0 -0.23013496265E+02  0.42969615671E+01  0.11820252085E+02  0.26226003287E+02  0.00000000000E+00 0.  1.
         11    1    3    3    0    0 -0.92954046838E+02  0.50193144434E+02 -0.14859393197E+03  0.18231830186E+03  0.00000000000E+00 0. -1.
          1    1    1    2  501    0  0.85654386910E+02  0.14311405639E+03 -0.94284455054E+03  0.95748323934E+03  0.00000000000E+00 0. -1.
<scales pt_clust_5="13000.00000" pt_clust_6="13000.00000" pt_clust_7="13000.00000" pt_clust_8="13000.00000" pt_clust_9="192.89606"></scales>
<clustering>
<clus scale="   81.739">  5  6 -1 -1</clus>
<clus scale="   91.466">  7  8 -1 -1</clus>
<clus scale="  157.428">  2  7  1 -1</clus>
<clus scale="  192.896">  1  9  2 -1</clus>
<clus scale="  192.896">  1  5  2 -1</clus>
</clustering>
</event>
<event>
 9    2  0.3764910E-005  0.1141575E+03  0.7546771E-02  0.1254382E+00
         21   -1    0    0  501  502  0.00000000000E+00  0.00000000000E+00  0.42291245156E+02  0.42291245156E+02  0.00000000000E+00 0. -1.
          2   -1    0    0  502    0 -0.00000000000E+00 -0.00000000000E+00 -0.51485985921E+03  0.51485985921E+03  0.00000000000E+00 0. -1.
         23    2    1    2    0    0 -0.20625425202E+02 -0.53134590896E+02 -0.20583024063E+03  0.23222135276E+03  0.91170037872E+02 0.  0.
         24    2    1    2    0    0  0.63460732874E+02  0.56645680023E+02 -0.25115483200E+03  0.27921281717E+03  0.87435976314E+02 0.  0.
        -13    1    4    4    0    0  0.50350770912E+02 -0.10851544356E+02 -0.13121115584E+03  0.14095858812E+03  0.00000000000E+00 0.  1.
         14    1    4    4    0    0  0.13109961962E+02  0.67497224378E+02 -0.11994367616E+03  0.13825422906E+03  0.00000000000E+00 0. -1.
        -11    1    3    3    0    0 -0.47337812753E+02 -0.20833531099E+02 -0.54252328333E+02  0.74954784129E+02  0.00000000000E+00 0.  1.
         11    1    3    3    0    0  0.26712387551E+02 -0.32301059797E+02 -0.15157791230E+03  0.15726656864E+03  0.00000000000E+00 0. -1.
          1    1    1    2  501    0 -0.42835307672E+02 -0.35110891264E+01 -0.15583541415E+02  0.45716934425E+02  0.00000000000E+00 0. -1.
<scales pt_clust_5="13000.00000" pt_clust_6="13000.00000" pt_clust_7="13000.00000" pt_clust_8="13000.00000" pt_clust_9="42.97896"></scales>
<clustering>
<clus scale="   42.979">  1  9  2 -1</clus>
<clus scale="   87.436">  5  6 -1 -1</clus>
<clus scale="   91.170">  7  8 -1 -1</clus>
<clus scale="  111.198">  1  5  2 -1</clus>
<clus scale="   42.979">  1  5  2 -1</clus>
</clustering>
</event>
<event>
 9    2  0.3764910E-005  0.1492641E+03  0.7546771E-02  0.1204630E+00
         21   -1    0    0  501  502  0.00000000000E+00  0.00000000000E+00  0.12769458287E+03  0.12769458287E+03  0.00000000000E+00 0. -1.
          2   -1    0    0  502    0 -0.00000000000E+00 -0.00000000000E+00 -0.10860827535E+04  0.10860827535E+04  0.00000000000E+00 0. -1.
         24    2    1    2    0    0 -0.34684601547E+02 -0.12243501098E+03 -0.59760698733E+03  0.61608823506E+03  0.78976253234E+02 0.  0.
         23    2    1    2    0    0  0.48768247841E+01  0.10187609884E+03 -0.46593721219E+03  0.48647326237E+03  0.95688172508E+02 0.  0.
        -11    1    3    3    0    0  0.20993338740E+02 -0.70579403237E+02 -0.28617033626E+03  0.29549218905E+03  0.00000000000E+00 0.  1.
         12    1    3    3    0    0 -0.55677940287E+02 -0.51855607744E+02 -0.31143665107E+03  0.32059604601E+03  0.00000000000E+00 0. -1.
        -11    1    4    4    0    0 -0.30169914100E+02  0.56718767820E+02 -0.12262227497E+03  0.13843216627E+03  0.00000000000E+00 0.  1.
         11    1    4    4    0    0  0.35046738885E+02  0.45157331023E+02 -0.34331493723E+03  0.34804109610E+03  0.00000000000E+00 0. -1.
          1    1    1    2  501    0  0.29807776763E+02  0.20558912138E+02  0.10515602888E+03  0.11121583896E+03  0.00000000000E+00 0. -1.
<scales pt_clust_5="13000.00000" pt_clust_6="13000.00000" pt_clust_7="13000.00000" pt_clust_8="13000.00000" pt_clust_9="36.21011"></scales>
<clustering>
<clus scale="   36.210">  1  9  2 -1</clus>
<clus scale="   78.976">  5  6 -1 -1</clus>
<clus scale="   95.688">  7  8 -1 -1</clus>
<clus scale="  139.143">  2  5  1 -1</clus>
<clus scale="   36.210">  1  5  2 -1</clus>
</clustering>
</event>
<event>
 9    2  0.3764910E-005  0.8190391E+02  0.7546771E-02  0.1324402E+00
          2   -1    0    0  502    0 -0.00000000000E+00  0.00000000000E+00  0.74734069571E+03  0.74734069571E+03  0.00000000000E+00 0. -1.
         21   -1    0    0  501  502  0.00000000000E+00 -0.00000000000E+00 -0.20635501981E+02  0.20635501981E+02  0.00000000000E+00 0. -1.
         24    2    1    2    0    0 -0.29425059298E+02  0.14322399708E+02  0.53567057218E+03  0.54228336926E+03  0.77828821305E+02 0.  0.
         23    2    1    2    0    0  0.21203381556E+01 -0.12441065897E+02  0.18013225913E+03  0.19623185900E+03  0.76811690214E+02 0.  0.
        -13    1    3    3    0    0 -0.12696787559E+02 -0.26219515489E+02  0.93257380231E+02  0.97701639568E+02  0.00000000000E+00 0.  1.
         14    1    3    3    0    0 -0.16728271739E+02  0.40541915196E+02  0.44241319195E+03  0.44458172969E+03  0.00000000000E+00 0. -1.
        -11    1    4    4    0    0 -0.30072272799E+02 -0.28308579104E+02  0.83645145643E+02  0.93285731127E+02  0.00000000000E+00 0. -1.
         11    1    4    4    0    0  0.32192610954E+02  0.15867513207E+02  0.96487113487E+02  0.10294612787E+03  0.00000000000E+00 0.  1.
          1    1    1    2  501    0  0.27304721143E+02 -0.18813338107E+01  0.10902362419E+02  0.29460969432E+02  0.00000000000E+00 0. -1.
<scales pt_clust_5="13000.00000" pt_clust_6="13000.00000" pt_clust_7="13000.00000" pt_clust_8="13000.00000" pt_clust_9="27.36946"></scales>
<clustering>
<clus scale="   27.369">  2  9  1 -1</clus>
<clus scale="   76.812">  7  8 -1 -1</clus>
<clus scale="   77.829">  5  6 -1 -1</clus>
<clus scale="   80.938">  2  7  1 -1</clus>
<clus scale="   27.369">  2  5  1 -1</clus>
</clustering>
</event>
<event>
 9    2  0.3764910E-005  0.9896659E+02  0.7546771E-02  0.1289067E+00
         21   -1    0    0  501  502  0.00000000000E+00  0.00000000000E+00  0.71252086508E+02  0.71252086508E+02  0.00000000000E+00 0.  1.
         -1   -1    0    0    0  501 -0.00000000000E+00 -0.00000000000E+00 -0.17981293242E+03  0.17981293242E+03  0.00000000000E+00 0.  1.
         24    2    1    2    0    0 -0.31984648211E+02 -0.53655971155E+01 -0.38250988587E+02  0.93378819611E+02  0.78769654502E+02 0.  0.
         23    2    1    2    0    0  0.41671727789E+02 -0.29650852681E+02 -0.50231135011E+02  0.11617540124E+03  0.91421282902E+02 0.  0.
        -13    1    3    3    0    0 -0.43969964868E+01 -0.34463148689E+02 -0.40326464790E+02  0.53228431858E+02  0.00000000000E+00 0.  1.
         14    1    3    3    0    0 -0.27587651725E+02  0.29097551573E+02  0.20754762024E+01  0.40150387753E+02  0.00000000000E+00 0. -1.
        -13    1    4    4    0    0  0.55889682076E+02  0.12308270267E+02 -0.42308655954E+02  0.71170024928E+02  0.00000000000E+00 0.  1.
         13    1    4    4    0    0 -0.14217954288E+02 -0.41959122948E+02 -0.79224790565E+01  0.45005376313E+02  0.00000000000E+00 0. -1.
         -2    1    1    2    0  502 -0.96870795772E+01  0.35016449797E+02 -0.20078722313E+02  0.41510798075E+02  0.00000000000E+00 0.  1.
<scales pt_clust_5="13000.00000" pt_clust_6="13000.00000" pt_clust_7="13000.00000" pt_clust_8="13000.00000" pt_clust_9="36.33170"></scales>
<clustering>
<clus scale="   36.332">  1  9  2 -1</clus>
<clus scale="   78.770">  5  6 -1 -1</clus>
<clus scale="   87.414">  2  5  1 -1</clus>
<clus scale="   91.421">  7  8 -1 -1</clus>
<clus scale="   36.332">  1  5  2 -1</clus>
</clustering>
</event>
<event>
 9    2  0.3764910E-005  0.9706851E+02  0.7546771E-02  0.1288249E+00
         21   -1    0    0  501  502  0.00000000000E+00  0.00000000000E+00  0.14090159389E+03  0.14090159389E+03  0.00000000000E+00 0.  1.
          2   -1    0    0  502    0 -0.00000000000E+00 -0.00000000000E+00 -0.25584206063E+03  0.25584206063E+03  0.00000000000E+00 0. -1.
         23    2    1    2    0    0 -0.28076139744E+02 -0.86668762218E+01 -0.20094238818E+03  0.22261116646E+03  0.91183900436E+02 0.  0.
         24    2    1    2    0    0  0.67648015552E+02  0.12098535609E+02  0.65286385650E+02  0.12933468606E+03  0.87991592182E+02 0.  0.
        -11    1    4    4    0    0  0.71251205364E+02 -0.18380534207E+02  0.65691770063E+02  0.98640696254E+02  0.00000000000E+00 0.  1.
         12    1    4    4    0    0 -0.36031898115E+01  0.30479069816E+02 -0.40538441295E+00  0.30693989805E+02  0.00000000000E+00 0. -1.
        -13    1    3    3    0    0 -0.18964443680E+02 -0.37452241092E+02 -0.18242300127E+03  0.18719100374E+03  0.00000000000E+00 0. -1.
         13    1    3    3    0    0 -0.91116960644E+01  0.28785364870E+02 -0.18519386907E+02  0.35420162722E+02  0.00000000000E+00 0.  1.
          1    1    1    2  501    0 -0.39571875808E+02 -0.34316593871E+01  0.20715535794E+02  0.44797802004E+02  0.00000000000E+00 0. -1.
<scales pt_clust_5="13000.00000" pt_clust_6="13000.00000" pt_clust_7="13000.00000" pt_clust_8="13000.00000" pt_clust_9="39.72039"></scales>
<clustering>
<clus scale="   39.720">  1  9  2 -1</clus>
<clus scale="   87.992">  5  6 -1 -1</clus>
<clus scale="   91.184">  7  8 -1 -1</clus>
<clus scale="   94.076">  1  5  2 -1</clus>
<clus scale="   39.720">  1  5  2 -1</clus>
</clustering>
</event>
<event>
 9    2  0.3764910E-005  0.1030861E+03  0.7546771E-02  0.1283291E+00
         21   -1    0    0  501  502  0.00000000000E+00  0.00000000000E+00  0.43315111469E+03  0.43315111469E+03  0.00000000000E+00 0. -1.
         -1   -1    0    0    0  501 -0.00000000000E+00 -0.00000000000E+00 -0.43191138878E+02  0.43191138878E+02  0.00000000000E+00 0.  1.
         24    2    1    2    0    0 -0.41687953929E+02  0.68955666957E+01  0.53006351064E+02  0.10462911986E+03  0.79700345836E+02 0.  0.
         23    2    1    2    0    0  0.15856497280E+02  0.11504615269E+02  0.13774982467E+03  0.17000050442E+03  0.97679949982E+02 0.  0.
        -13    1    3    3    0    0  0.13975099223E+02 -0.21143202726E+02  0.47046787565E+01  0.25777362588E+02  0.00000000000E+00 0.  1.
         14    1    3    3    0    0 -0.55663053152E+02  0.28038769421E+02  0.48301672307E+02  0.78851757270E+02  0.00000000000E+00 0. -1.
        -13    1    4    4    0    0 -0.16997564850E+02  0.41321560919E+02  0.30954730269E+02  0.54356084605E+02  0.00000000000E+00 0. -1.
         13    1    4    4    0    0  0.32854062130E+02 -0.29816945650E+02  0.10679509440E+03  0.11564441982E+03  0.00000000000E+00 0.  1.
         -2    1    1    2    0  502  0.25831456649E+02 -0.18400181964E+02  0.19920380007E+03  0.20171262928E+03  0.00000000000E+00 0.  1.
<scales pt_clust_5="13000.00000" pt_clust_6="13000.00000" pt_clust_7="13000.00000" pt_clust_8="13000.00000" pt_clust_9="31.71484"></scales>
<clustering>
<clus scale="   31.715">  1  9  2 -1</clus>
<clus scale="   79.700">  5  6 -1 -1</clus>
<clus scale="   86.241">  2  5  1 -1</clus>
<clus scale="   97.680">  7  8 -1 -1</clus>
<clus scale="   31.715">  1  5  2 -1</clus>
</clustering>
</event>
<event>
 9    2  0.3764910E-005  0.2099658E+03  0.7546771E-02  0.1168338E+00
          2   -1    0    0  502    0 -0.00000000000E+00  0.00000000000E+00  0.19918125322E+04  0.19918125322E+04  0.00000000000E+00 0. -1.
         21   -1    0    0  501  502  0.00000000000E+00 -0.00000000000E+00 -0.45797318372E+02  0.45797318372E+02  0.00000000000E+00 0.  1.
         23    2    1    2    0    0 -0.49879107646E+01  0.65860381909E+02  0.63892702024E+03  0.64867355134E+03  0.90482981019E+02 0.  0.
         24    2    1    2    0    0 -0.87094246617E+02 -0.18993179128E+03  0.32504300402E+03  0.39481075752E+03  0.81012879602E+02 0.  0.
        -13    1    4    4    0    0 -0.74623134165E+02 -0.15104530381E+03  0.19099831179E+03  0.25468343303E+03  0.00000000000E+00 0.  1.
         14    1    4    4    0    0 -0.12471112452E+02 -0.38886487470E+02  0.13404469223E+03  0.14012732449E+03  0.00000000000E+00 0. -1.
        -11    1    3    3    0    0  0.26948186896E+02 -0.10757549042E+02  0.16710398584E+03  0.16960445667E+03  0.00000000000E+00 0. -1.
         11    1    3    3    0    0 -0.31936097660E+02  0.76617930950E+02  0.47182303439E+03  0.47906909466E+03  0.00000000000E+00 0.  1.
          1    1    1    2  501    0  0.92082157381E+02  0.12407140937E+03  0.98204518958E+03  0.99412554172E+03  0.00000000000E+00 0. -1.
<scales pt_clust_5="13000.00000" pt_clust_6="13000.00000" pt_clust_7="13000.00000" pt_clust_8="13000.00000" pt_clust_9="193.70748"></scales>
<clustering>
<clus scale="   81.013">  5  6 -1 -1</clus>
<clus scale="   90.483">  7  8 -1 -1</clus>
<clus scale="  112.025">  1  7  2 -1</clus>
<clus scale="  193.707">  2  9  1 -1</clus>
<clus scale="  193.707">  2  5  1 -1</clus>
</clustering>
</event>
<event>
 9    2  0.3764910E-005  0.9993987E+02  0.7546771E-02  0.1283252E+00
          2   -1    0    0  502    0 -0.00000000000E+00  0.00000000000E+00  0.11942684460E+03  0.11942684460E+03  0.00000000000E+00 0. -1.
         21   -1    0    0  501  502  0.00000000000E+00 -0.00000000000E+00 -0.15906920518E+03  0.15906920518E+03  0.00000000000E+00 0.  1.
         23    2    1    2    0    0 -0.41785823928E+02 -0.49054165152E+02  0.34564615689E+02  0.11413722656E+03  0.87636907919E+02 0.  0.
         24    2    1    2    0    0  0.20007073024E+02 -0.26549058634E+01 -0.67545450513E+02  0.10785645210E+03  0.81629007576E+02 0.  0.
        -11    1    4    4    0    0  0.36680919776E+02 -0.33549930365E+01 -0.79304553299E+02  0.87441168953E+02  0.00000000000E+00 0.  1.
         12    1    4    4    0    0 -0.16673846751E+02  0.70008717314E+00  0.11759102786E+02  0.20415283145E+02  0.00000000000E+00 0. -1.
        -11    1    3    3    0    0  0.96052063692E+01  0.20147393491E+02  0.39600293328E+01  0.22668464575E+02  0.00000000000E+00 0.  1.
         11    1    3    3    0    0 -0.51391030297E+02 -0.69201558643E+02  0.30604586356E+02  0.91468761988E+02  0.00000000000E+00 0. -1.
          1    1    1    2  501    0  0.21778750904E+02  0.51709071015E+02 -0.66615257535E+01  0.56502371114E+02  0.00000000000E+00 0. -1.
<scales pt_clust_5="13000.00000" pt_clust_6="13000.00000" pt_clust_7="13000.00000" pt_clust_8="13000.00000" pt_clust_9="56.10833"></scales>
<clustering>
<clus scale="   56.108">  2  9  1 -1</clus>
<clus scale="   81.629">  5  6 -1 -1</clus>
<clus scale="   87.637">  7  8 -1 -1</clus>
<clus scale="   94.716">  2  5  1 -1</clus>
<clus scale="   56.108">  2  5  1 -1</clus>
</clustering>
</event>
<event>
 9    2  0.3764910E-005  0.2946149E+03  0.7546771E-02  0.1088820E+00
          2   -1    0    0  502    0 -0.00000000000E+00  0.00000000000E+00  0.10848278420E+04  0.10848278420E+04  0.00000000000E+00 0. -1.
         21   -1    0    0  501  502  0.00000000000E+00 -0.00000000000E+00 -0.18808150215E+03  0.18808150215E+03  0.00000000000E+00 0. -1.
         24    2    1    2    0    0  0.31658273216E+02  0.29916914908E+03  0.87059294945E+03  0.92447515247E+03  0.78853014360E+02 0.  0.
         23    2    1    2    0    0  0.21576923208E+02 -0.20152444942E+03  0.56598097479E+02  0.23312871178E+03  0.10033934567E+03 0.  0.
        -13    1    3    3    0    0  0.39473263884E+02  0.19818653237E+03  0.66922854536E+03  0.69907287610E+03  0.00000000000E+00 0.  1.
         14    1    3    3    0    0 -0.78149906686E+01  0.10098261671E+03  0.20136440409E+03  0.22540227637E+03  0.00000000000E+00 0. -1.
        -13    1    4    4    0    0 -0.31016220786E+02 -0.71428202173E+02  0.50216083310E+02  0.92658777461E+02  0.00000000000E+00 0.  1.
         13    1    4    4    0    0  0.52593143994E+02 -0.13009624725E+03  0.63820141688E+01  0.14046993432E+03  0.00000000000E+00 0. -1.
          1    1    1    2  501    0 -0.53235196424E+02 -0.97644699660E+02 -0.30444707071E+02  0.11530547992E+03  0.00000000000E+00 0. -1.
<scales pt_clust_5="13000.00000" pt_clust_6="13000.00000" pt_clust_7="13000.00000" pt_clust_8="13000.00000" pt_clust_9="111.21364"></scales>
<clustering>
<clus scale="   78.853">  5  6 -1 -1</clus>
<clus scale="  100.339">  7  8 -1 -1</clus>
<clus scale="  111.214">  2  9  1 -1</clus>
<clus scale="  288.007">  1  5  2 -1</clus>
<clus scale="  111.214">  2  5  1 -1</clus>
</clustering>
</event>
<event>
 9    2  0.3764910E-005  0.7488718E+03  0.7546771E-02  0.9637561E-01
         21   -1    0    0  501  502  0.00000000000E+00  0.00000000000E+00  0.34083262140E+03  0.34083262140E+03  0.00000000000E+00 0. -1.
          2   -1    0    0  502    0 -0.00000000000E+00 -0.00000000000E+00 -0.26538259492E+04  0.26538259492E+04  0.00000000000E+00 0. -1.
         23    2    1    2    0    0  0.73538587847E+03  0.16871528605E+03 -0.18218278022E+04  0.19739618090E+04  0.90617020806E+02 0.  0.
         24    2    1    2    0    0 -0.67432338106E+03 -0.21327340262E+03 -0.22889610823E+03  0.74775115965E+03  0.80875224143E+02 0.  0.
        -11    1    4    4    0    0 -0.20086551395E+03 -0.52771364317E+02 -0.30544441603E+02  0.20991601773E+03  0.00000000000E+00 0.  1.
         12    1    4    4    0    0 -0.47345786712E+03 -0.16050203831E+03 -0.19835166663E+03  0.53783514193E+03  0.00000000000E+00 0. -1.
        -13    1    3    3    0    0  0.56090807602E+02  0.87073227718E-01 -0.90010052909E+02  0.10605656936E+03  0.00000000000E+00 0.  1.
         13    1    3    3    0    0  0.67929507087E+03  0.16862821282E+03 -0.17318177493E+04  0.18679052397E+04  0.00000000000E+00 0. -1.
          1    1    1    2  501    0 -0.61062497406E+02  0.44558116571E+02 -0.26226941734E+03  0.27294560193E+03  0.00000000000E+00 0. -1.
<scales pt_clust_5="13000.00000" pt_clust_6="13000.00000" pt_clust_7="13000.00000" pt_clust_8="13000.00000" pt_clust_9="75.59140"></scales>
<clustering>
<clus scale="   75.591">  1  9  2 -1</clus>
<clus scale="   80.875">  5  6 -1 -1</clus>
<clus scale="   90.617">  7  8 -1 -1</clus>
<clus scale="  747.755">  1  5  2 -1</clus>
<clus scale="   75.591">  1  5  2 -1</clus>
</clustering>
</event>
<event>
 9    2  0.3764910E-005  0.9910625E+02  0.7546771E-02  0.1287609E+00
         21   -1    0    0  501  502  0.00000000000E+00  0.00000000000E+00  0.93507043134E+02  0.93507043134E+02  0.00000000000E+00 0. -1.
          2   -1    0    0  502    0 -0.00000000000E+00 -0.00000000000E+00 -0.25047041168E+03  0.25047041168E+03  0.00000000000E+00 0. -1.
         24    2    1    2    0    0 -0.33453050243E+02  0.27003620648E+02 -0.14421218572E+03  0.17044305228E+03  0.80033602078E+02 0.  0.
         23    2    1    2    0    0 -0.21253062865E+02 -0.57633433265E+02 -0.16291220464E+02  0.11073729991E+03  0.90686495219E+02 0.  0.
        -11    1    3    3    0    0 -0.88222010998E+01 -0.28312937371E+02 -0.38248315666E+02  0.48398215939E+02  0.00000000000E+00 0.  1.
         12    1    3    3    0    0 -0.24630849144E+02  0.55316558019E+02 -0.10596387005E+03  0.12204483634E+03  0.00000000000E+00 0. -1.
        -13    1    4    4    0    0 -0.49759189568E+02 -0.97493715154E+01  0.52835829565E+01  0.50979833662E+02  0.00000000000E+00 0. -1.
         13    1    4    4    0    0  0.28506126702E+02 -0.47884061749E+02 -0.21574803421E+02  0.59757466243E+02  0.00000000000E+00 0.  1.
          1    1    1    2  501    0  0.54706113109E+02  0.30629812616E+02  0.35400376353E+01  0.62797102631E+02  0.00000000000E+00 0. -1.
<scales pt_clust_5="13000.00000" pt_clust_6="13000.00000" pt_clust_7="13000.00000" pt_clust_8="13000.00000" pt_clust_9="62.69724"></scales>
<clustering>
<clus scale="   62.697">  1  9  2 -1</clus>
<clus scale="   80.034">  5  6 -1 -1</clus>
<clus scale="   89.462">  2  5  1 -1</clus>
<clus scale="   90.686">  7  8 -1 -1</clus>
<clus scale="   62.697">  1  5  2 -1</clus>
</clustering>
</event>
<event>
 9    2  0.3764910E-005  0.9672121E+02  0.7546771E-02  0.1293087E+00
          4   -1    0    0  502    0 -0.00000000000E+00  0.00000000000E+00  0.29115702441E+02  0.29115702441E+02  0.00000000000E+00 0. -1.
         21   -1    0    0  501  502  0.00000000000E+00 -0.00000000000E+00 -0.58473281562E+03  0.58473281562E+03  0.00000000000E+00 0.  1.
         23    2    1    2    0    0  0.14328270972E+02  0.20366883530E+02 -0.25149157091E+03  0.26850878531E+03  0.90712999391E+02 0.  0.
         24    2    1    2    0    0  0.32618851153E+02 -0.44563903395E+02 -0.25606065315E+03  0.27392711753E+03  0.80119140601E+02 0.  0.
        -13    1    4    4    0    0 -0.21769237062E+02 -0.27084861953E+02 -0.56318099159E+02  0.66175658079E+02  0.00000000000E+00 0.  1.
         14    1    4    4    0    0  0.54388088215E+02 -0.17479041442E+02 -0.19974255399E+03  0.20775145945E+03  0.00000000000E+00 0. -1.
        -13    1    3    3    0    0 -0.32176771548E+02 -0.44864461142E+01 -0.15675606867E+03  0.16008728210E+03  0.00000000000E+00 0. -1.
         13    1    3    3    0    0  0.46505042520E+02  0.24853329644E+02 -0.94735502238E+02  0.10842150321E+03  0.00000000000E+00 0.  1.
          3    1    1    2  501    0 -0.46947122125E+02  0.24197019865E+02 -0.48064889121E+02  0.71412615219E+02  0.00000000000E+00 0. -1.
<scales pt_clust_5="13000.00000" pt_clust_6="13000.00000" pt_clust_7="13000.00000" pt_clust_8="13000.00000" pt_clust_9="52.81601"></scales>
<clustering>
<clus scale="   52.816">  2  9  1 -1</clus>
<clus scale="   80.119">  5  6 -1 -1</clus>
<clus scale="   86.863">  2  5  1 -1</clus>
<clus scale="   90.713">  7  8 -1 -1</clus>
<clus scale="   52.816">  2  5  1 -1</clus>
</clustering>
</event>
<event>
 9    2  0.3764910E-005  0.1337525E+03  0.7546771E-02  0.1238741E+00
         21   -1    0    0  501  502  0.00000000000E+00  0.00000000000E+00  0.16276855117E+03  0.16276855117E+03  0.00000000000E+00 0. -1.
          2   -1    0    0  502    0 -0.00000000000E+00 -0.00000000000E+00 -0.53644914489E+03  0.53644914489E+03  0.00000000000E+00 0. -1.
         23    2    1    2    0    0  0.81795235761E+01  0.23369695390E+02  0.35132612494E+02  0.10097256463E+03  0.91367998109E+02 0.  0.
         24    2    1    2    0    0 -0.34610084762E+02 -0.12361983056E+03 -0.45853656913E+03  0.48326218928E+03  0.82503562867E+02 0.  0.
        -13    1    4    4    0    0 -0.29215785648E+02 -0.50282335394E+01 -0.14509508038E+03  0.14809263187E+03  0.00000000000E+00 0.  1.
         14    1    4    4    0    0 -0.53942991132E+01 -0.11859159702E+03 -0.31344148875E+03  0.33516955742E+03  0.00000000000E+00 0. -1.
        -11    1    3    3    0    0 -0.37571296854E+02  0.26584499969E+02  0.29728566465E+02  0.54791656755E+02  0.00000000000E+00 0. -1.
         11    1    3    3    0    0  0.45750820430E+02 -0.32148045795E+01  0.54040460293E+01  0.46180907873E+02  0.00000000000E+00 0.  1.
          1    1    1    2  501    0  0.26430561185E+02  0.10025013517E+03  0.49723362913E+02  0.11498294215E+03  0.00000000000E+00 0. -1.
<scales pt_clust_5="13000.00000" pt_clust_6="13000.00000" pt_clust_7="13000.00000" pt_clust_8="13000.00000" pt_clust_9="105.27534"></scales>
<clustering>
<clus scale="   82.504">  5  6 -1 -1</clus>
<clus scale="   91.368">  7  8 -1 -1</clus>
<clus scale="   94.663">  2  7  1 -1</clus>
<clus scale="  105.275">  1  9  2 -1</clus>
<clus scale="  105.275">  1  5  2 -1</clus>
</clustering>
</event>
<event>
 9    2  0.3764910E-005  0.2990049E+03  0.7546771E-02  0.1085739E+00
         21   -1    0    0  501  502  0.00000000000E+00  0.00000000000E+00  0.13333137138E+03  0.13333137138E+03  0.00000000000E+00 0. -1.
          2   -1    0    0  502    0 -0.00000000000E+00 -0.00000000000E+00 -0.55452567157E+03  0.55452567157E+03  0.00000000000E+00 0. -1.
         24    2    1    2    0    0  0.10747631609E+03  0.27817569578E+02 -0.19177293486E+03  0.23372306530E+03  0.74327901953E+02 0.  0.
         23    2    1    2    0    0  0.11811723129E+03  0.43114512209E+02 -0.10225263385E+03  0.18562756226E+03  0.90506625446E+02 0.  0.
        -11    1    3    3    0    0  0.23605569203E+02  0.40420266522E+02 -0.49790517852E+02  0.68338250717E+02  0.00000000000E+00 0.  1.
         12    1    3    3    0    0  0.83870746884E+02 -0.12602696944E+02 -0.14198241701E+03  0.16538481458E+03  0.00000000000E+00 0. -1.
        -11    1    4    4    0    0  0.89691022971E+02  0.56349532956E+02 -0.35222836709E+02  0.11162615147E+03  0.00000000000E+00 0. -1.
         11    1    4    4    0    0  0.28426208315E+02 -0.13235020747E+02 -0.67029797144E+02  0.74001410788E+02  0.00000000000E+00 0.  1.
          1    1    1    2  501    0 -0.22559354737E+03 -0.70932081787E+02 -0.12716873148E+03  0.26850641540E+03  0.00000000000E+00 0. -1.
<scales pt_clust_5="13000.00000" pt_clust_6="13000.00000" pt_clust_7="13000.00000" pt_clust_8="13000.00000" pt_clust_9="236.48215"></scales>
<clustering>
<clus scale="   74.328">  5  6 -1 -1</clus>
<clus scale="   90.507">  7  8 -1 -1</clus>
<clus scale="  116.597">  5  7 -1 -1</clus>
<clus scale="  236.482">  1  9  2 -1</clus>
<clus scale="  236.482">  1  5  2 -1</clus>
</clustering>
</event>
<event>
 9    2  0.3764910E-005  0.1206876E+03  0.7546771E-02  0.1244508E+00
         -3   -1    0    0    0  501 -0.00000000000E+00  0.00000000000E+00  0.12918703275E+03  0.12918703275E+03  0.00000000000E+00 0.  1.
         21   -1    0    0  501  502  0.00000000000E+00 -0.00000000000E+00 -0.17938086525E+03  0.17938086525E+03  0.00000000000E+00 0.  1.
         24    2    1    2    0    0 -0.76764077685E+02  0.54322987320E+02  0.30533807111E+02  0.12795566345E+03  0.81219627297E+02 0.  0.
         23    2    1    2    0    0  0.27033098409E+02 -0.51563393084E+02 -0.74931176892E+02  0.13046859448E+03  0.89542174189E+02 0.  0.
        -13    1    3    3    0    0 -0.40478863679E+02  0.52016564174E+02  0.53551545627E+02  0.84923668034E+02  0.00000000000E+00 0.  1.
         14    1    3    3    0    0 -0.36285214007E+02  0.23064231456E+01 -0.23017738516E+02  0.43031995418E+02  0.00000000000E+00 0. -1.
        -11    1    4    4    0    0  0.39209099434E+02 -0.29952955080E+02 -0.89138569600E+02  0.10188335284E+03  0.00000000000E+00 0.  1.
         11    1    4    4    0    0 -0.12176001025E+02 -0.21610438004E+02  0.14207392708E+02  0.28585241633E+02  0.00000000000E+00 0. -1.
         -4    1    1    2    0  502  0.49730979276E+02 -0.27595942361E+01 -0.57964627198E+01  0.50143640077E+02  0.00000000000E+00 0.  1.
<scales pt_clust_5="13000.00000" pt_clust_6="13000.00000" pt_clust_7="13000.00000" pt_clust_8="13000.00000" pt_clust_9="49.80751"></scales>
<clustering>
<clus scale="   49.808">  2  9  1 -1</clus>
<clus scale="   81.220">  5  6 -1 -1</clus>
<clus scale="   89.542">  7  8 -1 -1</clus>
<clus scale="  114.649">  1  5  2 -1</clus>
<clus scale="   49.808">  2  5  1 -1</clus>
</clustering>
</event>
<event>
 9    2  0.3764910E-005  0.1123622E+03  0.7546771E-02  0.1259104E+00
          2   -1    0    0  502    0 -0.00000000000E+00  0.00000000000E+00  0.28995747520E+03  0.28995747520E+03  0.00000000000E+00 0. -1.
         21   -1    0    0  501  502  0.00000000000E+00 -0.00000000000E+00 -0.13150339869E+03  0.13150339869E+03  0.00000000000E+00 0. -1.
         24    2    1    2    0    0  0.56450781185E+02  0.18555526501E+02  0.13876752786E+03  0.17140337196E+03  0.81189228782E+02 0.  0.
         23    2    1    2    0    0 -0.10993540778E+03 -0.60844859587E+02 -0.40344932541E+02  0.15921273483E+03  0.89067898426E+02 0.  0.
        -13    1    3    3    0    0  0.70777554475E+02  0.16598763982E+02  0.69263742642E+02  0.10041138993E+03  0.00000000000E+00 0.  1.
         14    1    3    3    0    0 -0.14326773290E+02  0.19567625189E+01  0.69503785218E+02  0.70991982027E+02  0.00000000000E+00 0. -1.
        -13    1    4    4    0    0 -0.11288534396E+02 -0.48751946746E+02  0.43688369177E+01  0.50232161573E+02  0.00000000000E+00 0.  1.
         13    1    4    4    0    0 -0.98646873381E+02 -0.12092912841E+02 -0.44713769458E+02  0.10898057326E+03  0.00000000000E+00 0. -1.
          1    1    1    2  501    0  0.53484626592E+02  0.42289333086E+02  0.60031481194E+02  0.90844767097E+02  0.00000000000E+00 0. -1.
<scales pt_clust_5="13000.00000" pt_clust_6="13000.00000" pt_clust_7="13000.00000" pt_clust_8="13000.00000" pt_clust_9="68.18356"></scales>
<clustering>
<clus scale="   68.184">  2  9  1 -1</clus>
<clus scale="   81.189">  5  6 -1 -1</clus>
<clus scale="   89.068">  7  8 -1 -1</clus>
<clus scale="  106.226">  1  5  2 -1</clus>
<clus scale="   68.184">  2  5  1 -1</clus>
</clustering>
</event>
<event>
 9    2  0.3764910E-005  0.1251989E+03  0.7546771E-02  0.1237285E+00
          2   -1    0    0  502    0 -0.00000000000E+00  0.00000000000E+00  0.69887010573E+02  0.69887010573E+02  0.00000000000E+00 0. -1.
         21   -1    0    0  501  502  0.00000000000E+00 -0.00000000000E+00 -0.62793904741E+03  0.62793904741E+03  0.00000000000E+00 0. -1.
         24    2    1    2    0    0 -0.82505469165E+02  0.17544097603E+02 -0.76937874129E+02  0.14161938054E+03  0.83795373781E+02 0.  0.
         23    2    1    2    0    0  0.51689522211E+01  0.79592863710E+02 -0.37077504894E+03  0.39010054831E+03  0.91337609213E+02 0.  0.
        -13    1    3    3    0    0  0.48763368695E+01  0.30157023596E+02 -0.21785714689E+02  0.37521221967E+02  0.00000000000E+00 0.  1.
         14    1    3    3    0    0 -0.87381806035E+02 -0.12612925993E+02 -0.55152159440E+02  0.10409815858E+03  0.00000000000E+00 0. -1.
        -11    1    4    4    0    0  0.25996278886E+02  0.60321927879E+02 -0.34676194731E+03  0.35292830660E+03  0.00000000000E+00 0. -1.
         11    1    4    4    0    0 -0.20827326665E+02  0.19270935830E+02 -0.24013101627E+02  0.37172241708E+02  0.00000000000E+00 0.  1.
          1    1    1    2  501    0  0.77336516944E+02 -0.97136961312E+02 -0.11033911377E+03  0.16610612912E+03  0.00000000000E+00 0. -1.
<scales pt_clust_5="13000.00000" pt_clust_6="13000.00000" pt_clust_7="13000.00000" pt_clust_8="13000.00000" pt_clust_9="85.62835"></scales>
<clustering>
<clus scale="   83.795">  5  6 -1 -1</clus>
<clus scale="   91.338">  7  8 -1 -1</clus>
<clus scale="  118.897">  1  5  2 -1</clus>
<clus scale="   85.628">  2  9  1 -1</clus>
<clus scale="   85.628">  2  5  1 -1</clus>
</clustering>
</event>
<event>
 9    2  0.3764910E-005  0.2148409E+03  0.7546771E-02  0.1170205E+00
         21   -1    0    0  501  502  0.00000000000E+00  0.00000000000E+00  0.20567908901E+03  0.20567908901E+03  0.00000000000E+00 0.  1.
          2   -1    0    0  502    0 -0.00000000000E+00 -0.00000000000E+00 -0.45382709751E+03  0.45382709751E+03  0.00000000000E+00 0. -1.
         24    2    1    2    0    0  0.52397115342E+02 -0.30262903976E+02  0.25421125084E+01  0.10022447290E+03  0.79857257523E+02 0.  0.
         23    2    1    2    0    0 -0.13814945467E+03 -0.12861325897E+03  0.35595290312E+02  0.22082280091E+03  0.10894513529E+03 0.  0.
        -11    1    3    3    0    0  0.63850692793E+02  0.39151598556E+01  0.44717393725E+01  0.64126717520E+02  0.00000000000E+00 0.  1.
         12    1    3    3    0    0 -0.11453577451E+02 -0.34178063832E+02 -0.19296268642E+01  0.36097755381E+02  0.00000000000E+00 0. -1.
        -13    1    4    4    0    0  0.35734993151E+01 -0.54926424406E+02  0.25797188492E+02  0.60787966979E+02  0.00000000000E+00 0. -1.
         13    1    4    4    0    0 -0.14172295398E+03 -0.73686834561E+02  0.97981018197E+01  0.16003483393E+03  0.00000000000E+00 0.  1.
          1    1    1    2  501    0  0.85752339326E+02  0.15887616294E+03 -0.28628541133E+03  0.33845891271E+03  0.00000000000E+00 0. -1.
<scales pt_clust_5="13000.00000" pt_clust_6="13000.00000" pt_clust_7="13000.00000" pt_clust_8="13000.00000" pt_clust_9="185.16912"></scales>
<clustering>
<clus scale="   79.857">  5  6 -1 -1</clus>
<clus scale="  100.192">  2  5  1 -1</clus>
<clus scale="  108.945">  7  8 -1 -1</clus>
<clus scale="  185.169">  1  9  2 -1</clus>
<clus scale="  185.169">  1  5  2 -1</clus>
</clustering>
</event>
<event>
 9    2  0.3764910E-005  0.9261765E+02  0.7546771E-02  0.1298723E+00
         -1   -1    0    0    0  501 -0.00000000000E+00  0.00000000000E+00  0.29340073114E+02  0.29340073114E+02  0.00000000000E+00 0.  1.
         21   -1    0    0  501  502  0.00000000000E+00 -0.00000000000E+00 -0.58542255958E+03  0.58542255958E+03  0.00000000000E+00 0.  1.
         23    2    1    2    0    0  0.54617140000E+01 -0.18766094154E+02 -0.73355847236E+02  0.11736447754E+03  0.89506109594E+02 0.  0.
         24    2    1    2    0    0 -0.52527835966E+01  0.42237306478E+02 -0.40622069001E+03  0.41737252348E+03  0.85866131651E+02 0.  0.
        -13    1    4    4    0    0 -0.13605353663E+02  0.67691739174E+02 -0.29184796459E+03  0.29990417075E+03  0.00000000000E+00 0.  1.
         14    1    4    4    0    0  0.83525700661E+01 -0.25454432696E+02 -0.11437272543E+03  0.11746835273E+03  0.00000000000E+00 0. -1.
        -13    1    3    3    0    0  0.42843204149E+02  0.55094237870E+01 -0.52974692623E+02  0.68353580380E+02  0.00000000000E+00 0.  1.
         13    1    3    3    0    0 -0.37381490149E+02 -0.24275517941E+02 -0.20381154613E+02  0.49010897160E+02  0.00000000000E+00 0. -1.
         -2    1    1    2    0  502 -0.20893040341E+00 -0.23471212324E+02 -0.76505949213E+02  0.80025631674E+02  0.00000000000E+00 0.  1.
<scales pt_clust_5="13000.00000" pt_clust_6="13000.00000" pt_clust_7="13000.00000" pt_clust_8="13000.00000" pt_clust_9="23.47214"></scales>
<clustering>
<clus scale="   23.472">  2  9  1 -1</clus>
<clus scale="   85.866">  5  6 -1 -1</clus>
<clus scale="   89.105">  2  5  1 -1</clus>
<clus scale="   89.506">  7  8 -1 -1</clus>
<clus scale="   23.472">  2  5  1 -1</clus>
</clustering>
</event>
<event>
 9    2  0.3764910E-005  0.9588894E+02  0.7546771E-02  0.1296254E+00
         -1   -1    0    0    0  501 -0.00000000000E+00  0.00000000000E+00  0.12280038231E+03  0.12280038231E+03  0.00000000000E+00 0.  1.
         21   -1    0    0  501  502  0.00000000000E+00 -0.00000000000E+00 -0.85194262320E+02  0.85194262320E+02  0.00000000000E+00 0. -1.
         24    2    1    2    0    0 -0.19695941284E+02  0.25180295605E+02  0.16982962145E+02  0.88874806702E+02  0.81168546083E+02 0.  0.
         23    2    1    2    0    0  0.92600658608E+01 -0.52237975347E+01  0.10965310094E+02  0.94615892651E+02  0.93375008628E+02 0.  0.
        -13    1    3    3    0    0 -0.25623524287E+02  0.41506463454E+02  0.37838267041E+02  0.61733993537E+02  0.00000000000E+00 0.  1.
         14    1    3    3    0    0  0.59275830024E+01 -0.16326167850E+02 -0.20855304896E+02  0.27140813164E+02  0.00000000000E+00 0. -1.
        -13    1    4    4    0    0  0.47232666310E+02 -0.21755274389E+02  0.11226013530E+02  0.53200001037E+02  0.00000000000E+00 0.  1.
         13    1    4    4    0    0 -0.37972600450E+02  0.16531476855E+02 -0.26070343559E+00  0.41415891614E+02  0.00000000000E+00 0. -1.
         -2    1    1    2    0  502  0.10435875424E+02 -0.19956498070E+02  0.96578477548E+01  0.24503945281E+02  0.00000000000E+00 0.  1.
<scales pt_clust_5="13000.00000" pt_clust_6="13000.00000" pt_clust_7="13000.00000" pt_clust_8="13000.00000" pt_clust_9="22.52043"></scales>
<clustering>
<clus scale="   22.520">  2  9  1 -1</clus>
<clus scale="   81.169">  5  6 -1 -1</clus>
<clus scale="   84.048">  1  5  2 -1</clus>
<clus scale="   93.375">  7  8 -1 -1</clus>
<clus scale="   22.520">  2  5  1 -1</clus>
</clustering>
</event>
<event>
 9    2  0.3764910E-005  0.1069091E+03  0.7546771E-02  0.1270073E+00
         21   -1    0    0  501  502  0.00000000000E+00  0.00000000000E+00  0.41967066792E+02  0.41967066792E+02  0.00000000000E+00 0. -1.
         -1   -1    0    0    0  501 -0.00000000000E+00 -0.00000000000E+00 -0.63362964611E+03  0.63362964611E+03  0.00000000000E+00 0.  1.
         23    2    1    2    0    0 -0.24474886086E+02  0.52576359482E+02 -0.50957999245E+03  0.52072288727E+03  0.90095854533E+02 0.  0.
         24    2    1    2    0    0  0.46650308925E+02 -0.38404858582E+02 -0.78904775018E+02  0.12836572679E+03  0.81244149375E+02 0.  0.
        -13    1    4    4    0    0  0.14438161206E+02  0.14428435729E+02 -0.60435570468E+02  0.63789485296E+02  0.00000000000E+00 0.  1.
         14    1    4    4    0    0  0.32212147719E+02 -0.52833294311E+02 -0.18469204550E+02  0.64576241491E+02  0.00000000000E+00 0. -1.
        -11    1    3    3    0    0  0.14355037564E+02 -0.19660249800E+02 -0.92031424379E+02  0.95196510435E+02  0.00000000000E+00 0. -1.
         11    1    3    3    0    0 -0.38829923650E+02  0.72236609282E+02 -0.41754856807E+03  0.42552637684E+03  0.00000000000E+00 0.  1.
         -2    1    1    2    0  502 -0.22175422838E+02 -0.14171500900E+02 -0.31778118510E+01  0.26508098838E+02  0.00000000000E+00 0.  1.
<scales pt_clust_5="13000.00000" pt_clust_6="13000.00000" pt_clust_7="13000.00000" pt_clust_8="13000.00000" pt_clust_9="26.31693"></scales>
<clustering>
<clus scale="   26.317">  1  9  2 -1</clus>
<clus scale="   81.244">  5  6 -1 -1</clus>
<clus scale="   90.096">  7  8 -1 -1</clus>
<clus scale="   99.564">  1  5  2 -1</clus>
<clus scale="   26.317">  1  5  2 -1</clus>
</clustering>
</event>
<event>
 9    2  0.3764910E-005  0.9210136E+02  0.7546771E-02  0.1310018E+00
         21   -1    0    0  501  502  0.00000000000E+00  0.00000000000E+00  0.92852721657E+02  0.92852721657E+02  0.00000000000E+00 0.  1.
          4   -1    0    0  502    0 -0.00000000000E+00 -0.00000000000E+00 -0.33094189769E+03  0.33094189769E+03  0.00000000000E+00 0. -1.
         24    2    1    2    0    0 -0.15018012463E+02  0.55529504489E+01 -0.26440331752E+03  0.27437709316E+03  0.71535298822E+02 0.  0.
         23    2    1    2    0    0  0.39767297671E+02 -0.20501910171E+02  0.49504561719E+02  0.11235279759E+03  0.90391831554E+02 0.  0.
        -13    1    3    3    0    0  0.10764159195E+02  0.29959432035E+02 -0.71970941774E+02  0.78697211837E+02  0.00000000000E+00 0.  1.
         14    1    3    3    0    0 -0.25782171658E+02 -0.24406481586E+02 -0.19243237575E+03  0.19567988132E+03  0.00000000000E+00 0. -1.
        -11    1    4    4    0    0 -0.85822879005E+01 -0.37644968244E+02 -0.32766455670E+01  0.38749654268E+02  0.00000000000E+00 0. -1.
         11    1    4    4    0    0  0.48349585571E+02  0.17143058073E+02  0.52781207286E+02  0.73603143326E+02  0.00000000000E+00 0.  1.
          3    1    1    2  501    0 -0.24749285208E+02  0.14948959722E+02 -0.23190420227E+02  0.37064728589E+02  0.00000000000E+00 0. -1.
<scales pt_clust_5="13000.00000" pt_clust_6="13000.00000" pt_clust_7="13000.00000" pt_clust_8="13000.00000" pt_clust_9="28.91365"></scales>
<clustering>
<clus scale="   28.914">  1  9  2 -1</clus>
<clus scale="   71.535">  5  6 -1 -1</clus>
<clus scale="   73.684">  2  5  1 -1</clus>
<clus scale="   90.392">  7  8 -1 -1</clus>
<clus scale="   28.914">  1  5  2 -1</clus>
</clustering>
</event>
<event>
 9    2  0.3764910E-005  0.8702828E+02  0.7546771E-02  0.1314471E+00
         21   -1    0    0  501  502  0.00000000000E+00  0.00000000000E+00  0.46170089442E+03  0.46170089442E+03  0.00000000000E+00 0. -1.
          2   -1    0    0  502    0 -0.00000000000E+00 -0.00000000000E+00 -0.59084474086E+02  0.59084474086E+02  0.00000000000E+00 0. -1.
         24    2    1    2    0    0 -0.93097277439E+01 -0.10067548024E+01  0.23869690276E+02  0.83699877317E+02  0.79675735096E+02 0.  0.
         23    2    1    2    0    0 -0.46376431445E+02  0.79127503641E+01  0.63628291810E+02  0.11701007629E+03  0.86194045168E+02 0.  0.
        -13    1    3    3    0    0  0.31271989162E+02 -0.13080764197E+02  0.23697776550E+02  0.41359742643E+02  0.00000000000E+00 0.  1.
         14    1    3    3    0    0 -0.40581716906E+02  0.12074009395E+02  0.17191372660E+00  0.42340134674E+02  0.00000000000E+00 0. -1.
        -11    1    4    4    0    0  0.13674731508E+02  0.30982019781E+02  0.21572340294E+02  0.40152829256E+02  0.00000000000E+00 0.  1.
         11    1    4    4    0    0 -0.60051162953E+02 -0.23069269417E+02  0.42055951516E+02  0.76857247032E+02  0.00000000000E+00 0. -1.
          1    1    1    2  501    0  0.55686159189E+02 -0.69059955617E+01  0.31511843825E+03  0.32007541490E+03  0.00000000000E+00 0. -1.
<scales pt_clust_5="13000.00000" pt_clust_6="13000.00000" pt_clust_7="13000.00000" pt_clust_8="13000.00000" pt_clust_9="56.11275"></scales>
<clustering>
<clus scale="   56.113">  1  9  2 -1</clus>
<clus scale="   79.676">  5  6 -1 -1</clus>
<clus scale="   80.577">  2  5  1 -1</clus>
<clus scale="   86.194">  7  8 -1 -1</clus>
<clus scale="   56.113">  1  5  2 -1</clus>
</clustering>
</event>
<event>
 9    2  0.3764910E-005  0.1859896E+03  0.7546771E-02  0.1163174E+00
          2   -1    0    0  502    0 -0.00000000000E+00  0.00000000000E+00  0.25398308783E+03  0.25398308783E+03  0.00000000000E+00 0. -1.
         21   -1    0    0  501  502  0.00000000000E+00 -0.00000000000E+00 -0.25636068277E+03  0.25636068277E+03  0.00000000000E+00 0.  1.
         23    2    1    2    0    0  0.54650082815E+02  0.15785194500E+03  0.16179401054E+03  0.24973621475E+03  0.91032999614E+02 0.  0.
         24    2    1    2    0    0 -0.37408783782E+02 -0.13536733863E+03 -0.16597825785E+03  0.23221593897E+03  0.81558118920E+02 0.  0.
        -11    1    4    4    0    0 -0.25219167246E+02 -0.12610723044E+03 -0.95738668107E+02  0.16032757884E+03  0.00000000000E+00 0.  1.
         12    1    4    4    0    0 -0.12189616536E+02 -0.92601081890E+01 -0.70239589746E+02  0.71888360133E+02  0.00000000000E+00 0. -1.
        -13    1    3    3    0    0 -0.10770199455E+02  0.93575635166E+02  0.10842324949E+03  0.14362450251E+03  0.00000000000E+00 0.  1.
         13    1    3    3    0    0  0.65420282270E+02  0.64276309834E+02  0.53370761052E+02  0.10611171223E+03  0.00000000000E+00 0. -1.
          1    1    1    2  501    0 -0.17241299033E+02 -0.22484606371E+02  0.18066523701E+01  0.28391616876E+02  0.00000000000E+00 0. -1.
<scales pt_clust_5="13000.00000" pt_clust_6="13000.00000" pt_clust_7="13000.00000" pt_clust_8="13000.00000" pt_clust_9="28.33409"></scales>
<clustering>
<clus scale="   28.334">  2  9  1 -1</clus>
<clus scale="   81.558">  5  6 -1 -1</clus>
<clus scale="   91.033">  7  8 -1 -1</clus>
<clus scale="  181.540">  2  5  1 -1</clus>
<clus scale="   28.334">  2  5  1 -1</clus>
</clustering>
</event>
<event>
 9    2  0.3764910E-005  0.9851255E+02  0.7546771E-02  0.1291805E+00
         -1   -1    0    0    0  501 -0.00000000000E+00  0.00000000000E+00  0.48352813774E+03  0.48352813774E+03  0.00000000000E+00 0.  1.
         21   -1    0    0  501  502  0.00000000000E+00 -0.00000000000E+00 -0.32624213076E+02  0.32624213076E+02  0.00000000000E+00 0. -1.
         23    2    1    2    0    0  0.34342666336E+02  0.17514863133E+02  0.32822705113E+03  0.34327130748E+03  0.92822434188E+02 0.  0.
         24    2    1    2    0    0 -0.28247386880E+02  0.18702723047E+02  0.92757896819E+02  0.12551004854E+03  0.77466367839E+02 0.  0.
        -11    1    4    4    0    0 -0.24219602296E+02 -0.97756354646E+01  0.93153364717E+02  0.96745550504E+02  0.00000000000E+00 0.  1.
         12    1    4    4    0    0 -0.40277845839E+01  0.28478358511E+02 -0.39546789828E+00  0.28764498032E+02  0.00000000000E+00 0. -1.
        -13    1    3    3    0    0 -0.64779857360E+01 -0.33335924759E+02  0.14033777868E+03  0.14438815846E+03  0.00000000000E+00 0. -1.
         13    1    3    3    0    0  0.40820652072E+02  0.50850787893E+02  0.18788927245E+03  0.19888314902E+03  0.00000000000E+00 0.  1.
         -2    1    1    2    0  502 -0.60952794561E+01 -0.36217586180E+02  0.29918976724E+02  0.47370994802E+02  0.00000000000E+00 0.  1.
<scales pt_clust_5="13000.00000" pt_clust_6="13000.00000" pt_clust_7="13000.00000" pt_clust_8="13000.00000" pt_clust_9="36.72691"></scales>
<clustering>
<clus scale="   36.727">  2  9  1 -1</clus>
<clus scale="   77.466">  5  6 -1 -1</clus>
<clus scale="   84.201">  2  5  1 -1</clus>
<clus scale="   92.822">  7  8 -1 -1</clus>
<clus scale="   36.727">  2  5  1 -1</clus>
</clustering>
</event>
<event>
 9    2  0.3764910E-005  0.1026136E+03  0.7546771E-02  0.1281444E+00
          2   -1    0    0  502    0 -0.00000000000E+00  0.00000000000E+00  0.38206751258E+03  0.38206751258E+03  0.00000000000E+00 0. -1.
         21   -1    0    0  501  502  0.00000000000E+00 -0.00000000000E+00 -0.38123769959E+02  0.38123769959E+02  0.00000000000E+00 0.  1.
         24    2    1    2    0    0  0.31118271011E+02  0.11152054402E+02  0.19508383331E+03  0.21362750504E+03  0.80537530266E+02 0.  0.
         23    2    1    2    0    0 -0.61531077758E+02 -0.10879665751E+02  0.11611428598E+03  0.16187273973E+03  0.93892575865E+02 0.  0.
        -13    1    3    3    0    0  0.52434571989E+02 -0.10121572636E+02  0.93524329337E+02  0.10769693937E+03  0.00000000000E+00 0.  1.
         14    1    3    3    0    0 -0.21316300978E+02  0.21273627037E+02  0.10155950397E+03  0.10593056567E+03  0.00000000000E+00 0. -1.
        -13    1    4    4    0    0 -0.19794051267E+02 -0.48552164481E+02  0.34493015651E+02  0.62760539115E+02  0.00000000000E+00 0.  1.
         13    1    4    4    0    0 -0.41737026491E+02  0.37672498729E+02  0.81621270330E+02  0.99112200617E+02  0.00000000000E+00 0. -1.
          1    1    1    2  501    0  0.30412806747E+02 -0.27238865047E+00  0.32745623333E+02  0.44691037773E+02  0.00000000000E+00 0. -1.
<scales pt_clust_5="13000.00000" pt_clust_6="13000.00000" pt_clust_7="13000.00000" pt_clust_8="13000.00000" pt_clust_9="30.41403"></scales>
<clustering>
<clus scale="   30.414">  2  9  1 -1</clus>
<clus scale="   80.538">  5  6 -1 -1</clus>
<clus scale="   90.554">  1  5  2 -1</clus>
<clus scale="   93.893">  7  8 -1 -1</clus>
<clus scale="   30.414">  2  5  1 -1</clus>
</clustering>
</event>
<event>
 9    2  0.3764910E-005  0.1358093E+03  0.7546771E-02  0.1232780E+00
         -1   -1    0    0    0  501 -0.00000000000E+00  0.00000000000E+00  0.33271061298E+03  0.33271061298E+03  0.00000000000E+00 0.  1.
         21   -1    0    0  501  502  0.00000000000E+00 -0.00000000000E+00 -0.10234633957E+03  0.10234633957E+03  0.00000000000E+00 0. -1.
         24    2    1    2    0    0  0.32816687518E+02 -0.55210575151E+02  0.10167757915E+02  0.10265767242E+03  0.79435960475E+02 0.  0.
         23    2    1    2    0    0  0.76647755533E+02  0.21018551415E+02  0.16555787683E+03  0.20536802566E+03  0.91923650126E+02 0.  0.
        -13    1    3    3    0    0 -0.21324865423E+02 -0.28460910021E+02  0.21005357790E+02  0.41303732766E+02  0.00000000000E+00 0.  1.
         14    1    3    3    0    0  0.54141552941E+02 -0.26749665130E+02 -0.10837599874E+02  0.61353939650E+02  0.00000000000E+00 0. -1.
        -11    1    4    4    0    0  0.94747407406E+02  0.31707555184E+02  0.12860397298E+03  0.16285399022E+03  0.00000000000E+00 0. -1.
         11    1    4    4    0    0 -0.18099651873E+02 -0.10689003769E+02  0.36953903850E+02  0.42514035438E+02  0.00000000000E+00 0.  1.
         -2    1    1    2    0  502 -0.10946444305E+03  0.34192023736E+02  0.54638638667E+02  0.12703125448E+03  0.00000000000E+00 0.  1.
<scales pt_clust_5="13000.00000" pt_clust_6="13000.00000" pt_clust_7="13000.00000" pt_clust_8="13000.00000" pt_clust_9="99.97107"></scales>
<clustering>
<clus scale="   79.436">  5  6 -1 -1</clus>
<clus scale="   91.924">  7  8 -1 -1</clus>
<clus scale="  102.153">  1  5  2 -1</clus>
<clus scale="   99.971">  2  9  1 -1</clus>
<clus scale="   99.971">  2  5  1 -1</clus>
</clustering>
</event>
<event>
 9    2  0.3764910E-005  0.3044950E+03  0.7546771E-02  0.1083015E+00
         21   -1    0    0  501  502  0.00000000000E+00  0.00000000000E+00  0.32357755017E+02  0.32357755017E+02  0.00000000000E+00 0. -1.
          2   -1    0    0  502    0 -0.00000000000E+00 -0.00000000000E+00 -0.22708287528E+04  0.22708287528E+04  0.00000000000E+00 0. -1.
         24    2    1    2    0    0  0.58693302192E+02 -0.16204758462E+03 -0.51076773784E+03  0.54486178722E+03  0.79286579887E+02 0.  0.
         23    2    1    2    0    0  0.27616335969E+02 -0.41452521670E+02 -0.49606603326E+03  0.50700865139E+03  0.92169895657E+02 0.  0.
        -11    1    3    3    0    0  0.20620860247E+02  0.18967939712E+01 -0.42761988710E+02  0.47512160371E+02  0.00000000000E+00 0.  1.
         12    1    3    3    0    0  0.38072441945E+02 -0.16394437859E+03 -0.46800574912E+03  0.49734962684E+03  0.00000000000E+00 0. -1.
        -11    1    4    4    0    0  0.42276033287E+02 -0.64152627479E+02 -0.33549913797E+03  0.34418380872E+03  0.00000000000E+00 0. -1.
         11    1    4    4    0    0 -0.14659697318E+02  0.22700105810E+02 -0.16056689529E+03  0.16282484268E+03  0.00000000000E+00 0.  1.
          1    1    1    2  501    0 -0.86309638161E+02  0.20350010629E+03 -0.12316372266E+04  0.12513160692E+04  0.00000000000E+00 0. -1.
<scales pt_clust_5="13000.00000" pt_clust_6="13000.00000" pt_clust_7="13000.00000" pt_clust_8="13000.00000" pt_clust_9="221.04682"></scales>
<clustering>
<clus scale="   79.287">  5  6 -1 -1</clus>
<clus scale="   92.170">  7  8 -1 -1</clus>
<clus scale="  100.020">  5  7 -1 -1</clus>
<clus scale="  221.047">  1  9  2 -1</clus>
<clus scale="  221.047">  1  5  2 -1</clus>
</clustering>
</event>
<event>
 9    2  0.3764910E-005  0.1201123E+03  0.7546771E-02  0.1247112E+00
          2   -1    0    0  502    0 -0.00000000000E+00  0.00000000000E+00  0.46615510194E+03  0.46615510194E+03  0.00000000000E+00 0. -1.
         21   -1    0    0  501  502  0.00000000000E+00 -0.00000000000E+00 -0.13090656537E+03  0.13090656537E+03  0.00000000000E+00 0. -1.
         24    2    1    2    0    0 -0.35640648028E+02 -0.71623305563E+02  0.41087681487E+03  0.42604463616E+03  0.79335498464E+02 0.  0.
         23    2    1    2    0    0  0.17819990350E+02  0.46485578363E+02 -0.19178564439E+02  0.10670489106E+03  0.92410255873E+02 0.  0.
        -11    1    3    3    0    0 -0.25993071235E+02  0.10816185323E+02  0.76378634462E+02  0.81402244560E+02  0.00000000000E+00 0.  1.
         12    1    3    3    0    0 -0.96475767931E+01 -0.82439490886E+02  0.33449818041E+03  0.34464239160E+03  0.00000000000E+00 0. -1.
        -11    1    4    4    0    0  0.48772080904E+02  0.43504913001E+02 -0.32363186779E+02  0.72929892290E+02  0.00000000000E+00 0.  1.
         11    1    4    4    0    0 -0.30952090554E+02  0.29806653619E+01  0.13184622340E+02  0.33774998770E+02  0.00000000000E+00 0. -1.
          1    1    1    2  501    0  0.17820657678E+02  0.25137727200E+02 -0.56449713852E+02  0.64312140090E+02  0.00000000000E+00 0. -1.
<scales pt_clust_5="13000.00000" pt_clust_6="13000.00000" pt_clust_7="13000.00000" pt_clust_8="13000.00000" pt_clust_9="30.81365"></scales>
<clustering>
<clus scale="   30.814">  2  9  1 -1</clus>
<clus scale="   79.335">  5  6 -1 -1</clus>
<clus scale="   92.410">  7  8 -1 -1</clus>
<clus scale="  110.370">  1  5  2 -1</clus>
<clus scale="   30.814">  2  5  1 -1</clus>
</clustering>
</event>
<event>
 9    2  0.3764910E-005  0.1206555E+03  0.7546771E-02  0.1257703E+00
         21   -1    0    0  501  502  0.00000000000E+00  0.00000000000E+00  0.20680471294E+03  0.20680471294E+03  0.00000000000E+00 0. -1.
         -1   -1    0    0    0  501 -0.00000000000E+00 -0.00000000000E+00 -0.10473506021E+03  0.10473506021E+03  0.00000000000E+00 0.  1.
         24    2    1    2    0    0  0.15986799176E+02  0.12451869038E+02  0.29984931525E+02  0.87853714774E+02  0.80053433971E+02 0.  0.
         23    2    1    2    0    0 -0.74014797045E+02  0.28776254191E+02  0.57639925772E+02  0.15105232794E+03  0.11483980907E+03 0.  0.
        -13    1    3    3    0    0 -0.81031930383E+01  0.19694933911E+02 -0.21679898473E+02  0.30390297086E+02  0.00000000000E+00 0.  1.
         14    1    3    3    0    0  0.24089992215E+02 -0.72430648733E+01  0.51664829998E+02  0.57463417688E+02  0.00000000000E+00 0. -1.
        -13    1    4    4    0    0 -0.84105446807E+02 -0.22097908889E+02  0.28221734862E+02  0.91424887632E+02  0.00000000000E+00 0. -1.
         13    1    4    4    0    0  0.10090649762E+02  0.50874163081E+02  0.29418190909E+02  0.59627440312E+02  0.00000000000E+00 0.  1.
         -2    1    1    2    0  502  0.58027997869E+02 -0.41228123229E+02  0.14444795423E+02  0.72633730432E+02  0.00000000000E+00 0.  1.
<scales pt_clust_5="13000.00000" pt_clust_6="13000.00000" pt_clust_7="13000.00000" pt_clust_8="13000.00000" pt_clust_9="71.18295"></scales>
<clustering>
<clus scale="   71.183">  1  9  2 -1</clus>
<clus scale="   80.053">  5  6 -1 -1</clus>
<clus scale="   88.194">  2  5  1 -1</clus>
<clus scale="  114.840">  7  8 -1 -1</clus>
<clus scale="   71.183">  1  5  2 -1</clus>
</clustering>
</event>
<event>
 9    2  0.3764910E-005  0.9650784E+02  0.7546771E-02  0.1293706E+00
          2   -1    0    0  502    0 -0.00000000000E+00  0.00000000000E+00  0.43322619987E+03  0.43322619987E+03  0.00000000000E+00 0. -1.
         21   -1    0    0  501  502  0.00000000000E+00 -0.00000000000E+00 -0.16491978130E+03  0.16491978130E+03  0.00000000000E+00 0.  1.
         23    2    1    2    0    0 -0.32393233137E+02 -0.25285117593E+00  0.40017020762E+03  0.41164710615E+03  0.90927220585E+02 0.  0.
         24    2    1    2    0    0  0.30690481508E+02  0.26547678116E+02 -0.55237377226E+02  0.10546848395E+03  0.80160765935E+02 0.  0.
        -13    1    4    4    0    0  0.38063519343E+02  0.36710803867E+02 -0.68937942284E+02  0.86884719668E+02  0.00000000000E+00 0.  1.
         14    1    4    4    0    0 -0.73730378354E+01 -0.10163125751E+02  0.13700565058E+02  0.18583764282E+02  0.00000000000E+00 0. -1.
        -13    1    3    3    0    0  0.20230919142E+02 -0.20904172238E+02  0.58523828735E+02  0.65355283154E+02  0.00000000000E+00 0.  1.
         13    1    3    3    0    0 -0.52624152279E+02  0.20651321062E+02  0.34164637889E+03  0.34629182300E+03  0.00000000000E+00 0. -1.
          1    1    1    2  501    0  0.17027516291E+01 -0.26294826940E+02 -0.76626411832E+02  0.81030391072E+02  0.00000000000E+00 0. -1.
<scales pt_clust_5="13000.00000" pt_clust_6="13000.00000" pt_clust_7="13000.00000" pt_clust_8="13000.00000" pt_clust_9="26.34990"></scales>
<clustering>
<clus scale="   26.350">  2  9  1 -1</clus>
<clus scale="   80.161">  5  6 -1 -1</clus>
<clus scale="   86.439">  2  5  1 -1</clus>
<clus scale="   90.927">  7  8 -1 -1</clus>
<clus scale="   26.350">  2  5  1 -1</clus>
</clustering>
</event>
<event>
 9    2  0.3764910E-005  0.1020323E+03  0.7546771E-02  0.1284179E+00
         -1   -1    0    0    0  501 -0.00000000000E+00  0.00000000000E+00  0.60955501149E+03  0.60955501149E+03  0.00000000000E+00 0.  1.
         21   -1    0    0  501  502  0.00000000000E+00 -0.00000000000E+00 -0.37183176398E+02  0.37183176398E+02  0.00000000000E+00 0.  1.
         23    2    1    2    0    0 -0.61984921405E+02  0.10247830464E+01  0.31532342844E+03  0.33419225240E+03  0.91719225781E+02 0.  0.
         24    2    1    2    0    0  0.17858583462E+02  0.43415517715E+02  0.22577071577E+03  0.24254330712E+03  0.75173157085E+02 0.  0.
        -13    1    4    4    0    0 -0.99338281163E+01  0.56877608763E+02  0.14862367163E+03  0.15944509741E+03  0.00000000000E+00 0.  1.
         14    1    4    4    0    0  0.27792411578E+02 -0.13462091049E+02  0.77147044140E+02  0.83098209706E+02  0.00000000000E+00 0. -1.
        -11    1    3    3    0    0  0.12133417763E+02  0.26726087101E+02  0.55488105800E+02  0.62772871877E+02  0.00000000000E+00 0. -1.
         11    1    3    3    0    0 -0.74118339168E+02 -0.25701304055E+02  0.25983532264E+03  0.27141938052E+03  0.00000000000E+00 0.  1.
         -2    1    1    2    0  502  0.44126337943E+02 -0.44440300761E+02  0.31277690879E+02  0.70002628370E+02  0.00000000000E+00 0.  1.
<scales pt_clust_5="13000.00000" pt_clust_6="13000.00000" pt_clust_7="13000.00000" pt_clust_8="13000.00000" pt_clust_9="62.62646"></scales>
<clustering>
<clus scale="   62.626">  2  9  1 -1</clus>
<clus scale="   75.173">  5  6 -1 -1</clus>
<clus scale="   87.460">  2  5  1 -1</clus>
<clus scale="   91.719">  7  8 -1 -1</clus>
<clus scale="   62.626">  2  5  1 -1</clus>
</clustering>
</event>
<event>
 9    2  0.3764910E-005  0.1297024E+03  0.7546771E-02  0.1229598E+00
         21   -1    0    0  501  502  0.00000000000E+00  0.00000000000E+00  0.22748139858E+03  0.22748139858E+03  0.00000000000E+00 0. -1.
          2   -1    0    0  502    0 -0.00000000000E+00 -0.00000000000E+00 -0.32653653412E+03  0.32653653412E+03  0.00000000000E+00 0. -1.
         23    2    1    2    0    0  0.72750326881E+02 -0.54344250998E+02 -0.23964251753E+03  0.27096780508E+03  0.88029015131E+02 0.  0.
         24    2    1    2    0    0 -0.78983783552E+02  0.87943227034E+02  0.53395402772E+01  0.14355200626E+03  0.81278647655E+02 0.  0.
        -11    1    4    4    0    0 -0.61709658028E+02  0.58458032826E+02  0.40815948885E+02  0.94294035756E+02  0.00000000000E+00 0.  1.
         12    1    4    4    0    0 -0.17274125524E+02  0.29485194209E+02 -0.35476408608E+02  0.49257970501E+02  0.00000000000E+00 0. -1.
        -13    1    3    3    0    0  0.15969752987E+02  0.24150191975E+02 -0.67278354823E+02  0.73243715161E+02  0.00000000000E+00 0.  1.
         13    1    3    3    0    0  0.56780573894E+02 -0.78494442973E+02 -0.17236416271E+03  0.19772408992E+03  0.00000000000E+00 0. -1.
          1    1    1    2  501    0  0.62334566709E+01 -0.33598976037E+02  0.13524784172E+03  0.13949812136E+03  0.00000000000E+00 0. -1.
<scales pt_clust_5="13000.00000" pt_clust_6="13000.00000" pt_clust_7="13000.00000" pt_clust_8="13000.00000" pt_clust_9="34.17232"></scales>
<clustering>
<clus scale="   34.172">  1  9  2 -1</clus>
<clus scale="   81.279">  5  6 -1 -1</clus>
<clus scale="   88.029">  7  8 -1 -1</clus>
<clus scale="  125.219">  1  5  2 -1</clus>
<clus scale="   34.172">  1  5  2 -1</clus>
</clustering>
</event>
<event>
 9    2  0.3764910E-005  0.1066539E+03  0.7546771E-02  0.1272316E+00
         21   -1    0    0  501  502  0.00000000000E+00  0.00000000000E+00  0.78624276754E+02  0.78624276754E+02  0.00000000000E+00 0.  1.
          2   -1    0    0  502    0 -0.00000000000E+00 -0.00000000000E+00 -0.32343585421E+03  0.32343585421E+03  0.00000000000E+00 0. -1.
         23    2    1    2    0    0  0.22974409604E+02 -0.55514200914E+02 -0.26520169405E+03  0.28663868365E+03  0.90665023234E+02 0.  0.
         24    2    1    2    0    0 -0.78736998141E+01  0.39371223816E+02  0.36766346609E+01  0.87709218533E+02  0.77892881317E+02 0.  0.
        -13    1    4    4    0    0  0.46749636040E+01  0.54055249280E+02  0.24302558009E+02  0.59451152934E+02  0.00000000000E+00 0.  1.
         14    1    4    4    0    0 -0.12548663418E+02 -0.14684025464E+02 -0.20625923348E+02  0.28258065599E+02  0.00000000000E+00 0. -1.
        -11    1    3    3    0    0  0.83658313502E+01 -0.79273978493E+02 -0.17675995886E+03  0.19390315587E+03  0.00000000000E+00 0.  1.
         11    1    3    3    0    0  0.14608578254E+02  0.23759777579E+02 -0.88441735184E+02  0.92735527775E+02  0.00000000000E+00 0. -1.
          1    1    1    2  501    0 -0.15100709790E+02  0.16142977098E+02  0.16713481932E+02  0.27712228782E+02  0.00000000000E+00 0. -1.
<scales pt_clust_5="13000.00000" pt_clust_6="13000.00000" pt_clust_7="13000.00000" pt_clust_8="13000.00000" pt_clust_9="22.10491"></scales>
<clustering>
<clus scale="   22.105">  1  9  2 -1</clus>
<clus scale="   77.893">  5  6 -1 -1</clus>
<clus scale="   90.665">  7  8 -1 -1</clus>
<clus scale="   96.032">  1  5  2 -1</clus>
<clus scale="   22.105">  1  5  2 -1</clus>
</clustering>
</event>
<event>
 9    2  0.3764910E-005  0.2048004E+03  0.7546771E-02  0.1146887E+00
          2   -1    0    0  502    0 -0.00000000000E+00  0.00000000000E+00  0.55989873130E+03  0.55989873130E+03  0.00000000000E+00 0. -1.
         21   -1    0    0  501  502  0.00000000000E+00 -0.00000000000E+00 -0.11823700772E+03  0.11823700772E+03  0.00000000000E+00 0. -1.
         23    2    1    2    0    0  0.10077466832E+03 -0.15945319768E+03  0.36648635201E+03  0.42264263535E+03  0.93454240061E+02 0.  0.
         24    2    1    2    0    0 -0.12485754666E+03  0.11807882114E+03  0.82564800054E+02  0.20705316441E+03  0.80759220660E+02 0.  0.
        -13    1    4    4    0    0 -0.70955002425E+02  0.89822637177E+02  0.90174724077E+02  0.14571959162E+03  0.00000000000E+00 0.  1.
         14    1    4    4    0    0 -0.53902544236E+02  0.28256183966E+02 -0.76099240227E+01  0.61333572789E+02  0.00000000000E+00 0. -1.
        -11    1    3    3    0    0  0.59839432751E+02 -0.22783589411E+02  0.15316420373E+03  0.16600940625E+03  0.00000000000E+00 0.  1.
         11    1    3    3    0    0  0.40935235574E+02 -0.13666960827E+03  0.21332214827E+03  0.25663322911E+03  0.00000000000E+00 0. -1.
          1    1    1    2  501    0  0.24082878335E+02  0.41374376539E+02 -0.73894284788E+01  0.48439939266E+02  0.00000000000E+00 0. -1.
<scales pt_clust_5="13000.00000" pt_clust_6="13000.00000" pt_clust_7="13000.00000" pt_clust_8="13000.00000" pt_clust_9="47.87300"></scales>
<clustering>
<clus scale="   47.873">  2  9  1 -1</clus>
<clus scale="   80.759">  5  6 -1 -1</clus>
<clus scale="   93.454">  7  8 -1 -1</clus>
<clus scale="  199.328">  2  5  1 -1</clus>
<clus scale="   47.873">  2  5  1 -1</clus>
</clustering>
</event>
<event>
 9    2  0.3764910E-005  0.9915185E+02  0.7546771E-02  0.1287803E+00
         21   -1    0    0  501  502  0.00000000000E+00  0.00000000000E+00  0.60240284523E+02  0.60240284523E+02  0.00000000000E+00 0. -1.
          2   -1    0    0  502    0 -0.00000000000E+00 -0.00000000000E+00 -0.20871822642E+03  0.20871822642E+03  0.00000000000E+00 0. -1.
         23    2    1    2    0    0 -0.34266624382E+02  0.25380188300E+02 -0.10858210184E+03  0.14786833404E+03  0.90865922482E+02 0.  0.
         24    2    1    2    0    0  0.12263164181E+02 -0.37618064212E+02 -0.28168869936E+02  0.93315373646E+02  0.79679167756E+02 0.  0.
        -13    1    4    4    0    0  0.45406295159E+02 -0.14558376352E+02 -0.21838686872E+02  0.52446222041E+02  0.00000000000E+00 0.  1.
         14    1    4    4    0    0 -0.33143130978E+02 -0.23059687860E+02 -0.63301830636E+01  0.40869151605E+02  0.00000000000E+00 0. -1.
        -11    1    3    3    0    0 -0.13311113181E+02  0.30207396249E+02 -0.11934137460E+03  0.12382259977E+03  0.00000000000E+00 0. -1.
         11    1    3    3    0    0 -0.20955511201E+02 -0.48272079487E+01  0.10759272764E+02  0.24045734272E+02  0.00000000000E+00 0.  1.
          1    1    1    2  501    0  0.22003460201E+02  0.12237875912E+02 -0.11726970125E+02  0.27774803257E+02  0.00000000000E+00 0. -1.
<scales pt_clust_5="13000.00000" pt_clust_6="13000.00000" pt_clust_7="13000.00000" pt_clust_8="13000.00000" pt_clust_9="25.17773"></scales>
<clustering>
<clus scale="   25.178">  1  9  2 -1</clus>
<clus scale="   79.679">  5  6 -1 -1</clus>
<clus scale="   89.013">  1  5  2 -1</clus>
<clus scale="   90.866">  7  8 -1 -1</clus>
<clus scale="   25.178">  1  5  2 -1</clus>
</clustering>
</event>
<event>
 9    2  0.3764910E-005  0.1412268E+03  0.7546771E-02  0.1214348E+00
          2   -1    0    0  502    0 -0.00000000000E+00  0.00000000000E+00  0.49998384584E+03  0.49998384584E+03  0.00000000000E+00 0. -1.
         21   -1    0    0  501  502  0.00000000000E+00 -0.00000000000E+00 -0.11204180804E+03  0.11204180804E+03  0.00000000000E+00 0. -1.
         23    2    1    2    0    0  0.10515734213E+03 -0.21409510373E+02  0.42340639060E+03  0.44638885672E+03  0.92052192077E+02 0.  0.
         24    2    1    2    0    0 -0.10838107761E+03 -0.53307467315E+01 -0.33038320033E+02  0.13859387839E+03  0.79635781482E+02 0.  0.
        -11    1    4    4    0    0 -0.13849936157E+02  0.30464504004E+02 -0.65574046056E+01  0.34101411861E+02  0.00000000000E+00 0.  1.
         12    1    4    4    0    0 -0.94531141457E+02 -0.35795250735E+02 -0.26480915428E+02  0.10449246653E+03  0.00000000000E+00 0. -1.
        -11    1    3    3    0    0  0.64333734292E+02 -0.46184500611E+02  0.15817693061E+03  0.17689482423E+03  0.00000000000E+00 0.  1.
         11    1    3    3    0    0  0.40823607838E+02  0.24774990238E+02  0.26522945999E+03  0.26949403249E+03  0.00000000000E+00 0. -1.
          1    1    1    2  501    0  0.32237354841E+01  0.26740257105E+02 -0.24260327649E+01  0.27042918767E+02  0.00000000000E+00 0. -1.
<scales pt_clust_5="13000.00000" pt_clust_6="13000.00000" pt_clust_7="13000.00000" pt_clust_8="13000.00000" pt_clust_9="26.93388"></scales>
<clustering>
<clus scale="   26.934">  2  9  1 -1</clus>
<clus scale="   79.636">  5  6 -1 -1</clus>
<clus scale="   92.052">  7  8 -1 -1</clus>
<clus scale="  133.466">  2  5  1 -1</clus>
<clus scale="   26.934">  2  5  1 -1</clus>
</clustering>
</event>
<event>
 9    2  0.3764910E-005  0.1231923E+03  0.7546771E-02  0.1242357E+00
         21   -1    0    0  501  502  0.00000000000E+00  0.00000000000E+00  0.10184925514E+03  0.10184925514E+03  0.00000000000E+00 0. -1.
          2   -1    0    0  502    0 -0.00000000000E+00 -0.00000000000E+00 -0.27752266761E+03  0.27752266761E+03  0.00000000000E+00 0. -1.
         24    2    1    2    0    0  0.76790522839E+02  0.42765844091E+02 -0.42476390379E+02  0.12732934371E+03  0.81748493641E+02 0.  0.
         23    2    1    2    0    0 -0.71659944035E+02  0.72383034650E+01 -0.11572822439E+02  0.12044020993E+03  0.95835136212E+02 0.  0.
        -13    1    3    3    0    0  0.48393314763E+02  0.66628662400E+02 -0.35067915433E+02  0.89504470613E+02  0.00000000000E+00 0.  1.
         14    1    3    3    0    0  0.28397208076E+02 -0.23862818309E+02 -0.74084749462E+01  0.37824873102E+02  0.00000000000E+00 0. -1.
        -11    1    4    4    0    0 -0.31433297511E+02  0.43223696080E+02  0.20974055223E+02  0.57412987100E+02  0.00000000000E+00 0. -1.
         11    1    4    4    0    0 -0.40226646524E+02 -0.35985392615E+02 -0.32546877662E+02  0.63027222831E+02  0.00000000000E+00 0.  1.
          1    1    1    2  501    0 -0.51305788041E+01 -0.50004147556E+02 -0.12162419966E+03  0.13160236911E+03  0.00000000000E+00 0. -1.
<scales pt_clust_5="13000.00000" pt_clust_6="13000.00000" pt_clust_7="13000.00000" pt_clust_8="13000.00000" pt_clust_9="50.26669"></scales>
<clustering>
<clus scale="   50.267">  1  9  2 -1</clus>
<clus scale="   81.748">  5  6 -1 -1</clus>
<clus scale="   95.835">  7  8 -1 -1</clus>
<clus scale="  112.582">  2  5  1 -1</clus>
<clus scale="   50.267">  1  5  2 -1</clus>
</clustering>
</event>
<event>
 9    2  0.3764910E-005  0.9837095E+02  0.7546771E-02  0.1288721E+00
         21   -1    0    0  501  502  0.00000000000E+00  0.00000000000E+00  0.32432563928E+03  0.32432563928E+03  0.00000000000E+00 0.  1.
          2   -1    0    0  502    0 -0.00000000000E+00 -0.00000000000E+00 -0.62272608255E+02  0.62272608255E+02  0.00000000000E+00 0. -1.
         23    2    1    2    0    0 -0.36747493433E+02  0.13418538139E+02 -0.19574917858E+01  0.99426777781E+02  0.91386087160E+02 0.  0.
         24    2    1    2    0    0  0.15125143039E+02 -0.26920585941E+02  0.20534019162E+03  0.22320242182E+03  0.81861095236E+02 0.  0.
        -11    1    4    4    0    0  0.12244925270E+02 -0.51529134066E+02  0.18053135756E+03  0.18814026926E+03  0.00000000000E+00 0.  1.
         12    1    4    4    0    0  0.28802177694E+01  0.24608548125E+02  0.24808834057E+02  0.35062152565E+02  0.00000000000E+00 0. -1.
        -11    1    3    3    0    0  0.19850147896E+02 -0.13680099835E+02 -0.22923342308E+02  0.33266396342E+02  0.00000000000E+00 0.  1.
         11    1    3    3    0    0 -0.56597641329E+02  0.27098637974E+02  0.20965850522E+02  0.66160381439E+02  0.00000000000E+00 0. -1.
          1    1    1    2  501    0  0.21622350393E+02  0.13502047802E+02  0.58670331187E+02  0.63969047929E+02  0.00000000000E+00 0. -1.
<scales pt_clust_5="13000.00000" pt_clust_6="13000.00000" pt_clust_7="13000.00000" pt_clust_8="13000.00000" pt_clust_9="25.49179"></scales>
<clustering>
<clus scale="   25.492">  1  9  2 -1</clus>
<clus scale="   81.861">  5  6 -1 -1</clus>
<clus scale="   89.592">  1  5  2 -1</clus>
<clus scale="   91.386">  7  8 -1 -1</clus>
<clus scale="   25.492">  1  5  2 -1</clus>
</clustering>
</event>
<event>
 9    2  0.3764910E-005  0.1005313E+03  0.7546771E-02  0.1285081E+00
         21   -1    0    0  501  502  0.00000000000E+00  0.00000000000E+00  0.31362026653E+03  0.31362026653E+03  0.00000000000E+00 0. -1.
         -3   -1    0    0    0  501 -0.00000000000E+00 -0.00000000000E+00 -0.40624859888E+02  0.40624859888E+02  0.00000000000E+00 0.  1.
         24    2    1    2    0    0  0.40286155642E+02  0.23746398763E+02  0.82451411808E+02  0.12435975605E+03  0.80499986489E+02 0.  0.
         23    2    1    2    0    0 -0.12423954789E+02 -0.33004413426E+02  0.13787687196E+03  0.16958745247E+03  0.92229204994E+02 0.  0.
        -13    1    3    3    0    0  0.21490505519E+02  0.41596342897E+02  0.10640387065E+02  0.48013700199E+02  0.00000000000E+00 0.  1.
         14    1    3    3    0    0  0.18795650123E+02 -0.17849944134E+02  0.71811024743E+02  0.76346055850E+02  0.00000000000E+00 0. -1.
        -13    1    4    4    0    0  0.21654049544E+02 -0.53737940848E+02  0.92744358940E+02  0.10935346480E+03  0.00000000000E+00 0. -1.
         13    1    4    4    0    0 -0.34078004333E+02  0.20733527422E+02  0.45132513025E+02  0.60233987670E+02  0.00000000000E+00 0.  1.
         -4    1    1    2    0  502 -0.27862200852E+02  0.92580146634E+01  0.52667122871E+02  0.60297917903E+02  0.00000000000E+00 0.  1.
<scales pt_clust_5="13000.00000" pt_clust_6="13000.00000" pt_clust_7="13000.00000" pt_clust_8="13000.00000" pt_clust_9="29.36006"></scales>
<clustering>
<clus scale="   29.360">  1  9  2 -1</clus>
<clus scale="   80.500">  5  6 -1 -1</clus>
<clus scale="   89.892">  2  5  1 -1</clus>
<clus scale="   92.229">  7  8 -1 -1</clus>
<clus scale="   29.360">  1  5  2 -1</clus>
</clustering>
</event>
<event>
 9    2  0.3764910E-005  0.9383968E+02  0.7546771E-02  0.1301948E+00
         -1   -1    0    0    0  501 -0.00000000000E+00  0.00000000000E+00  0.20673180159E+03  0.20673180159E+03  0.00000000000E+00 0.  1.
         21   -1    0    0  501  502  0.00000000000E+00 -0.00000000000E+00 -0.22899199541E+03  0.22899199541E+03  0.00000000000E+00 0.  1.
         23    2    1    2    0    0 -0.16609702208E+02 -0.35858711291E+02  0.14212523404E+03  0.17311858994E+03  0.90602067582E+02 0.  0.
         24    2    1    2    0    0 -0.14363053703E+02 -0.34456420579E+01  0.12000723691E+02  0.79257945671E+02  0.76939163123E+02 0.  0.
        -13    1    4    4    0    0 -0.37992889369E+02  0.15605922520E+02 -0.93795272151E+01  0.42130511404E+02  0.00000000000E+00 0.  1.
         14    1    4    4    0    0  0.23629835666E+02 -0.19051564578E+02  0.21380250907E+02  0.37127434268E+02  0.00000000000E+00 0. -1.
        -11    1    3    3    0    0 -0.51795447340E+02 -0.36261900822E+02  0.83396611794E+02  0.10465509388E+03  0.00000000000E+00 0.  1.
         11    1    3    3    0    0  0.35185745132E+02  0.40318953018E+00  0.58728622247E+02  0.68463496064E+02  0.00000000000E+00 0. -1.
         -2    1    1    2    0  502  0.30972755911E+02  0.39304353349E+02 -0.17638615155E+03  0.18334726139E+03  0.00000000000E+00 0.  1.
<scales pt_clust_5="13000.00000" pt_clust_6="13000.00000" pt_clust_7="13000.00000" pt_clust_8="13000.00000" pt_clust_9="50.04142"></scales>
<clustering>
<clus scale="   50.041">  2  9  1 -1</clus>
<clus scale="   76.939">  5  6 -1 -1</clus>
<clus scale="   80.727">  2  5  1 -1</clus>
<clus scale="   90.602">  7  8 -1 -1</clus>
<clus scale="   50.041">  2  5  1 -1</clus>
</clustering>
</event>
<event>
 9    2  0.3764910E-005  0.1328667E+03  0.7546771E-02  0.1227302E+00
         21   -1    0    0  501  502  0.00000000000E+00  0.00000000000E+00  0.38929602111E+03  0.38929602111E+03  0.00000000000E+00 0. -1.
          4   -1    0    0  502    0 -0.00000000000E+00 -0.00000000000E+00 -0.18521810040E+03  0.18521810040E+03  0.00000000000E+00 0. -1.
         24    2    1    2    0    0  0.18433483624E+02 -0.96780770345E+02 -0.11778733209E+03  0.17320082727E+03  0.80114668689E+02 0.  0.
         23    2    1    2    0    0  0.23530723310E+02  0.73425646470E+02  0.63079422985E+02  0.13810888283E+03  0.95655786090E+02 0.  0.
        -11    1    3    3    0    0 -0.19224960547E+02 -0.41492672622E+02 -0.10745994782E+02  0.46975710673E+02  0.00000000000E+00 0.  1.
         12    1    3    3    0    0  0.37658444171E+02 -0.55288097723E+02 -0.10704133731E+03  0.12622511660E+03  0.00000000000E+00 0. -1.
        -11    1    4    4    0    0  0.48404174633E+02  0.74577015128E+02  0.24553202466E+02  0.92236408531E+02  0.00000000000E+00 0.  1.
         11    1    4    4    0    0 -0.24873451323E+02 -0.11513686586E+01  0.38526220519E+02  0.45872474296E+02  0.00000000000E+00 0. -1.
          3    1    1    2  501    0 -0.41964206934E+02  0.23355123875E+02  0.25878582981E+03  0.26320441141E+03  0.00000000000E+00 0. -1.
<scales pt_clust_5="13000.00000" pt_clust_6="13000.00000" pt_clust_7="13000.00000" pt_clust_8="13000.00000" pt_clust_9="48.02558"></scales>
<clustering>
<clus scale="   48.026">  1  9  2 -1</clus>
<clus scale="   80.115">  5  6 -1 -1</clus>
<clus scale="   95.656">  7  8 -1 -1</clus>
<clus scale="  122.155">  2  5  1 -1</clus>
<clus scale="   48.026">  1  5  2 -1</clus>
</clustering>
</event>
<event>
 9    2  0.3764910E-005  0.9346835E+02  0.7546771E-02  0.1300472E+00
         21   -1    0    0  501  502  0.00000000000E+00  0.00000000000E+00  0.45497446980E+03  0.45497446980E+03  0.00000000000E+00 0. -1.
         -3   -1    0    0    0  501 -0.00000000000E+00 -0.00000000000E+00 -0.74621095728E+02  0.74621095728E+02  0.00000000000E+00 0.  1.
         23    2    1    2    0    0  0.20097984474E+02 -0.11536452435E+02 -0.29906000683E+02  0.98632147175E+02  0.91087391361E+02 0.  0.
         24    2    1    2    0    0 -0.32033225933E+01 -0.13540308791E+02  0.37741830829E+03  0.38632252678E+03  0.81282925814E+02 0.  0.
        -11    1    4    4    0    0 -0.93674801612E+01  0.21105608819E+02  0.33963408565E+02  0.41069569386E+02  0.00000000000E+00 0.  1.
         12    1    4    4    0    0  0.61641575679E+01 -0.34645917610E+02  0.34345489972E+03  0.34525295739E+03  0.00000000000E+00 0. -1.
        -11    1    3    3    0    0  0.10096925633E+02  0.22123971244E+02  0.24084578138E+02  0.34226961813E+02  0.00000000000E+00 0. -1.
         11    1    3    3    0    0  0.10001058841E+02 -0.33660423679E+02 -0.53990578821E+02  0.64405185363E+02  0.00000000000E+00 0.  1.
         -4    1    1    2    0  502 -0.16894661881E+02  0.25076761226E+02  0.32841066466E+02  0.44640891571E+02  0.00000000000E+00 0.  1.
<scales pt_clust_5="13000.00000" pt_clust_6="13000.00000" pt_clust_7="13000.00000" pt_clust_8="13000.00000" pt_clust_9="30.23696"></scales>
<clustering>
<clus scale="   30.237">  1  9  2 -1</clus>
<clus scale="   81.283">  5  6 -1 -1</clus>
<clus scale="   83.942">  1  5  2 -1</clus>
<clus scale="   91.087">  7  8 -1 -1</clus>
<clus scale="   30.237">  1  5  2 -1</clus>
</clustering>
</event>
<event>
 9    2  0.3764910E-005  0.2623449E+03  0.7546771E-02  0.1106311E+00
         -1   -1    0    0    0  501 -0.00000000000E+00  0.00000000000E+00  0.34978678882E+03  0.34978678882E+03  0.00000000000E+00 0.  1.
         21   -1    0    0  501  502  0.00000000000E+00 -0.00000000000E+00 -0.29794462408E+03  0.29794462408E+03  0.00000000000E+00 0.  1.
         23    2    1    2    0    0  0.20939565697E+03 -0.19885733603E+03  0.11807002882E+03  0.32498295936E+03  0.91008850753E+02 0.  0.
         24    2    1    2    0    0 -0.13741979068E+03  0.14565633625E+03 -0.71979039085E+01  0.21553181348E+03  0.79386306398E+02 0.  0.
        -13    1    4    4    0    0 -0.49530203504E+02  0.89745613667E+02  0.26811033331E+02  0.10595446069E+03  0.00000000000E+00 0.  1.
         14    1    4    4    0    0 -0.87889587177E+02  0.55910722580E+02 -0.34008937239E+02  0.10957735280E+03  0.00000000000E+00 0. -1.
        -13    1    3    3    0    0  0.15285379827E+03 -0.19067962733E+03  0.83741936543E+02  0.25833256833E+03  0.00000000000E+00 0.  1.
         13    1    3    3    0    0  0.56541858701E+02 -0.81777087043E+01  0.34328092275E+02  0.66650391028E+02  0.00000000000E+00 0. -1.
         -2    1    1    2    0  502 -0.71975866294E+02  0.53200999784E+02 -0.59029960176E+02  0.10721664006E+03  0.00000000000E+00 0.  1.
<scales pt_clust_5="13000.00000" pt_clust_6="13000.00000" pt_clust_7="13000.00000" pt_clust_8="13000.00000" pt_clust_9="89.50347"></scales>
<clustering>
<clus scale="   79.386">  5  6 -1 -1</clus>
<clus scale="   89.503">  2  9  1 -1</clus>
<clus scale="   91.009">  7  8 -1 -1</clus>
<clus scale="  258.543">  2  5  1 -1</clus>
<clus scale="   89.503">  2  5  1 -1</clus>
</clustering>
</event>
<event>
 9    2  0.3764910E-005  0.2048437E+03  0.7546771E-02  0.1146732E+00
         21   -1    0    0  501  502  0.00000000000E+00  0.00000000000E+00  0.16431602058E+03  0.16431602058E+03  0.00000000000E+00 0. -1.
          2   -1    0    0  502    0 -0.00000000000E+00 -0.00000000000E+00 -0.47260304214E+03  0.47260304214E+03  0.00000000000E+00 0. -1.
         23    2    1    2    0    0  0.17235557581E+03  0.17958566717E+03 -0.21623276981E+03  0.34229765718E+03  0.91943564257E+02 0.  0.
         24    2    1    2    0    0 -0.89134742704E+02 -0.77550585507E+02 -0.19387099506E+02  0.14423064795E+03  0.80420920861E+02 0.  0.
        -13    1    4    4    0    0 -0.10023874002E+03 -0.47607415202E+02 -0.14146151470E+02  0.11186771019E+03  0.00000000000E+00 0.  1.
         14    1    4    4    0    0  0.11103997312E+02 -0.29943170305E+02 -0.52409480356E+01  0.32362937761E+02  0.00000000000E+00 0. -1.
        -13    1    3    3    0    0  0.18316084856E+03  0.16206196053E+03 -0.19575570771E+03  0.31326071027E+03  0.00000000000E+00 0. -1.
         13    1    3    3    0    0 -0.10805272757E+02  0.17523706646E+02 -0.20477062099E+02  0.29036946915E+02  0.00000000000E+00 0.  1.
          1    1    1    2  501    0 -0.83220833102E+02 -0.10203508167E+03 -0.72667152242E+02  0.15039075759E+03  0.00000000000E+00 0. -1.
<scales pt_clust_5="13000.00000" pt_clust_6="13000.00000" pt_clust_7="13000.00000" pt_clust_8="13000.00000" pt_clust_9="131.66953"></scales>
<clustering>
<clus scale="   80.421">  5  6 -1 -1</clus>
<clus scale="   91.944">  7  8 -1 -1</clus>
<clus scale="  131.670">  1  9  2 -1</clus>
<clus scale="  199.937">  1  5  2 -1</clus>
<clus scale="  131.670">  1  5  2 -1</clus>
</clustering>
</event>
<event>
 9    2  0.3764910E-005  0.1034442E+03  0.7546771E-02  0.1281367E+00
         21   -1    0    0  501  502  0.00000000000E+00  0.00000000000E+00  0.21518897548E+03  0.21518897548E+03  0.00000000000E+00 0.  1.
          2   -1    0    0  502    0 -0.00000000000E+00 -0.00000000000E+00 -0.68808549414E+02  0.68808549414E+02  0.00000000000E+00 0. -1.
         23    2    1    2    0    0  0.98337631428E+01 -0.37920902358E+02  0.26972085444E+02  0.88942324302E+02  0.75156808912E+02 0.  0.
         24    2    1    2    0    0 -0.32895526817E+02  0.57987945207E+02  0.11872086487E+03  0.16447736915E+03  0.92268324650E+02 0.  0.
        -13    1    4    4    0    0 -0.31217392302E+02  0.62180209600E+02  0.13267446843E+03  0.14981127668E+03  0.00000000000E+00 0.  1.
         14    1    4    4    0    0 -0.16781345149E+01 -0.41922643925E+01 -0.13953603556E+02  0.14666092472E+02  0.00000000000E+00 0. -1.
        -11    1    3    3    0    0 -0.74191902626E+01 -0.57743853576E+02  0.21751796826E+02  0.62149317575E+02  0.00000000000E+00 0.  1.
         11    1    3    3    0    0  0.17252953405E+02  0.19822951218E+02  0.52202886175E+01  0.26793006726E+02  0.00000000000E+00 0. -1.
          1    1    1    2  501    0  0.23061763674E+02 -0.20067042849E+02  0.68747574775E+00  0.30577831437E+02  0.00000000000E+00 0. -1.
<scales pt_clust_5="13000.00000" pt_clust_6="13000.00000" pt_clust_7="13000.00000" pt_clust_8="13000.00000" pt_clust_9="30.57012"></scales>
<clustering>
<clus scale="   30.570">  1  9  2 -1</clus>
<clus scale="   75.157">  7  8 -1 -1</clus>
<clus scale="   88.520">  2  7  1 -1</clus>
<clus scale="   92.268">  5  6 -1 -1</clus>
<clus scale="   30.570">  1  5  2 -1</clus>
</clustering>
</event>
<event>
 9    2  0.3764910E-005  0.2669031E+03  0.7546771E-02  0.1103216E+00
          2   -1    0    0  502    0 -0.00000000000E+00  0.00000000000E+00  0.74419359214E+03  0.74419359214E+03  0.00000000000E+00 0. -1.
         21   -1    0    0  501  502  0.00000000000E+00 -0.00000000000E+00 -0.14701506011E+03  0.14701506011E+03  0.00000000000E+00 0. -1.
         23    2    1    2    0    0  0.17480142744E+03 -0.18664403181E+03  0.52466149269E+03  0.59061139477E+03  0.90336061895E+02 0.  0.
         24    2    1    2    0    0 -0.17556953808E+03  0.16241875615E+03  0.90739842812E+02  0.27027359442E+03  0.87232916484E+02 0.  0.
        -13    1    4    4    0    0 -0.24931974058E+02  0.25808006998E+02  0.52125163766E+02  0.63282614148E+02  0.00000000000E+00 0.  1.
         14    1    4    4    0    0 -0.15063756402E+03  0.13661074915E+03  0.38614679046E+02  0.20699098027E+03  0.00000000000E+00 0. -1.
        -13    1    3    3    0    0  0.65640716387E+02 -0.36258875038E+02  0.85346124327E+02  0.11361060956E+03  0.00000000000E+00 0.  1.
         13    1    3    3    0    0  0.10916071106E+03 -0.15038515677E+03  0.43931536836E+03  0.47700078521E+03  0.00000000000E+00 0. -1.
          1    1    1    2  501    0  0.76811063236E+00  0.24225275659E+02 -0.18222803470E+02  0.30323663054E+02  0.00000000000E+00 0. -1.
<scales pt_clust_5="13000.00000" pt_clust_6="13000.00000" pt_clust_7="13000.00000" pt_clust_8="13000.00000" pt_clust_9="24.23745"></scales>
<clustering>
<clus scale="   24.237">  2  9  1 -1</clus>
<clus scale="   87.233">  5  6 -1 -1</clus>
<clus scale="   90.336">  7  8 -1 -1</clus>
<clus scale="  265.869">  2  5  1 -1</clus>
<clus scale="   24.237">  2  5  1 -1</clus>
</clustering>
</event>
<event>
 9    2  0.3764910E-005  0.9355894E+02  0.7546771E-02  0.1300576E+00
          2   -1    0    0  502    0 -0.00000000000E+00  0.00000000000E+00  0.25786001490E+03  0.25786001490E+03  0.00000000000E+00 0. -1.
         21   -1    0    0  501  502  0.00000000000E+00 -0.00000000000E+00 -0.41425694891E+02  0.41425694891E+02  0.00000000000E+00 0.  1.
         23    2    1    2    0    0  0.99061716515E+01 -0.23625422364E+02  0.14101769885E+03  0.16993993440E+03  0.91308800755E+02 0.  0.
         24    2    1    2    0    0 -0.18342533204E+02  0.36709769293E+01  0.63523461582E+02  0.10463142058E+03  0.81009748832E+02 0.  0.
        -13    1    4    4    0    0 -0.45312930459E+02  0.13320988476E+00  0.12819202303E+02  0.47091521098E+02  0.00000000000E+00 0.  1.
         14    1    4    4    0    0  0.26970397255E+02  0.35377670445E+01  0.50704259279E+02  0.57539899485E+02  0.00000000000E+00 0. -1.
        -13    1    3    3    0    0 -0.40932900567E+02 -0.11984136311E+02  0.65517585011E+02  0.78177207789E+02  0.00000000000E+00 0.  1.
         13    1    3    3    0    0  0.50839072218E+02 -0.11641286053E+02  0.75500113841E+02  0.91762726610E+02  0.00000000000E+00 0. -1.
          1    1    1    2  501    0  0.84363615524E+01  0.19954445435E+02  0.11893159572E+02  0.24714354806E+02  0.00000000000E+00 0. -1.
<scales pt_clust_5="13000.00000" pt_clust_6="13000.00000" pt_clust_7="13000.00000" pt_clust_8="13000.00000" pt_clust_9="21.66454"></scales>
<clustering>
<clus scale="   21.665">  2  9  1 -1</clus>
<clus scale="   81.010">  5  6 -1 -1</clus>
<clus scale="   83.538">  2  5  1 -1</clus>
<clus scale="   91.309">  7  8 -1 -1</clus>
<clus scale="   21.665">  2  5  1 -1</clus>
</clustering>
</event>
<event>
 9    2  0.4362779E-005  0.1409229E+03  0.7546771E-02  0.1229730E+00
         21   -1    0    0  501  502  0.00000000000E+00  0.00000000000E+00  0.14576695304E+03  0.14576695304E+03  0.00000000000E+00 0.  1.
         -1   -1    0    0    0  501 -0.00000000000E+00 -0.00000000000E+00 -0.29661400695E+03  0.29661400695E+03  0.00000000000E+00 0.  1.
         24    2    1    2    0    0  0.51382848818E+02 -0.45399791649E+01 -0.31040806160E+02  0.10219044988E+03  0.82574498707E+02 0.  0.
         23    2    1    2    0    0  0.63519359857E+02  0.86013652039E+01 -0.17889784572E+03  0.21092013700E+03  0.91510504462E+02 0.  0.
        -13    1    3    3    0    0  0.62939859168E+02 -0.24514086876E+02 -0.38736447401E+02  0.77864489241E+02  0.00000000000E+00 0.  1.
         14    1    3    3    0    0 -0.11557010350E+02  0.19974107711E+02  0.76956412413E+01  0.24325960642E+02  0.00000000000E+00 0. -1.
        -11    1    4    4    0    0  0.68844305599E+02 -0.12487761689E+02 -0.17546405535E+03  0.18889975470E+03  0.00000000000E+00 0.  1.
         11    1    4    4    0    0 -0.53249457421E+01  0.21089126893E+02 -0.34337903723E+01  0.22020382299E+02  0.00000000000E+00 0. -1.
         -2    1    1    2    0  502 -0.11490220867E+03 -0.40613860390E+01  0.59091597965E+02  0.12927037311E+03  0.00000000000E+00 0.  1.
<scales pt_clust_5="13000.00000" pt_clust_6="13000.00000" pt_clust_7="13000.00000" pt_clust_8="13000.00000" pt_clust_9="107.16855"></scales>
<clustering>
<clus scale="   82.574">  5  6 -1 -1</clus>
<clus scale="   91.511">  7  8 -1 -1</clus>
<clus scale="   97.362">  2  5  1 -1</clus>
<clus scale="  107.169">  1  9  2 -1</clus>
<clus scale="  107.169">  1  5  2 -1</clus>
</clustering>
</event>
<event>
 9    2  0.3764910E-005  0.1080562E+03  0.7546771E-02  0.1271813E+00
          2   -1    0    0  502    0 -0.00000000000E+00  0.00000000000E+00  0.43531092130E+03  0.43531092130E+03  0.00000000000E+00 0. -1.
         21   -1    0    0  501  502  0.00000000000E+00 -0.00000000000E+00 -0.61678468506E+02  0.61678468506E+02  0.00000000000E+00 0.  1.
         23    2    1    2    0    0  0.18154052850E+02  0.26625913651E+02  0.81975333964E+02  0.12740702791E+03  0.92054801445E+02 0.  0.
         24    2    1    2    0    0 -0.79868485516E+02 -0.52286251822E+02  0.73568582251E+02  0.14148209022E+03  0.74108153731E+02 0.  0.
        -11    1    4    4    0    0 -0.48465799129E+02 -0.60240178773E+02  0.76737311587E+02  0.10893313460E+03  0.00000000000E+00 0.  1.
         12    1    4    4    0    0 -0.31402686387E+02  0.79539269508E+01 -0.31687293352E+01  0.32548955619E+02  0.00000000000E+00 0. -1.
        -13    1    3    3    0    0  0.15411528189E+01  0.58683598976E+02  0.64757766334E+02  0.87405424553E+02  0.00000000000E+00 0.  1.
         13    1    3    3    0    0  0.16612900031E+02 -0.32057685325E+02  0.17217567630E+02  0.40001603354E+02  0.00000000000E+00 0. -1.
          1    1    1    2  501    0  0.61714432666E+02  0.25660338171E+02  0.21808853658E+03  0.22810027168E+03  0.00000000000E+00 0. -1.
<scales pt_clust_5="13000.00000" pt_clust_6="13000.00000" pt_clust_7="13000.00000" pt_clust_8="13000.00000" pt_clust_9="66.83658"></scales>
<clustering>
<clus scale="   66.837">  2  9  1 -1</clus>
<clus scale="   74.108">  5  6 -1 -1</clus>
<clus scale="   92.055">  7  8 -1 -1</clus>
<clus scale="   93.242">  2  5  1 -1</clus>
<clus scale="   66.837">  2  5  1 -1</clus>
</clustering>
</event>
<event>
 9    2  0.3764910E-005  0.2248936E+03  0.7546771E-02  0.1130621E+00
          2   -1    0    0  502    0 -0.00000000000E+00  0.00000000000E+00  0.21756433858E+04  0.21756433858E+04  0.00000000000E+00 0. -1.
         21   -1    0    0  501  502  0.00000000000E+00 -0.00000000000E+00 -0.25551528567E+02  0.25551528567E+02  0.00000000000E+00 0. -1.
         23    2    1    2    0    0 -0.19759606356E+03 -0.65313588763E+02  0.10946487023E+04  0.11174565885E+04  0.84518498239E+02 0.  0.
         24    2    1    2    0    0  0.20460126260E+03  0.44394929328E+02  0.95689936759E+03  0.98275545033E+03  0.79493956073E+02 0.  0.
        -13    1    4    4    0    0  0.15272944942E+02 -0.17625431571E+02  0.13888420571E+03  0.14082876582E+03  0.00000000000E+00 0.  1.
         14    1    4    4    0    0  0.18932831766E+03  0.62020360899E+02  0.81801516188E+03  0.84192668452E+03  0.00000000000E+00 0. -1.
        -13    1    3    3    0    0 -0.17142058564E+03 -0.39307819032E+02  0.10087837420E+04  0.10239993945E+04  0.00000000000E+00 0.  1.
         13    1    3    3    0    0 -0.26175477919E+02 -0.26005769731E+02  0.85864960243E+02  0.93457193951E+02  0.00000000000E+00 0. -1.
          1    1    1    2  501    0 -0.70051990449E+01  0.20918659435E+02  0.98543787425E+02  0.10098287561E+03  0.00000000000E+00 0. -1.
<scales pt_clust_5="13000.00000" pt_clust_6="13000.00000" pt_clust_7="13000.00000" pt_clust_8="13000.00000" pt_clust_9="22.06044"></scales>
<clustering>
<clus scale="   22.060">  2  9  1 -1</clus>
<clus scale="   79.494">  5  6 -1 -1</clus>
<clus scale="   84.518">  7  8 -1 -1</clus>
<clus scale="  223.054">  2  5  1 -1</clus>
<clus scale="   22.060">  2  5  1 -1</clus>
</clustering>
</event>
<event>
 9    2  0.3764910E-005  0.1176031E+03  0.7546771E-02  0.1248907E+00
         -3   -1    0    0    0  501 -0.00000000000E+00  0.00000000000E+00  0.13789058694E+03  0.13789058694E+03  0.00000000000E+00 0.  1.
         21   -1    0    0  501  502  0.00000000000E+00 -0.00000000000E+00 -0.14437468745E+03  0.14437468745E+03  0.00000000000E+00 0.  1.
         23    2    1    2    0    0  0.71857044272E+02 -0.69914640946E+01 -0.10637378334E+01  0.11390188290E+03  0.88091952000E+02 0.  0.
         24    2    1    2    0    0 -0.86711525739E+02 -0.10152477791E+02 -0.40385405950E+02  0.12668456457E+03  0.82438076061E+02 0.  0.
        -13    1    4    4    0    0 -0.99648842793E+02  0.49859375611E+01 -0.29779564923E+02  0.10412287900E+03  0.00000000000E+00 0.  1.
         14    1    4    4    0    0  0.12937317054E+02 -0.15138415352E+02 -0.10605841028E+02  0.22561685572E+02  0.00000000000E+00 0. -1.
        -13    1    3    3    0    0  0.55624998833E+02  0.26824912145E+02  0.26653957663E+02  0.67261800941E+02  0.00000000000E+00 0.  1.
         13    1    3    3    0    0  0.16232045439E+02 -0.33816376239E+02 -0.27717695496E+02  0.46640081954E+02  0.00000000000E+00 0. -1.
         -4    1    1    2    0  502  0.14854481467E+02  0.17143941886E+02  0.34965043272E+02  0.41678826927E+02  0.00000000000E+00 0.  1.
<scales pt_clust_5="13000.00000" pt_clust_6="13000.00000" pt_clust_7="13000.00000" pt_clust_8="13000.00000" pt_clust_9="22.68415"></scales>
<clustering>
<clus scale="   22.684">  2  9  1 -1</clus>
<clus scale="   82.438">  5  6 -1 -1</clus>
<clus scale="   88.092">  7  8 -1 -1</clus>
<clus scale="  113.430">  2  5  1 -1</clus>
<clus scale="   22.684">  2  5  1 -1</clus>
</clustering>
</event>
<event>
 9    2  0.3764910E-005  0.9223416E+02  0.7546771E-02  0.1302712E+00
          2   -1    0    0  502    0 -0.00000000000E+00  0.00000000000E+00  0.15492870315E+03  0.15492870315E+03  0.00000000000E+00 0. -1.
         21   -1    0    0  501  502  0.00000000000E+00 -0.00000000000E+00 -0.11049940585E+03  0.11049940585E+03  0.00000000000E+00 0. -1.
         24    2    1    2    0    0 -0.11798637863E+02  0.29851125701E+02  0.28870582435E+02  0.91510210669E+02  0.80686495559E+02 0.  0.
         23    2    1    2    0    0  0.38310768380E+02  0.34843329448E+02  0.96826026382E+01  0.10375527092E+03  0.89384735096E+02 0.  0.
        -13    1    3    3    0    0 -0.27633923869E+02  0.54778018962E+01 -0.20069711182E+02  0.34589497958E+02  0.00000000000E+00 0.  1.
         14    1    3    3    0    0  0.15835286007E+02  0.24373323805E+02  0.48940293617E+02  0.56920712711E+02  0.00000000000E+00 0. -1.
        -11    1    4    4    0    0  0.47181514823E+02 -0.80344357645E+01  0.28931033514E+02  0.55925416398E+02  0.00000000000E+00 0.  1.
         11    1    4    4    0    0 -0.88707464430E+01  0.42877765213E+02 -0.19248430876E+02  0.47829854519E+02  0.00000000000E+00 0. -1.
          1    1    1    2  501    0 -0.26512130518E+02 -0.64694455149E+02  0.58761122261E+01  0.70162627420E+02  0.00000000000E+00 0. -1.
<scales pt_clust_5="13000.00000" pt_clust_6="13000.00000" pt_clust_7="13000.00000" pt_clust_8="13000.00000" pt_clust_9="69.91613"></scales>
<clustering>
<clus scale="   69.916">  2  9  1 -1</clus>
<clus scale="   80.686">  5  6 -1 -1</clus>
<clus scale="   83.832">  1  5  2 -1</clus>
<clus scale="   89.385">  7  8 -1 -1</clus>
<clus scale="   69.916">  2  5  1 -1</clus>
</clustering>
</event>
<event>
 9    2  0.3764910E-005  0.1136506E+03  0.7546771E-02  0.1261680E+00
         21   -1    0    0  501  502  0.00000000000E+00  0.00000000000E+00  0.10437984487E+03  0.10437984487E+03  0.00000000000E+00 0. -1.
          2   -1    0    0  502    0 -0.00000000000E+00 -0.00000000000E+00 -0.51454080012E+03  0.51454080012E+03  0.00000000000E+00 0. -1.
         24    2    1    2    0    0 -0.46628274062E+02  0.29503603687E+02 -0.95799570661E+02  0.13675144526E+03  0.80490629703E+02 0.  0.
         23    2    1    2    0    0 -0.62324786032E+01  0.68317566072E+02  0.34028320335E+02  0.11646627805E+03  0.87751545363E+02 0.  0.
        -13    1    3    3    0    0  0.20146997408E+02  0.22431330257E+02 -0.24932395009E+02  0.39124038679E+02  0.00000000000E+00 0.  1.
         14    1    3    3    0    0 -0.66775271470E+02  0.70722734303E+01 -0.70867175651E+02  0.97627406583E+02  0.00000000000E+00 0. -1.
        -13    1    4    4    0    0  0.38705191840E+02  0.41581803903E+02  0.29420147991E+02  0.63974083807E+02  0.00000000000E+00 0.  1.
         13    1    4    4    0    0 -0.44937670443E+02  0.26735762169E+02  0.46081723440E+01  0.52492194239E+02  0.00000000000E+00 0. -1.
          1    1    1    2  501    0  0.52860752665E+02 -0.97821169759E+02 -0.34838970493E+03  0.36570292168E+03  0.00000000000E+00 0. -1.
<scales pt_clust_5="13000.00000" pt_clust_6="13000.00000" pt_clust_7="13000.00000" pt_clust_8="13000.00000" pt_clust_9="72.22273"></scales>
<clustering>
<clus scale="   80.491">  5  6 -1 -1</clus>
<clus scale="   87.752">  7  8 -1 -1</clus>
<clus scale="   97.588">  2  5  1 -1</clus>
<clus scale="   72.223">  1  9  2 -1</clus>
<clus scale="   72.223">  1  5  2 -1</clus>
</clustering>
</event>
<event>
 9    2  0.3764910E-005  0.9702963E+02  0.7546771E-02  0.1296817E+00
         21   -1    0    0  501  502  0.00000000000E+00  0.00000000000E+00  0.12097545475E+03  0.12097545475E+03  0.00000000000E+00 0. -1.
          2   -1    0    0  502    0 -0.00000000000E+00 -0.00000000000E+00 -0.23292750570E+03  0.23292750570E+03  0.00000000000E+00 0. -1.
         24    2    1    2    0    0  0.32824770586E+02 -0.33316787966E+01 -0.16842848971E+03  0.18697993120E+03  0.74194156611E+02 0.  0.
         23    2    1    2    0    0 -0.16745832286E+02 -0.38985170857E+02  0.97042741102E+01  0.10183168262E+03  0.92061132965E+02 0.  0.
        -11    1    3    3    0    0 -0.71363626909E+00 -0.30070853463E+02 -0.31780039200E+02  0.43757700994E+02  0.00000000000E+00 0.  1.
         12    1    3    3    0    0  0.33538406855E+02  0.26739174667E+02 -0.13664845051E+03  0.14322223020E+03  0.00000000000E+00 0. -1.
        -11    1    4    4    0    0 -0.15734089118E+02  0.29147788782E+02  0.53460329202E+01  0.33551977874E+02  0.00000000000E+00 0.  1.
         11    1    4    4    0    0 -0.10117431678E+01 -0.68132959640E+02  0.43582411900E+01  0.68279704743E+02  0.00000000000E+00 0. -1.
          1    1    1    2  501    0 -0.16078938300E+02  0.42316849654E+02  0.46772164651E+02  0.65091346642E+02  0.00000000000E+00 0. -1.
<scales pt_clust_5="13000.00000" pt_clust_6="13000.00000" pt_clust_7="13000.00000" pt_clust_8="13000.00000" pt_clust_9="45.26862"></scales>
<clustering>
<clus scale="   45.269">  1  9  2 -1</clus>
<clus scale="   74.194">  5  6 -1 -1</clus>
<clus scale="   80.276">  2  5  1 -1</clus>
<clus scale="   92.061">  7  8 -1 -1</clus>
<clus scale="   45.269">  1  5  2 -1</clus>
</clustering>
</event>
<event>
 9    2  0.3764910E-005  0.2324034E+03  0.7546771E-02  0.1126044E+00
          2   -1    0    0  502    0 -0.00000000000E+00  0.00000000000E+00  0.79792202936E+03  0.79792202936E+03  0.00000000000E+00 0. -1.
         21   -1    0    0  501  502  0.00000000000E+00 -0.00000000000E+00 -0.13189375605E+03  0.13189375605E+03  0.00000000000E+00 0. -1.
         24    2    1    2    0    0  0.14501397326E+03  0.14808202077E+03  0.39921017246E+03  0.45704039468E+03  0.80992735840E+02 0.  0.
         23    2    1    2    0    0 -0.23604722470E+03 -0.65582700147E+02  0.14952670662E+03  0.30292115342E+03  0.96869016458E+02 0.  0.
        -11    1    3    3    0    0  0.83221441272E+02  0.13178999987E+03  0.31371037431E+03  0.35029788938E+03  0.00000000000E+00 0.  1.
         12    1    3    3    0    0  0.61792531990E+02  0.16292020898E+02  0.85499798149E+02  0.10674250530E+03  0.00000000000E+00 0. -1.
        -13    1    4    4    0    0 -0.78451979732E+02 -0.51570229025E+02  0.14657289707E+02  0.95021249134E+02  0.00000000000E+00 0.  1.
         13    1    4    4    0    0 -0.15759524497E+03 -0.14012471122E+02  0.13486941691E+03  0.20789990429E+03  0.00000000000E+00 0. -1.
          1    1    1    2  501    0  0.91033251439E+02 -0.82499320618E+02  0.11729139423E+03  0.16985423731E+03  0.00000000000E+00 0. -1.
<scales pt_clust_5="13000.00000" pt_clust_6="13000.00000" pt_clust_7="13000.00000" pt_clust_8="13000.00000" pt_clust_9="122.85435"></scales>
<clustering>
<clus scale="   80.993">  5  6 -1 -1</clus>
<clus scale="   96.869">  7  8 -1 -1</clus>
<clus scale="  122.854">  2  9  1 -1</clus>
<clus scale="  226.247">  1  5  2 -1</clus>
<clus scale="  122.854">  2  5  1 -1</clus>
</clustering>
</event>
<event>
 9    2  0.3764910E-005  0.1021419E+03  0.7546771E-02  0.1279810E+00
         -1   -1    0    0    0  501 -0.00000000000E+00  0.00000000000E+00  0.12412672741E+03  0.12412672741E+03  0.00000000000E+00 0.  1.
         21   -1    0    0  501  502  0.00000000000E+00 -0.00000000000E+00 -0.12428240240E+03  0.12428240240E+03  0.00000000000E+00 0. -1.
         23    2    1    2    0    0 -0.22457169167E+02 -0.51942005540E+02  0.49218551178E+02  0.11761294798E+03  0.90598252558E+02 0.  0.
         24    2    1    2    0    0  0.71314137411E+00  0.33331505292E+02 -0.22304927660E+02  0.91402014933E+02  0.82129901499E+02 0.  0.
        -13    1    4    4    0    0 -0.16344812320E+02  0.39992675589E+02  0.18253142224E+02  0.46901430592E+02  0.00000000000E+00 0.  1.
         14    1    4    4    0    0  0.17057953694E+02 -0.66611702977E+01 -0.40558069884E+02  0.44500584341E+02  0.00000000000E+00 0. -1.
        -13    1    3    3    0    0  0.12919841340E+02 -0.61920465647E+02  0.10312204989E+02  0.64089062545E+02  0.00000000000E+00 0.  1.
         13    1    3    3    0    0 -0.35377010507E+02  0.99784601068E+01  0.38906346189E+02  0.53523885438E+02  0.00000000000E+00 0. -1.
         -2    1    1    2    0  502  0.21744027793E+02  0.18610500248E+02 -0.27069298504E+02  0.39394166899E+02  0.00000000000E+00 0.  1.
<scales pt_clust_5="13000.00000" pt_clust_6="13000.00000" pt_clust_7="13000.00000" pt_clust_8="13000.00000" pt_clust_9="28.62086"></scales>
<clustering>
<clus scale="   28.621">  2  9  1 -1</clus>
<clus scale="   82.130">  5  6 -1 -1</clus>
<clus scale="   90.598">  7  8 -1 -1</clus>
<clus scale="   94.711">  2  5  1 -1</clus>
<clus scale="   28.621">  2  5  1 -1</clus>
</clustering>
</event>
<event>
 9    2  0.3764910E-005  0.3048810E+03  0.7546771E-02  0.1083488E+00
          2   -1    0    0  502    0 -0.00000000000E+00  0.00000000000E+00  0.12860039381E+04  0.12860039381E+04  0.00000000000E+00 0. -1.
         21   -1    0    0  501  502  0.00000000000E+00 -0.00000000000E+00 -0.15592447893E+03  0.15592447893E+03  0.00000000000E+00 0.  1.
         23    2    1    2    0    0  0.59360393484E+02 -0.28583761118E+03  0.93485683513E+03  0.98370725405E+03  0.92173006903E+02 0.  0.
         24    2    1    2    0    0 -0.14321181629E+03  0.25829741531E+03  0.82583316154E+02  0.31512281505E+03  0.72492795386E+02 0.  0.
        -11    1    4    4    0    0 -0.10409987092E+03  0.23477357819E+03  0.58014412186E+02  0.26328898223E+03  0.00000000000E+00 0.  1.
         12    1    4    4    0    0 -0.39111945367E+02  0.23523837112E+02  0.24568903968E+02  0.51833832822E+02  0.00000000000E+00 0. -1.
        -11    1    3    3    0    0  0.74587201428E+02 -0.18648383883E+03  0.53642587214E+03  0.57279332142E+03  0.00000000000E+00 0. -1.
         11    1    3    3    0    0 -0.15226807944E+02 -0.99353772343E+02  0.39843096299E+03  0.41091393263E+03  0.00000000000E+00 0.  1.
          1    1    1    2  501    0  0.83851422802E+02  0.27540195872E+02  0.11263930787E+03  0.14309834790E+03  0.00000000000E+00 0. -1.
<scales pt_clust_5="13000.00000" pt_clust_6="13000.00000" pt_clust_7="13000.00000" pt_clust_8="13000.00000" pt_clust_9="88.25832"></scales>
<clustering>
<clus scale="   72.493">  5  6 -1 -1</clus>
<clus scale="   88.258">  2  9  1 -1</clus>
<clus scale="   92.173">  7  8 -1 -1</clus>
<clus scale="  299.519">  2  5  1 -1</clus>
<clus scale="   88.258">  2  5  1 -1</clus>
</clustering>
</event>
<event>
 9    2  0.3764910E-005  0.1181880E+03  0.7546771E-02  0.1249975E+00
         21   -1    0    0  501  502  0.00000000000E+00  0.00000000000E+00  0.34857450123E+02  0.34857450123E+02  0.00000000000E+00 0. -1.
          2   -1    0    0  502    0 -0.00000000000E+00 -0.00000000000E+00 -0.59002126638E+03  0.59002126638E+03  0.00000000000E+00 0. -1.
         23    2    1    2    0    0  0.70641521949E+02  0.63478261475E+02 -0.35232959101E+03  0.37638410688E+03  0.92245004791E+02 0.  0.
         24    2    1    2    0    0 -0.38444478300E+02 -0.25550043466E+02 -0.11878913532E+03  0.15082794959E+03  0.80668637489E+02 0.  0.
        -13    1    4    4    0    0 -0.18603701538E+02  0.73572138105E+01 -0.10947696974E+03  0.11128986122E+03  0.00000000000E+00 0.  1.
         14    1    4    4    0    0 -0.19840776762E+02 -0.32907257277E+02 -0.93121655718E+01  0.39538088366E+02  0.00000000000E+00 0. -1.
        -11    1    3    3    0    0  0.75878854786E+02  0.11053301704E+02 -0.16798498382E+03  0.18465841673E+03  0.00000000000E+00 0. -1.
         11    1    3    3    0    0 -0.52373328361E+01  0.52424959771E+02 -0.18434460719E+03  0.19172569015E+03  0.00000000000E+00 0.  1.
          1    1    1    2  501    0 -0.32197043649E+02 -0.37928218008E+02 -0.84045089931E+02  0.97666660036E+02  0.00000000000E+00 0. -1.
<scales pt_clust_5="13000.00000" pt_clust_6="13000.00000" pt_clust_7="13000.00000" pt_clust_8="13000.00000" pt_clust_9="49.75138"></scales>
<clustering>
<clus scale="   49.751">  1  9  2 -1</clus>
<clus scale="   80.669">  5  6 -1 -1</clus>
<clus scale="   92.245">  7  8 -1 -1</clus>
<clus scale="  109.392">  1  5  2 -1</clus>
<clus scale="   49.751">  1  5  2 -1</clus>
</clustering>
</event>
<event>
 9    2  0.3764910E-005  0.1538058E+03  0.7546771E-02  0.1197455E+00
          2   -1    0    0  502    0 -0.00000000000E+00  0.00000000000E+00  0.73875394344E+03  0.73875394344E+03  0.00000000000E+00 0. -1.
         21   -1    0    0  501  502  0.00000000000E+00 -0.00000000000E+00 -0.17855689331E+03  0.17855689331E+03  0.00000000000E+00 0. -1.
         24    2    1    2    0    0  0.43945373472E+02  0.11277712874E+03  0.48835083237E+03  0.51024247478E+03  0.84917436212E+02 0.  0.
         23    2    1    2    0    0 -0.10681498214E+03 -0.86316805664E+02  0.20108492931E+03  0.26093355791E+03  0.93761087343E+02 0.  0.
        -13    1    3    3    0    0  0.37429730902E+02  0.74304356633E+02  0.16747396194E+03  0.18700173822E+03  0.00000000000E+00 0.  1.
         14    1    3    3    0    0  0.65156425706E+01  0.38472772110E+02  0.32087687043E+03  0.32324073655E+03  0.00000000000E+00 0. -1.
        -13    1    4    4    0    0 -0.43234733664E+02 -0.31296437988E+02  0.15735435514E+03  0.16615986972E+03  0.00000000000E+00 0. -1.
         13    1    4    4    0    0 -0.63580248477E+02 -0.55020367676E+02  0.43730574173E+02  0.94773688190E+02  0.00000000000E+00 0.  1.
          1    1    1    2  501    0  0.62869608669E+02 -0.26460323079E+02 -0.12923871156E+03  0.14613480406E+03  0.00000000000E+00 0. -1.
<scales pt_clust_5="13000.00000" pt_clust_6="13000.00000" pt_clust_7="13000.00000" pt_clust_8="13000.00000" pt_clust_9="68.21097"></scales>
<clustering>
<clus scale="   68.211">  2  9  1 -1</clus>
<clus scale="   84.917">  5  6 -1 -1</clus>
<clus scale="   93.761">  7  8 -1 -1</clus>
<clus scale="  148.580">  1  5  2 -1</clus>
<clus scale="   68.211">  2  5  1 -1</clus>
</clustering>
</event>
<event>
 9    2  0.3764910E-005  0.1791063E+03  0.7546771E-02  0.1172274E+00
         21   -1    0    0  501  502  0.00000000000E+00  0.00000000000E+00  0.10925046520E+03  0.10925046520E+03  0.00000000000E+00 0.  1.
         -1   -1    0    0    0  501 -0.00000000000E+00 -0.00000000000E+00 -0.66596701459E+03  0.66596701459E+03  0.00000000000E+00 0.  1.
         23    2    1    2    0    0 -0.12985511765E+03 -0.40832858291E+02 -0.44192747625E+03  0.47455949945E+03  0.10666372558E+03 0.  0.
         24    2    1    2    0    0  0.15834321087E+03  0.40394416987E+02 -0.16310476013E+03  0.24456725655E+03  0.80657912488E+02 0.  0.
        -11    1    4    4    0    0  0.21613872031E+02 -0.22248889678E+02 -0.37129045416E+02  0.48381179911E+02  0.00000000000E+00 0.  1.
         12    1    4    4    0    0  0.13672933884E+03  0.62643306665E+02 -0.12597571472E+03  0.19618607664E+03  0.00000000000E+00 0. -1.
        -13    1    3    3    0    0 -0.13801570669E+03 -0.17304010991E+02 -0.41586964730E+03  0.43851491153E+03  0.00000000000E+00 0.  1.
         13    1    3    3    0    0  0.81605890322E+01 -0.23528847300E+02 -0.26057828952E+02  0.36044587920E+02  0.00000000000E+00 0. -1.
         -2    1    1    2    0  502 -0.28488093214E+02  0.43844130364E+00  0.48315686994E+02  0.56090723791E+02  0.00000000000E+00 0.  1.
<scales pt_clust_5="13000.00000" pt_clust_6="13000.00000" pt_clust_7="13000.00000" pt_clust_8="13000.00000" pt_clust_9="28.49147"></scales>
<clustering>
<clus scale="   28.491">  1  9  2 -1</clus>
<clus scale="   80.658">  5  6 -1 -1</clus>
<clus scale="  106.664">  7  8 -1 -1</clus>
<clus scale="  164.947">  1  5  2 -1</clus>
<clus scale="   28.491">  1  5  2 -1</clus>
</clustering>
</event>
<event>
 9    2  0.3764910E-005  0.9880622E+02  0.7546771E-02  0.1286537E+00
         -1   -1    0    0    0  501 -0.00000000000E+00  0.00000000000E+00  0.18445750408E+03  0.18445750408E+03  0.00000000000E+00 0.  1.
         21   -1    0    0  501  502  0.00000000000E+00 -0.00000000000E+00 -0.29477503101E+03  0.29477503101E+03  0.00000000000E+00 0.  1.
         23    2    1    2    0    0 -0.22991816998E+02 -0.22541587019E+02  0.10544421453E+03  0.14185264120E+03  0.89257731569E+02 0.  0.
         24    2    1    2    0    0  0.61335918705E+02  0.36627176425E+02  0.89678721883E+01  0.10896782499E+03  0.81791926105E+02 0.  0.
        -11    1    4    4    0    0  0.64249559560E+02  0.50847600122E+02 -0.12672346056E+02  0.82910027719E+02  0.00000000000E+00 0.  1.
         12    1    4    4    0    0 -0.29136408547E+01 -0.14220423697E+02  0.21640218244E+02  0.26057797275E+02  0.00000000000E+00 0. -1.
        -11    1    3    3    0    0 -0.55990380451E+02 -0.21302910736E+02  0.81104550327E+02  0.10082997963E+03  0.00000000000E+00 0.  1.
         11    1    3    3    0    0  0.32998563454E+02 -0.12386762827E+01  0.24339664202E+02  0.41022661572E+02  0.00000000000E+00 0. -1.
         -2    1    1    2    0  502 -0.38344101708E+02 -0.14085589406E+02 -0.22472961365E+03  0.22841206889E+03  0.00000000000E+00 0.  1.
<scales pt_clust_5="13000.00000" pt_clust_6="13000.00000" pt_clust_7="13000.00000" pt_clust_8="13000.00000" pt_clust_9="40.84941"></scales>
<clustering>
<clus scale="   40.849">  2  9  1 -1</clus>
<clus scale="   81.792">  5  6 -1 -1</clus>
<clus scale="   89.258">  7  8 -1 -1</clus>
<clus scale="   92.118">  2  5  1 -1</clus>
<clus scale="   40.849">  2  5  1 -1</clus>
</clustering>
</event>
<event>
 9    2  0.3764910E-005  0.9407077E+02  0.7546771E-02  0.1301368E+00
          4   -1    0    0  502    0 -0.00000000000E+00  0.00000000000E+00  0.45550451432E+03  0.45550451432E+03  0.00000000000E+00 0. -1.
         21   -1    0    0  501  502  0.00000000000E+00 -0.00000000000E+00 -0.76350436554E+02  0.76350436554E+02  0.00000000000E+00 0. -1.
         23    2    1    2    0    0 -0.82136142128E+01 -0.19121207427E+02  0.29482482030E+03  0.31007081648E+03  0.93750480183E+02 0.  0.
         24    2    1    2    0    0 -0.14414327633E+02 -0.95565853314E+01  0.13567744743E+03  0.15876765907E+03  0.80620708641E+02 0.  0.
        -11    1    4    4    0    0 -0.54752835210E+01  0.32200315421E+02  0.92251934107E+02  0.97863468104E+02  0.00000000000E+00 0.  1.
         12    1    4    4    0    0 -0.89390441119E+01 -0.41756900753E+02  0.43425513321E+02  0.60904190966E+02  0.00000000000E+00 0. -1.
        -11    1    3    3    0    0 -0.29407611683E+02 -0.46548541403E+02  0.23067954867E+03  0.23715950014E+03  0.00000000000E+00 0. -1.
         11    1    3    3    0    0  0.21193997470E+02  0.27427333976E+02  0.64145271631E+02  0.72911316340E+02  0.00000000000E+00 0.  1.
          3    1    1    2  501    0  0.22627941846E+02  0.28677792758E+02 -0.51348189964E+02  0.63016475323E+02  0.00000000000E+00 0. -1.
<scales pt_clust_5="13000.00000" pt_clust_6="13000.00000" pt_clust_7="13000.00000" pt_clust_8="13000.00000" pt_clust_9="36.52998"></scales>
<clustering>
<clus scale="   36.530">  2  9  1 -1</clus>
<clus scale="   80.621">  5  6 -1 -1</clus>
<clus scale="   80.993">  2  5  1 -1</clus>
<clus scale="   93.750">  7  8 -1 -1</clus>
<clus scale="   36.530">  2  5  1 -1</clus>
</clustering>
</event>
<event>
 9    2  0.3764910E-005  0.1322482E+03  0.7546771E-02  0.1226875E+00
         21   -1    0    0  501  502  0.00000000000E+00  0.00000000000E+00  0.25134992262E+03  0.25134992262E+03  0.00000000000E+00 0.  1.
          2   -1    0    0  502    0 -0.00000000000E+00 -0.00000000000E+00 -0.19302646776E+03  0.19302646776E+03  0.00000000000E+00 0. -1.
         24    2    1    2    0    0 -0.29618664333E+02 -0.10611328082E+03 -0.10913362011E+03  0.17492444699E+03  0.80938998463E+02 0.  0.
         23    2    1    2    0    0  0.64956336917E+02  0.34326347167E+02  0.50958893807E+02  0.12812274909E+03  0.91766040345E+02 0.  0.
        -11    1    3    3    0    0  0.22614578546E+02 -0.49282730214E+02 -0.21994608451E+02  0.58514694403E+02  0.00000000000E+00 0.  1.
         12    1    3    3    0    0 -0.52233242879E+02 -0.56830550609E+02 -0.87139011657E+02  0.11640975258E+03  0.00000000000E+00 0. -1.
        -11    1    4    4    0    0 -0.22491782824E+02  0.17046830932E+02  0.15425917496E+02  0.32162612923E+02  0.00000000000E+00 0. -1.
         11    1    4    4    0    0  0.87448119741E+02  0.17279516235E+02  0.35532976311E+02  0.95960136167E+02  0.00000000000E+00 0.  1.
          1    1    1    2  501    0 -0.35337672584E+02  0.71786933655E+02  0.11649818117E+03  0.14132919430E+03  0.00000000000E+00 0. -1.
<scales pt_clust_5="13000.00000" pt_clust_6="13000.00000" pt_clust_7="13000.00000" pt_clust_8="13000.00000" pt_clust_9="80.01322"></scales>
<clustering>
<clus scale="   80.013">  1  9  2 -1</clus>
<clus scale="   80.939">  5  6 -1 -1</clus>
<clus scale="   91.766">  7  8 -1 -1</clus>
<clus scale="  124.979">  2  5  1 -1</clus>
<clus scale="   80.013">  1  5  2 -1</clus>
</clustering>
</event>
<event>
 9    2  0.3764910E-005  0.1001874E+03  0.7546771E-02  0.1289231E+00
         21   -1    0    0  501  502  0.00000000000E+00  0.00000000000E+00  0.26012992535E+03  0.26012992535E+03  0.00000000000E+00 0. -1.
         -1   -1    0    0    0  501 -0.00000000000E+00 -0.00000000000E+00 -0.56501790237E+02  0.56501790237E+02  0.00000000000E+00 0.  1.
         23    2    1    2    0    0  0.12928551229E+02  0.48078840623E+02  0.88201495019E+02  0.14011528289E+03  0.96819762568E+02 0.  0.
         24    2    1    2    0    0 -0.36423398074E+00 -0.23438169898E+01  0.96773013147E+02  0.12555063777E+03  0.79951988252E+02 0.  0.
        -11    1    4    4    0    0  0.13079711003E+02 -0.35291399509E+02  0.24264750495E+02  0.44781020933E+02  0.00000000000E+00 0.  1.
         12    1    4    4    0    0 -0.13443944983E+02  0.32947582519E+02  0.72508262652E+02  0.80769616833E+02  0.00000000000E+00 0. -1.
        -13    1    3    3    0    0  0.32916605693E+02  0.67843691562E+02  0.81860935007E+02  0.11129906601E+03  0.00000000000E+00 0. -1.
         13    1    3    3    0    0 -0.19988054464E+02 -0.19764850940E+02  0.63405600124E+01  0.28816216879E+02  0.00000000000E+00 0.  1.
         -2    1    1    2    0  502 -0.12564317248E+02 -0.45735023633E+02  0.18653626949E+02  0.50965794931E+02  0.00000000000E+00 0.  1.
<scales pt_clust_5="13000.00000" pt_clust_6="13000.00000" pt_clust_7="13000.00000" pt_clust_8="13000.00000" pt_clust_9="47.42949"></scales>
<clustering>
<clus scale="   47.429">  1  9  2 -1</clus>
<clus scale="   79.952">  5  6 -1 -1</clus>
<clus scale="   83.999">  1  5  2 -1</clus>
<clus scale="   96.820">  7  8 -1 -1</clus>
<clus scale="   47.429">  1  5  2 -1</clus>
</clustering>
</event>
<event>
 9    2  0.4906914E-005  0.9507509E+02  0.7546771E-02  0.1296229E+00
         21   -1    0    0  501  502  0.00000000000E+00  0.00000000000E+00  0.63428863146E+02  0.63428863146E+02  0.00000000000E+00 0. -1.
         -3   -1    0    0    0  501 -0.00000000000E+00 -0.00000000000E+00 -0.37257489823E+03  0.37257489823E+03  0.00000000000E+00 0.  1.
         24    2    1    2    0    0 -0.25183862591E+02  0.96043900865E+01 -0.15083847274E+03  0.17313146339E+03  0.80596448518E+02 0.  0.
         23    2    1    2    0    0  0.39269015826E+02 -0.30670890526E+02 -0.29519780121E+00  0.10284075006E+03  0.89963179144E+02 0.  0.
        -11    1    3    3    0    0 -0.51056230674E+02  0.12016076698E+02 -0.12876153542E+03  0.13903473592E+03  0.00000000000E+00 0.  1.
         12    1    3    3    0    0  0.25872368084E+02 -0.24116866119E+01 -0.22076937321E+02  0.34096727468E+02  0.00000000000E+00 0. -1.
        -13    1    4    4    0    0 -0.11417908035E+02  0.17629976040E+02  0.20956918766E+02  0.29671149679E+02  0.00000000000E+00 0.  1.
         13    1    4    4    0    0  0.50686923860E+02 -0.48300866566E+02 -0.21252116568E+02  0.73169600382E+02  0.00000000000E+00 0. -1.
         -4    1    1    2    0  502 -0.14085153235E+02  0.21066500439E+02 -0.15801236455E+03  0.16003154793E+03  0.00000000000E+00 0.  1.
<scales pt_clust_5="13000.00000" pt_clust_6="13000.00000" pt_clust_7="13000.00000" pt_clust_8="13000.00000" pt_clust_9="25.34146"></scales>
<clustering>
<clus scale="   25.341">  1  9  2 -1</clus>
<clus scale="   80.596">  5  6 -1 -1</clus>
<clus scale="   86.265">  2  5  1 -1</clus>
<clus scale="   89.963">  7  8 -1 -1</clus>
<clus scale="   25.341">  1  5  2 -1</clus>
</clustering>
</event>
<event>
 9    2  0.3764910E-005  0.1399808E+03  0.7546771E-02  0.1236755E+00
         21   -1    0    0  501  502  0.00000000000E+00  0.00000000000E+00  0.61255841376E+02  0.61255841376E+02  0.00000000000E+00 0.  1.
          2   -1    0    0  502    0 -0.00000000000E+00 -0.00000000000E+00 -0.57329947141E+03  0.57329947141E+03  0.00000000000E+00 0. -1.
         24    2    1    2    0    0  0.30942997869E+02  0.49507626701E+00 -0.28021160788E+03  0.29310969963E+03  0.80231144895E+02 0.  0.
         23    2    1    2    0    0 -0.65335558446E+02 -0.93894948394E+02 -0.10437901300E+03  0.17973397511E+03  0.91237749436E+02 0.  0.
        -11    1    3    3    0    0  0.56112096861E+02 -0.12342158628E+02 -0.17629877677E+03  0.18542425673E+03  0.00000000000E+00 0.  1.
         12    1    3    3    0    0 -0.25169098992E+02  0.12837234895E+02 -0.10391283111E+03  0.10768544291E+03  0.00000000000E+00 0. -1.
        -11    1    4    4    0    0  0.10990554836E+02 -0.33558318979E+02 -0.66561432905E+02  0.75348373696E+02  0.00000000000E+00 0. -1.
         11    1    4    4    0    0 -0.76326113283E+02 -0.60336629415E+02 -0.37817580096E+02  0.10438560141E+03  0.00000000000E+00 0.  1.
          1    1    1    2  501    0  0.34392560578E+02  0.93399872127E+02 -0.12745300916E+03  0.16171163805E+03  0.00000000000E+00 0. -1.
<scales pt_clust_5="13000.00000" pt_clust_6="13000.00000" pt_clust_7="13000.00000" pt_clust_8="13000.00000" pt_clust_9="106.16165"></scales>
<clustering>
<clus scale="   80.231">  5  6 -1 -1</clus>
<clus scale="   85.993">  2  5  1 -1</clus>
<clus scale="   91.238">  7  8 -1 -1</clus>
<clus scale="  106.162">  1  9  2 -1</clus>
<clus scale="  106.162">  1  5  2 -1</clus>
</clustering>
</event>
<event>
 9    2  0.3764910E-005  0.9395064E+02  0.7546771E-02  0.1297260E+00
         21   -1    0    0  501  502  0.00000000000E+00  0.00000000000E+00  0.22967115928E+03  0.22967115928E+03  0.00000000000E+00 0. -1.
          2   -1    0    0  502    0 -0.00000000000E+00 -0.00000000000E+00 -0.93669666090E+02  0.93669666090E+02  0.00000000000E+00 0. -1.
         24    2    1    2    0    0 -0.36472057188E+01  0.28568861018E+02  0.58872830341E+01  0.89477038214E+02  0.84510344553E+02 0.  0.
         23    2    1    2    0    0  0.16366645850E+02 -0.51029552350E+00  0.16388305888E+03  0.18815380575E+03  0.90972908783E+02 0.  0.
        -11    1    3    3    0    0 -0.16863202332E+02  0.13061108656E+02  0.42513831599E+02  0.47564545929E+02  0.00000000000E+00 0.  1.
         12    1    3    3    0    0  0.13215996613E+02  0.15507752362E+02 -0.36626548564E+02  0.41912492285E+02  0.00000000000E+00 0. -1.
        -11    1    4    4    0    0 -0.52941894133E+01 -0.43750455613E+02  0.78894393518E+02  0.90368446575E+02  0.00000000000E+00 0.  1.
         11    1    4    4    0    0  0.21660835263E+02  0.43240160089E+02  0.84988665367E+02  0.97785359178E+02  0.00000000000E+00 0. -1.
          1    1    1    2  501    0 -0.12719440131E+02 -0.28058565494E+02 -0.33768848732E+02  0.45709981399E+02  0.00000000000E+00 0. -1.
<scales pt_clust_5="13000.00000" pt_clust_6="13000.00000" pt_clust_7="13000.00000" pt_clust_8="13000.00000" pt_clust_9="30.80695"></scales>
<clustering>
<clus scale="   30.807">  1  9  2 -1</clus>
<clus scale="   84.510">  5  6 -1 -1</clus>
<clus scale="   87.708">  2  5  1 -1</clus>
<clus scale="   90.973">  7  8 -1 -1</clus>
<clus scale="   30.807">  1  5  2 -1</clus>
</clustering>
</event>
<event>
 9    2  0.3764910E-005  0.1204011E+03  0.7546771E-02  0.1245382E+00
         21   -1    0    0  501  502  0.00000000000E+00  0.00000000000E+00  0.46448750324E+02  0.46448750324E+02  0.00000000000E+00 0. -1.
          2   -1    0    0  502    0 -0.00000000000E+00 -0.00000000000E+00 -0.78302776867E+03  0.78302776867E+03  0.00000000000E+00 0. -1.
         23    2    1    2    0    0  0.11500945404E+02 -0.82111270515E+02 -0.27955054112E+03  0.30518244496E+03  0.90073787408E+02 0.  0.
         24    2    1    2    0    0 -0.10656965190E+03  0.36724310180E+02 -0.17480540694E+03  0.22305015871E+03  0.80552326710E+02 0.  0.
        -13    1    4    4    0    0 -0.84498385767E+02  0.82504146432E+01 -0.16524098047E+03  0.18577574698E+03  0.00000000000E+00 0.  1.
         14    1    4    4    0    0 -0.22071266133E+02  0.28473895537E+02 -0.95644264696E+01  0.37274411725E+02  0.00000000000E+00 0. -1.
        -13    1    3    3    0    0  0.69231566193E+01 -0.42913827881E+02 -0.25505868771E+03  0.25873627673E+03  0.00000000000E+00 0. -1.
         13    1    3    3    0    0  0.45777887851E+01 -0.39197442634E+02 -0.24491853411E+02  0.46446168224E+02  0.00000000000E+00 0.  1.
          1    1    1    2  501    0  0.95068706496E+02  0.45386960335E+02 -0.28222307029E+03  0.30124391533E+03  0.00000000000E+00 0. -1.
<scales pt_clust_5="13000.00000" pt_clust_6="13000.00000" pt_clust_7="13000.00000" pt_clust_8="13000.00000" pt_clust_9="105.34726"></scales>
<clustering>
<clus scale="   80.552">  5  6 -1 -1</clus>
<clus scale="   90.074">  7  8 -1 -1</clus>
<clus scale="  105.347">  1  9  2 -1</clus>
<clus scale="  113.454">  1  5  2 -1</clus>
<clus scale="  105.347">  1  5  2 -1</clus>
</clustering>
</event>
<event>
 9    2  0.3764910E-005  0.1069589E+03  0.7546771E-02  0.1270052E+00
         21   -1    0    0  501  502  0.00000000000E+00  0.00000000000E+00  0.78933950682E+02  0.78933950682E+02  0.00000000000E+00 0.  1.
         -3   -1    0    0    0  501 -0.00000000000E+00 -0.00000000000E+00 -0.21481045352E+03  0.21481045352E+03  0.00000000000E+00 0.  1.
         23    2    1    2    0    0 -0.20791184757E+02  0.31014756898E+02 -0.40293071551E+02  0.10510649175E+03  0.89608339369E+02 0.  0.
         24    2    1    2    0    0  0.47935503241E+02 -0.66923718622E+02 -0.53328713216E+02  0.12689871293E+03  0.80515433953E+02 0.  0.
        -11    1    4    4    0    0  0.30198029693E+02 -0.72509192683E+02 -0.92887158066E+01  0.79093515930E+02  0.00000000000E+00 0.  1.
         12    1    4    4    0    0  0.17737473548E+02  0.55854740602E+01 -0.44039997409E+02  0.47805196999E+02  0.00000000000E+00 0. -1.
        -13    1    3    3    0    0  0.16401235307E+02 -0.11465459022E+02 -0.44191260729E+02  0.48511079096E+02  0.00000000000E+00 0. -1.
         13    1    3    3    0    0 -0.37192420064E+02  0.42480215921E+02  0.38981891787E+01  0.56595412657E+02  0.00000000000E+00 0.  1.
         -4    1    1    2    0  502 -0.27144318485E+02  0.35908961724E+02 -0.42254718069E+02  0.61739199518E+02  0.00000000000E+00 0.  1.
<scales pt_clust_5="13000.00000" pt_clust_6="13000.00000" pt_clust_7="13000.00000" pt_clust_8="13000.00000" pt_clust_9="45.01410"></scales>
<clustering>
<clus scale="   45.014">  1  9  2 -1</clus>
<clus scale="   80.515">  5  6 -1 -1</clus>
<clus scale="   89.608">  7  8 -1 -1</clus>
<clus scale="   99.465">  1  5  2 -1</clus>
<clus scale="   45.014">  1  5  2 -1</clus>
</clustering>
</event>
<event>
 9    2  0.3764910E-005  0.1156465E+03  0.7546771E-02  0.1263601E+00
          2   -1    0    0  502    0 -0.00000000000E+00  0.00000000000E+00  0.86331641886E+03  0.86331641886E+03  0.00000000000E+00 0. -1.
         21   -1    0    0  501  502  0.00000000000E+00 -0.00000000000E+00 -0.47241711661E+02  0.47241711661E+02  0.00000000000E+00 0.  1.
         23    2    1    2    0    0 -0.33548027351E+02  0.95317917124E+01  0.20327472115E+03  0.23344947918E+03  0.10936965703E+03 0.  0.
         24    2    1    2    0    0 -0.49248145847E+01 -0.74420378310E+02  0.72964782153E+02  0.13202816590E+03  0.80900745676E+02 0.  0.
        -11    1    4    4    0    0 -0.12534158250E+02 -0.90862820717E+02  0.57936144048E+02  0.10848849754E+03  0.00000000000E+00 0.  1.
         12    1    4    4    0    0  0.76093436657E+01  0.16442442407E+02  0.15028638106E+02  0.23539668363E+02  0.00000000000E+00 0. -1.
        -11    1    3    3    0    0 -0.36577690795E+02 -0.32284237350E+02  0.17784294276E+03  0.18441342613E+03  0.00000000000E+00 0. -1.
         11    1    3    3    0    0  0.30296634441E+01  0.41816029063E+02  0.25431778384E+02  0.49036053052E+02  0.00000000000E+00 0.  1.
          1    1    1    2  501    0  0.38472841936E+02  0.64888586597E+02  0.53983520390E+03  0.54508048544E+03  0.00000000000E+00 0. -1.
<scales pt_clust_5="13000.00000" pt_clust_6="13000.00000" pt_clust_7="13000.00000" pt_clust_8="13000.00000" pt_clust_9="75.43669"></scales>
<clustering>
<clus scale="   75.437">  2  9  1 -1</clus>
<clus scale="   80.901">  5  6 -1 -1</clus>
<clus scale="   89.204">  2  5  1 -1</clus>
<clus scale="  109.370">  7  8 -1 -1</clus>
<clus scale="   75.437">  2  5  1 -1</clus>
</clustering>
</event>
<event>
 9    2  0.3764910E-005  0.3775414E+03  0.7546771E-02  0.1051846E+00
         21   -1    0    0  501  502  0.00000000000E+00  0.00000000000E+00  0.81627967563E+02  0.81627967563E+02  0.00000000000E+00 0.  1.
          2   -1    0    0  502    0 -0.00000000000E+00 -0.00000000000E+00 -0.14306197318E+04  0.14306197318E+04  0.00000000000E+00 0. -1.
         24    2    1    2    0    0  0.17789358655E+03  0.13786222042E+03 -0.35814524333E+03  0.43066530539E+03  0.80947328510E+02 0.  0.
         23    2    1    2    0    0  0.93660354287E+02 -0.80146298377E+01 -0.30139924978E+03  0.32929290232E+03  0.93572493284E+02 0.  0.
        -13    1    3    3    0    0  0.11906604849E+03  0.13101675102E+03 -0.23704583100E+03  0.29585949190E+03  0.00000000000E+00 0.  1.
         14    1    3    3    0    0  0.58827538059E+02  0.68454694029E+01 -0.12109941233E+03  0.13480581350E+03  0.00000000000E+00 0. -1.
        -11    1    4    4    0    0  0.70992826591E+02 -0.34220986598E+01 -0.29745779199E+03  0.30583137544E+03  0.00000000000E+00 0. -1.
         11    1    4    4    0    0  0.22667527695E+02 -0.45925311779E+01 -0.39414577874E+01  0.23461526888E+02  0.00000000000E+00 0.  1.
          1    1    1    2  501    0 -0.27155394084E+03 -0.12984759058E+03 -0.68944727109E+03  0.75228949161E+03  0.00000000000E+00 0. -1.
<scales pt_clust_5="13000.00000" pt_clust_6="13000.00000" pt_clust_7="13000.00000" pt_clust_8="13000.00000" pt_clust_9="301.00171"></scales>
<clustering>
<clus scale="   80.947">  5  6 -1 -1</clus>
<clus scale="   93.572">  7  8 -1 -1</clus>
<clus scale="  122.929">  5  7 -1 -1</clus>
<clus scale="  301.002">  1  9  2 -1</clus>
<clus scale="  301.002">  1  5  2 -1</clus>
</clustering>
</event>
<event>
 9    2  0.3764910E-005  0.2607933E+03  0.7546771E-02  0.1140648E+00
          2   -1    0    0  502    0 -0.00000000000E+00  0.00000000000E+00  0.68409304488E+03  0.68409304488E+03  0.00000000000E+00 0. -1.
         21   -1    0    0  501  502  0.00000000000E+00 -0.00000000000E+00 -0.14534027375E+03  0.14534027375E+03  0.00000000000E+00 0. -1.
         23    2    1    2    0    0 -0.61621685540E+02 -0.28572188394E+02  0.12219108240E+03  0.16581933531E+03  0.89172805646E+02 0.  0.
         24    2    1    2    0    0  0.10705046782E+03 -0.22222854320E+03  0.17862475666E+03  0.31493251712E+03  0.80189516592E+02 0.  0.
        -13    1    4    4    0    0  0.23260820751E+02 -0.15373406022E+01  0.16400853303E+02  0.28502932958E+02  0.00000000000E+00 0.  1.
         14    1    4    4    0    0  0.83789647072E+02 -0.22069120260E+03  0.16222390336E+03  0.28642958416E+03  0.00000000000E+00 0. -1.
        -11    1    3    3    0    0 -0.38904437430E+02  0.14808935015E+02  0.10658142269E+03  0.11442228572E+03  0.00000000000E+00 0. -1.
         11    1    3    3    0    0 -0.22717248110E+02 -0.43381123410E+02  0.15609659709E+02  0.51397049587E+02  0.00000000000E+00 0.  1.
          1    1    1    2  501    0 -0.45428782283E+02  0.25080073160E+03  0.23793693208E+03  0.34868146620E+03  0.00000000000E+00 0. -1.
<scales pt_clust_5="13000.00000" pt_clust_6="13000.00000" pt_clust_7="13000.00000" pt_clust_8="13000.00000" pt_clust_9="248.15887"></scales>
<clustering>
<clus scale="   80.190">  5  6 -1 -1</clus>
<clus scale="   89.173">  7  8 -1 -1</clus>
<clus scale="  112.095">  1  7  2 -1</clus>
<clus scale="  248.159">  2  9  1 -1</clus>
<clus scale="  248.159">  2  5  1 -1</clus>
</clustering>
</event>
<event>
 9    2  0.3764910E-005  0.1244206E+03  0.7546771E-02  0.1239383E+00
          2   -1    0    0  502    0 -0.00000000000E+00  0.00000000000E+00  0.14786107532E+03  0.14786107532E+03  0.00000000000E+00 0. -1.
         21   -1    0    0  501  502  0.00000000000E+00 -0.00000000000E+00 -0.35293436056E+03  0.35293436056E+03  0.00000000000E+00 0. -1.
         23    2    1    2    0    0  0.70611081359E+02  0.61369978979E+02  0.81684247428E+02  0.15463256544E+03  0.92123367756E+02 0.  0.
         24    2    1    2    0    0 -0.59428258475E+02 -0.18461326439E+02 -0.66645927274E+02  0.12162929429E+03  0.80495137291E+02 0.  0.
        -13    1    4    4    0    0 -0.78004792875E+02 -0.25098713682E+02 -0.51839046002E+02  0.96963806806E+02  0.00000000000E+00 0.  1.
         14    1    4    4    0    0  0.18576534400E+02  0.66373872435E+01 -0.14806881272E+02  0.24665487482E+02  0.00000000000E+00 0. -1.
        -11    1    3    3    0    0  0.53136960041E+02  0.44780184035E+02  0.10179216989E+03  0.12324953248E+03  0.00000000000E+00 0. -1.
         11    1    3    3    0    0  0.17474121318E+02  0.16589794943E+02 -0.20107922465E+02  0.31383032963E+02  0.00000000000E+00 0.  1.
          1    1    1    2  501    0 -0.11182822884E+02 -0.42908652540E+02 -0.22011160539E+03  0.22453357615E+03  0.00000000000E+00 0. -1.
<scales pt_clust_5="13000.00000" pt_clust_6="13000.00000" pt_clust_7="13000.00000" pt_clust_8="13000.00000" pt_clust_9="44.34194"></scales>
<clustering>
<clus scale="   44.342">  2  9  1 -1</clus>
<clus scale="   80.495">  5  6 -1 -1</clus>
<clus scale="   92.123">  7  8 -1 -1</clus>
<clus scale="  116.074">  2  5  1 -1</clus>
<clus scale="   44.342">  2  5  1 -1</clus>
</clustering>
</event>
<event>
 9    2  0.3764910E-005  0.1987469E+03  0.7546771E-02  0.1176136E+00
         21   -1    0    0  501  502  0.00000000000E+00  0.00000000000E+00  0.51792346226E+02  0.51792346226E+02  0.00000000000E+00 0.  1.
          2   -1    0    0  502    0 -0.00000000000E+00 -0.00000000000E+00 -0.11998205797E+04  0.11998205797E+04  0.00000000000E+00 0. -1.
         23    2    1    2    0    0  0.25768197292E+02  0.56700336207E+02 -0.21398628672E+03  0.24087151352E+03  0.91378482172E+02 0.  0.
         24    2    1    2    0    0 -0.16040402331E+03 -0.13369518760E+03 -0.45214790008E+03  0.50450343970E+03  0.80511758385E+02 0.  0.
        -11    1    4    4    0    0 -0.10527156105E+03 -0.10779456120E+03 -0.23649953087E+03  0.28041718402E+03  0.00000000000E+00 0.  1.
         12    1    4    4    0    0 -0.55132462267E+02 -0.25900626401E+02 -0.21564836920E+03  0.22408625568E+03  0.00000000000E+00 0. -1.
        -13    1    3    3    0    0  0.51945135745E+02  0.20105187644E+02 -0.16597677934E+03  0.17507371869E+03  0.00000000000E+00 0. -1.
         13    1    3    3    0    0 -0.26176938452E+02  0.36595148563E+02 -0.48009507379E+02  0.65797794825E+02  0.00000000000E+00 0.  1.
          1    1    1    2  501    0  0.13463582602E+03  0.76994851392E+02 -0.48189404666E+03  0.50623797269E+03  0.00000000000E+00 0. -1.
<scales pt_clust_5="13000.00000" pt_clust_6="13000.00000" pt_clust_7="13000.00000" pt_clust_8="13000.00000" pt_clust_9="181.70913"></scales>
<clustering>
<clus scale="   80.512">  5  6 -1 -1</clus>
<clus scale="   91.378">  7  8 -1 -1</clus>
<clus scale="  110.585">  2  7  1 -1</clus>
<clus scale="  181.709">  1  9  2 -1</clus>
<clus scale="  181.709">  1  5  2 -1</clus>
</clustering>
</event>
<event>
 9    2  0.3764910E-005  0.1103235E+03  0.7546771E-02  0.1268609E+00
          2   -1    0    0  502    0 -0.00000000000E+00  0.00000000000E+00  0.46653012567E+03  0.46653012567E+03  0.00000000000E+00 0. -1.
         21   -1    0    0  501  502  0.00000000000E+00 -0.00000000000E+00 -0.18923891269E+03  0.18923891269E+03  0.00000000000E+00 0. -1.
         23    2    1    2    0    0 -0.32125570340E+02 -0.40653412240E+01  0.30342216412E+03  0.32147657815E+03  0.10116126407E+03 0.  0.
         24    2    1    2    0    0  0.61411843706E+02  0.42388461905E+02  0.12996951554E+03  0.17091038322E+03  0.82158918403E+02 0.  0.
        -11    1    4    4    0    0  0.50544681773E+02  0.31346404707E+01  0.11807811826E+03  0.12847969816E+03  0.00000000000E+00 0.  1.
         12    1    4    4    0    0  0.10867161933E+02  0.39253821434E+02  0.11891397277E+02  0.42430685062E+02  0.00000000000E+00 0. -1.
        -13    1    3    3    0    0 -0.27403568724E+02  0.44150577555E+02  0.10406786020E+03  0.11632002667E+03  0.00000000000E+00 0.  1.
         13    1    3    3    0    0 -0.47220016156E+01 -0.48215918779E+02  0.19935430392E+03  0.20515655147E+03  0.00000000000E+00 0. -1.
          1    1    1    2  501    0 -0.29286273367E+02 -0.38323120681E+02 -0.15610046668E+03  0.16338207700E+03  0.00000000000E+00 0. -1.
<scales pt_clust_5="13000.00000" pt_clust_6="13000.00000" pt_clust_7="13000.00000" pt_clust_8="13000.00000" pt_clust_9="48.23222"></scales>
<clustering>
<clus scale="   48.232">  2  9  1 -1</clus>
<clus scale="   82.159">  5  6 -1 -1</clus>
<clus scale="   93.208">  2  5  1 -1</clus>
<clus scale="  101.161">  7  8 -1 -1</clus>
<clus scale="   48.232">  2  5  1 -1</clus>
</clustering>
</event>
<event>
 9    2  0.3764910E-005  0.9627155E+02  0.7546771E-02  0.1295413E+00
         21   -1    0    0  501  502  0.00000000000E+00  0.00000000000E+00  0.23633370584E+03  0.23633370584E+03  0.00000000000E+00 0.  1.
          4   -1    0    0  502    0 -0.00000000000E+00 -0.00000000000E+00 -0.21216721603E+03  0.21216721603E+03  0.00000000000E+00 0. -1.
         24    2    1    2    0    0  0.22715347177E+02  0.84040548651E+01 -0.18162283006E+03  0.20014357988E+03  0.80523195627E+02 0.  0.
         23    2    1    2    0    0 -0.31941171616E+02 -0.38527597299E+02  0.17460524088E+03  0.20402912944E+03  0.92931594841E+02 0.  0.
        -13    1    3    3    0    0 -0.16682610781E+02  0.20496335199E+02 -0.19442238535E+02  0.32808686324E+02  0.00000000000E+00 0.  1.
         14    1    3    3    0    0  0.39397957959E+02 -0.12092280334E+02 -0.16218059153E+03  0.16733489356E+03  0.00000000000E+00 0. -1.
        -11    1    4    4    0    0 -0.52670623841E+02 -0.47828906368E+02  0.81470396407E+02  0.10816295295E+03  0.00000000000E+00 0.  1.
         11    1    4    4    0    0  0.20729452225E+02  0.93013090687E+01  0.93134844469E+02  0.95866176487E+02  0.00000000000E+00 0. -1.
          3    1    1    2  501    0  0.92258244385E+01  0.30123542434E+02  0.31184078994E+02  0.44328212552E+02  0.00000000000E+00 0. -1.
<scales pt_clust_5="13000.00000" pt_clust_6="13000.00000" pt_clust_7="13000.00000" pt_clust_8="13000.00000" pt_clust_9="31.50466"></scales>
<clustering>
<clus scale="   31.505">  1  9  2 -1</clus>
<clus scale="   80.523">  5  6 -1 -1</clus>
<clus scale="   84.356">  2  5  1 -1</clus>
<clus scale="   92.932">  7  8 -1 -1</clus>
<clus scale="   31.505">  1  5  2 -1</clus>
</clustering>
</event>
<event>
 9    2  0.3764910E-005  0.1028811E+03  0.7546771E-02  0.1278534E+00
         21   -1    0    0  501  502  0.00000000000E+00  0.00000000000E+00  0.69865296012E+02  0.69865296012E+02  0.00000000000E+00 0. -1.
         -3   -1    0    0    0  501 -0.00000000000E+00 -0.00000000000E+00 -0.19307913762E+03  0.19307913762E+03  0.00000000000E+00 0.  1.
         24    2    1    2    0    0 -0.45551798436E+02 -0.32557018552E+01 -0.68734867333E+02  0.11657997722E+03  0.82345875219E+02 0.  0.
         23    2    1    2    0    0  0.44837939849E+02  0.27294126759E+02 -0.60596893995E+02  0.12154945273E+03  0.91361237361E+02 0.  0.
        -11    1    3    3    0    0 -0.51302145763E+02 -0.31401343714E+02 -0.63342560487E+02  0.87351213592E+02  0.00000000000E+00 0.  1.
         12    1    3    3    0    0  0.57503473263E+01  0.28145641859E+02 -0.53923068459E+01  0.29228763627E+02  0.00000000000E+00 0. -1.
        -11    1    4    4    0    0  0.53236680711E+00 -0.24987003077E+02  0.63074783446E+01  0.25776307343E+02  0.00000000000E+00 0.  1.
         11    1    4    4    0    0  0.44305573042E+02  0.52281129836E+02 -0.66904372340E+02  0.95773145389E+02  0.00000000000E+00 0. -1.
         -4    1    1    2    0  502  0.71385858708E+00 -0.24038424904E+02  0.61179197205E+01  0.24815003681E+02  0.00000000000E+00 0.  1.
<scales pt_clust_5="13000.00000" pt_clust_6="13000.00000" pt_clust_7="13000.00000" pt_clust_8="13000.00000" pt_clust_9="24.04902"></scales>
<clustering>
<clus scale="   24.049">  1  9  2 -1</clus>
<clus scale="   82.346">  5  6 -1 -1</clus>
<clus scale="   91.361">  7  8 -1 -1</clus>
<clus scale="   94.966">  2  5  1 -1</clus>
<clus scale="   24.049">  1  5  2 -1</clus>
</clustering>
</event>
<event>
 9    2  0.3764910E-005  0.2232663E+03  0.7546771E-02  0.1161925E+00
          2   -1    0    0  502    0 -0.00000000000E+00  0.00000000000E+00  0.16244620649E+04  0.16244620649E+04  0.00000000000E+00 0. -1.
         21   -1    0    0  501  502  0.00000000000E+00 -0.00000000000E+00 -0.13956341434E+03  0.13956341434E+03  0.00000000000E+00 0. -1.
         23    2    1    2    0    0 -0.54101486350E+02 -0.74077210055E+01  0.25449614490E+03  0.27647540808E+03  0.93212222092E+02 0.  0.
         24    2    1    2    0    0 -0.41559292519E+02 -0.17981462286E+03  0.12593167518E+04  0.12753256044E+04  0.80723245884E+02 0.  0.
        -11    1    4    4    0    0  0.22716122038E+02 -0.27950498053E+02  0.19284509374E+03  0.19617972046E+03  0.00000000000E+00 0.  1.
         12    1    4    4    0    0 -0.64275414558E+02 -0.15186412481E+03  0.10664716581E+04  0.10791458839E+04  0.00000000000E+00 0. -1.
        -13    1    3    3    0    0 -0.44036530629E+02  0.33975778922E+02  0.19836691563E+03  0.20601699638E+03  0.00000000000E+00 0. -1.
         13    1    3    3    0    0 -0.10064955720E+02 -0.41383499928E+02  0.56129229275E+02  0.70458411698E+02  0.00000000000E+00 0.  1.
          1    1    1    2  501    0  0.95660778869E+02  0.18722234387E+03 -0.28914246176E+02  0.21222446675E+03  0.00000000000E+00 0. -1.
<scales pt_clust_5="13000.00000" pt_clust_6="13000.00000" pt_clust_7="13000.00000" pt_clust_8="13000.00000" pt_clust_9="208.16238"></scales>
<clustering>
<clus scale="   80.723">  5  6 -1 -1</clus>
<clus scale="   93.212">  7  8 -1 -1</clus>
<clus scale="  108.029">  1  7  2 -1</clus>
<clus scale="  208.162">  2  9  1 -1</clus>
<clus scale="  208.162">  2  5  1 -1</clus>
</clustering>
</event>
<event>
 9    2  0.3764910E-005  0.1266609E+03  0.7546771E-02  0.1234124E+00
          2   -1    0    0  502    0 -0.00000000000E+00  0.00000000000E+00  0.13462920052E+04  0.13462920052E+04  0.00000000000E+00 0. -1.
         21   -1    0    0  501  502  0.00000000000E+00 -0.00000000000E+00 -0.45351482608E+02  0.45351482608E+02  0.00000000000E+00 0.  1.
         23    2    1    2    0    0 -0.77966866082E+02  0.12728164467E+02  0.29971498060E+03  0.32238661935E+03  0.88674823721E+02 0.  0.
         24    2    1    2    0    0  0.11945012758E+03  0.87678450431E+02  0.20701696292E+03  0.26765246704E+03  0.82619468219E+02 0.  0.
        -11    1    4    4    0    0  0.13224168142E+03  0.78089826423E+02  0.18994267205E+03  0.24426236296E+03  0.00000000000E+00 0.  1.
         12    1    4    4    0    0 -0.12791553842E+02  0.95886240081E+01  0.17074290873E+02  0.23390104080E+02  0.00000000000E+00 0. -1.
        -13    1    3    3    0    0 -0.45868519427E+02 -0.34352395592E+02  0.10643041876E+03  0.12087779860E+03  0.00000000000E+00 0.  1.
         13    1    3    3    0    0 -0.32098346654E+02  0.47080560058E+02  0.19328456184E+03  0.20150882075E+03  0.00000000000E+00 0. -1.
          1    1    1    2  501    0 -0.41483261495E+02 -0.10040661490E+03  0.79420857908E+03  0.80160440143E+03  0.00000000000E+00 0. -1.
<scales pt_clust_5="13000.00000" pt_clust_6="13000.00000" pt_clust_7="13000.00000" pt_clust_8="13000.00000" pt_clust_9="108.63867"></scales>
<clustering>
<clus scale="   82.619">  5  6 -1 -1</clus>
<clus scale="   88.675">  7  8 -1 -1</clus>
<clus scale="  108.639">  2  9  1 -1</clus>
<clus scale="  122.498">  2  5  1 -1</clus>
<clus scale="  108.639">  2  5  1 -1</clus>
</clustering>
</event>
<event>
 9    2  0.3764910E-005  0.1025523E+03  0.7546771E-02  0.1281261E+00
         -1   -1    0    0    0  501 -0.00000000000E+00  0.00000000000E+00  0.88210335515E+02  0.88210335515E+02  0.00000000000E+00 0.  1.
         21   -1    0    0  501  502  0.00000000000E+00 -0.00000000000E+00 -0.29708065612E+03  0.29708065612E+03  0.00000000000E+00 0.  1.
         23    2    1    2    0    0  0.55384080838E+02  0.72193443752E+01 -0.51441542261E+01  0.10848298946E+03  0.92857855541E+02 0.  0.
         24    2    1    2    0    0 -0.12183494182E+02  0.60910117895E+02 -0.79696507824E+02  0.12885101343E+03  0.79953550961E+02 0.  0.
        -11    1    4    4    0    0  0.32344458958E+02  0.13498503663E+02 -0.37450799247E+02  0.51292650455E+02  0.00000000000E+00 0.  1.
         12    1    4    4    0    0 -0.44527953140E+02  0.47411614232E+02 -0.42245708577E+02  0.77558362980E+02  0.00000000000E+00 0. -1.
        -11    1    3    3    0    0  0.33368101196E+02  0.14820890636E+02  0.42149913785E+02  0.55764721902E+02  0.00000000000E+00 0.  1.
         11    1    3    3    0    0  0.22015979642E+02 -0.76015462610E+01 -0.47294068011E+02  0.52718267557E+02  0.00000000000E+00 0. -1.
         -2    1    1    2    0  502 -0.43200586655E+02 -0.68129462270E+02 -0.12402965855E+03  0.14795698874E+03  0.00000000000E+00 0.  1.
<scales pt_clust_5="13000.00000" pt_clust_6="13000.00000" pt_clust_7="13000.00000" pt_clust_8="13000.00000" pt_clust_9="80.67165"></scales>
<clustering>
<clus scale="   79.954">  5  6 -1 -1</clus>
<clus scale="   80.672">  2  9  1 -1</clus>
<clus scale="   91.033">  2  5  1 -1</clus>
<clus scale="   92.858">  7  8 -1 -1</clus>
<clus scale="   80.672">  2  5  1 -1</clus>
</clustering>
</event>
<event>
 9    2  0.3764910E-005  0.9979520E+02  0.7546771E-02  0.1285010E+00
         21   -1    0    0  501  502  0.00000000000E+00  0.00000000000E+00  0.32174744435E+03  0.32174744435E+03  0.00000000000E+00 0.  1.
          4   -1    0    0  502    0 -0.00000000000E+00 -0.00000000000E+00 -0.16546998484E+03  0.16546998484E+03  0.00000000000E+00 0. -1.
         23    2    1    2    0    0  0.41903015779E+02 -0.56657339776E+01 -0.13109410809E+03  0.16431430510E+03  0.89585503360E+02 0.  0.
         24    2    1    2    0    0 -0.68772544598E+02  0.22299898499E+02  0.25755426590E+03  0.27945501147E+03  0.80832884347E+02 0.  0.
        -13    1    4    4    0    0 -0.67393575675E+02  0.39623309952E+02  0.24710519197E+03  0.25917730732E+03  0.00000000000E+00 0.  1.
         14    1    4    4    0    0 -0.13789689239E+01 -0.17323411454E+02  0.10449073934E+02  0.20277704154E+02  0.00000000000E+00 0. -1.
        -13    1    3    3    0    0  0.56718927879E+02 -0.24201084429E+02 -0.48718039486E+02  0.78588654643E+02  0.00000000000E+00 0. -1.
         13    1    3    3    0    0 -0.14815912101E+02  0.18535350451E+02 -0.82376068605E+02  0.85725650459E+02  0.00000000000E+00 0.  1.
          3    1    1    2  501    0  0.26869528820E+02 -0.16634164521E+02  0.29817301710E+02  0.43448112613E+02  0.00000000000E+00 0. -1.
<scales pt_clust_5="13000.00000" pt_clust_6="13000.00000" pt_clust_7="13000.00000" pt_clust_8="13000.00000" pt_clust_9="31.60169"></scales>
<clustering>
<clus scale="   31.602">  1  9  2 -1</clus>
<clus scale="   80.833">  5  6 -1 -1</clus>
<clus scale="   89.586">  7  8 -1 -1</clus>
<clus scale="   92.019">  1  5  2 -1</clus>
<clus scale="   31.602">  1  5  2 -1</clus>
</clustering>
</event>
<event>
 9    2  0.3764910E-005  0.1952005E+03  0.7546771E-02  0.1161321E+00
         21   -1    0    0  501  502  0.00000000000E+00  0.00000000000E+00  0.59810562741E+03  0.59810562741E+03  0.00000000000E+00 0. -1.
          2   -1    0    0  502    0 -0.00000000000E+00 -0.00000000000E+00 -0.27345917912E+03  0.27345917912E+03  0.00000000000E+00 0. -1.
         24    2    1    2    0    0 -0.13734491576E+03 -0.40762546717E+02 -0.84267144196E+01  0.16414396612E+03  0.79668193132E+02 0.  0.
         23    2    1    2    0    0  0.14609205482E+03 -0.13255017502E+03 -0.10036214140E+03  0.24053758433E+03  0.94198368716E+02 0.  0.
        -11    1    3    3    0    0 -0.75109311319E+02 -0.20611668852E+02  0.35244825902E+02  0.85489457201E+02  0.00000000000E+00 0.  1.
         12    1    3    3    0    0 -0.62235604438E+02 -0.20150877864E+02 -0.43671540321E+02  0.78654508914E+02  0.00000000000E+00 0. -1.
        -13    1    4    4    0    0  0.93710719623E+02 -0.21991452059E+02 -0.43549278551E+02  0.10564971651E+03  0.00000000000E+00 0.  1.
         13    1    4    4    0    0  0.52381335193E+02 -0.11055872296E+03 -0.56812862850E+02  0.13488786782E+03  0.00000000000E+00 0. -1.
          1    1    1    2  501    0 -0.87471390595E+01  0.17331272174E+03  0.43343530411E+03  0.46688325608E+03  0.00000000000E+00 0. -1.
<scales pt_clust_5="13000.00000" pt_clust_6="13000.00000" pt_clust_7="13000.00000" pt_clust_8="13000.00000" pt_clust_9="170.96755"></scales>
<clustering>
<clus scale="   79.668">  5  6 -1 -1</clus>
<clus scale="   94.198">  7  8 -1 -1</clus>
<clus scale="  163.928">  2  5  1 -1</clus>
<clus scale="  170.968">  1  9  2 -1</clus>
<clus scale="  170.968">  1  5  2 -1</clus>
</clustering>
</event>
<event>
 9    2  0.3764910E-005  0.9389602E+02  0.7546771E-02  0.1299799E+00
         21   -1    0    0  501  502  0.00000000000E+00  0.00000000000E+00  0.32118106683E+02  0.32118106683E+02  0.00000000000E+00 0. -1.
          2   -1    0    0  502    0 -0.00000000000E+00 -0.00000000000E+00 -0.54188656470E+03  0.54188656470E+03  0.00000000000E+00 0. -1.
         24    2    1    2    0    0 -0.34048086349E+01  0.17742179166E+02 -0.22884003023E+03  0.24351765879E+03  0.81281689595E+02 0.  0.
         23    2    1    2    0    0  0.42374522597E+02 -0.10432051869E+02 -0.90507040940E+02  0.13598153417E+03  0.91624370691E+02 0.  0.
        -13    1    3    3    0    0  0.94071796612E+01  0.48187382887E+02 -0.15587164381E+03  0.16342119888E+03  0.00000000000E+00 0.  1.
         14    1    3    3    0    0 -0.12811988296E+02 -0.30445203721E+02 -0.72968386421E+02  0.80096459913E+02  0.00000000000E+00 0. -1.
        -13    1    4    4    0    0  0.54728242918E+02  0.13691500709E+02 -0.92990510692E+02  0.10876521890E+03  0.00000000000E+00 0. -1.
         13    1    4    4    0    0 -0.12353720320E+02 -0.24123552578E+02  0.24834697519E+01  0.27216315268E+02  0.00000000000E+00 0.  1.
          1    1    1    2  501    0 -0.38969713963E+02 -0.73101272972E+01 -0.19042138685E+03  0.19450547842E+03  0.00000000000E+00 0. -1.
<scales pt_clust_5="13000.00000" pt_clust_6="13000.00000" pt_clust_7="13000.00000" pt_clust_8="13000.00000" pt_clust_9="39.64944"></scales>
<clustering>
<clus scale="   39.649">  1  9  2 -1</clus>
<clus scale="   81.282">  5  6 -1 -1</clus>
<clus scale="   83.834">  2  5  1 -1</clus>
<clus scale="   91.624">  7  8 -1 -1</clus>
<clus scale="   39.649">  1  5  2 -1</clus>
</clustering>
</event>
<event>
 9    2  0.3764910E-005  0.1153113E+03  0.7546771E-02  0.1259188E+00
         21   -1    0    0  501  502  0.00000000000E+00  0.00000000000E+00  0.50494566128E+03  0.50494566128E+03  0.00000000000E+00 0. -1.
         -1   -1    0    0    0  501 -0.00000000000E+00 -0.00000000000E+00 -0.98757925301E+02  0.98757925301E+02  0.00000000000E+00 0.  1.
         23    2    1    2    0    0  0.15100225067E+02 -0.50846055532E+02 -0.27000705827E+02  0.10176702809E+03  0.82547875391E+02 0.  0.
         24    2    1    2    0    0  0.76397124243E+02 -0.20867572374E+01  0.35008212611E+03  0.36747352525E+03  0.81476509453E+02 0.  0.
        -11    1    4    4    0    0  0.24417570135E+02  0.15296537429E+02  0.26064799806E+02  0.38853256975E+02  0.00000000000E+00 0.  1.
         12    1    4    4    0    0  0.51979554108E+02 -0.17383294667E+02  0.32401732630E+03  0.32862026828E+03  0.00000000000E+00 0. -1.
        -13    1    3    3    0    0 -0.34154098976E+02 -0.18732439590E+02 -0.64724670445E+01  0.39487967781E+02  0.00000000000E+00 0.  1.
         13    1    3    3    0    0  0.49254324043E+02 -0.32113615942E+02 -0.20528238782E+02  0.62279060312E+02  0.00000000000E+00 0. -1.
         -2    1    1    2    0  502 -0.91497349310E+02  0.52932812769E+02  0.83106315699E+02  0.13446303324E+03  0.00000000000E+00 0.  1.
<scales pt_clust_5="13000.00000" pt_clust_6="13000.00000" pt_clust_7="13000.00000" pt_clust_8="13000.00000" pt_clust_9="81.59822"></scales>
<clustering>
<clus scale="   81.477">  5  6 -1 -1</clus>
<clus scale="   82.548">  7  8 -1 -1</clus>
<clus scale="   98.120">  2  7  1 -1</clus>
<clus scale="   81.598">  1  9  2 -1</clus>
<clus scale="   81.598">  1  5  2 -1</clus>
</clustering>
</event>
<event>
 9    2  0.4671020E-005  0.1081902E+03  0.7546771E-02  0.1269518E+00
         -3   -1    0    0    0  501 -0.00000000000E+00  0.00000000000E+00  0.27170003949E+03  0.27170003949E+03  0.00000000000E+00 0.  1.
         21   -1    0    0  501  502  0.00000000000E+00 -0.00000000000E+00 -0.18716613516E+03  0.18716613516E+03  0.00000000000E+00 0.  1.
         24    2    1    2    0    0  0.41308474124E+02 -0.23276459406E+02  0.20389988100E+03  0.23199327016E+03  0.99987660898E+02 0.  0.
         23    2    1    2    0    0 -0.10476575560E+02  0.27031666729E+02  0.10698473940E+02  0.93151294934E+02  0.87876258237E+02 0.  0.
        -13    1    3    3    0    0  0.59699701930E+02 -0.47307408559E+02  0.17152650291E+03  0.18767894532E+03  0.00000000000E+00 0.  1.
         14    1    3    3    0    0 -0.18391227805E+02  0.24030949153E+02  0.32373378083E+02  0.44314324839E+02  0.00000000000E+00 0. -1.
        -11    1    4    4    0    0 -0.40134893233E+02  0.18447742174E+01 -0.18766176268E+02  0.44343908471E+02  0.00000000000E+00 0. -1.
         11    1    4    4    0    0  0.29658317673E+02  0.25186892512E+02  0.29464650208E+02  0.48807386464E+02  0.00000000000E+00 0.  1.
         -4    1    1    2    0  502 -0.30831898564E+02 -0.37552073230E+01 -0.13006445060E+03  0.13372160956E+03  0.00000000000E+00 0.  1.
<scales pt_clust_5="13000.00000" pt_clust_6="13000.00000" pt_clust_7="13000.00000" pt_clust_8="13000.00000" pt_clust_9="31.05974"></scales>
<clustering>
<clus scale="   31.060">  2  9  1 -1</clus>
<clus scale="   87.876">  7  8 -1 -1</clus>
<clus scale="   97.107">  2  7  1 -1</clus>
<clus scale="   99.988">  5  6 -1 -1</clus>
<clus scale="   31.060">  2  5  1 -1</clus>
</clustering>
</event>
<event>
 9    2  0.3764910E-005  0.7388081E+03  0.7546771E-02  0.9653074E-01
          2   -1    0    0  502    0 -0.00000000000E+00  0.00000000000E+00  0.39216334377E+03  0.39216334377E+03  0.00000000000E+00 0. -1.
         21   -1    0    0  501  502  0.00000000000E+00 -0.00000000000E+00 -0.12998769375E+04  0.12998769375E+04  0.00000000000E+00 0. -1.
         24    2    1    2    0    0  0.39444232952E+03 -0.37573039787E+02 -0.56651810041E+03  0.69549690812E+03  0.76004647733E+02 0.  0.
         23    2    1    2    0    0  0.26205410977E+03 -0.10452794224E+02 -0.87147398031E+02  0.29096950016E+03  0.91032761623E+02 0.  0.
        -11    1    3    3    0    0  0.63047750479E+02 -0.43658695876E+01 -0.14579276542E+03  0.15890125898E+03  0.00000000000E+00 0.  1.
         12    1    3    3    0    0  0.33139457905E+03 -0.33207170200E+02 -0.42072533499E+03  0.53659564914E+03  0.00000000000E+00 0. -1.
        -11    1    4    4    0    0  0.85353203327E+02 -0.27041016142E+02 -0.68064910010E+02  0.11246874164E+03  0.00000000000E+00 0.  1.
         11    1    4    4    0    0  0.17670090644E+03  0.16588221918E+02 -0.19082488021E+02  0.17850075852E+03  0.00000000000E+00 0. -1.
          1    1    1    2  501    0 -0.65649643929E+03  0.48025834011E+02 -0.25404809529E+03  0.70557387300E+03  0.00000000000E+00 0. -1.
<scales pt_clust_5="13000.00000" pt_clust_6="13000.00000" pt_clust_7="13000.00000" pt_clust_8="13000.00000" pt_clust_9="658.25108"></scales>
<clustering>
<clus scale="   76.005">  5  6 -1 -1</clus>
<clus scale="   91.033">  7  8 -1 -1</clus>
<clus scale="  249.334">  5  7 -1 -1</clus>
<clus scale="  658.251">  2  9  1 -1</clus>
<clus scale="  658.251">  2  5  1 -1</clus>
</clustering>
</event>
<event>
 9    2  0.3764910E-005  0.1075631E+03  0.7546771E-02  0.1270348E+00
         21   -1    0    0  501  502  0.00000000000E+00  0.00000000000E+00  0.53752625617E+03  0.53752625617E+03  0.00000000000E+00 0.  1.
         -1   -1    0    0    0  501 -0.00000000000E+00 -0.00000000000E+00 -0.21987721358E+03  0.21987721358E+03  0.00000000000E+00 0.  1.
         23    2    1    2    0    0  0.53369934300E+02  0.19192285198E+02 -0.19741315196E+03  0.22532698681E+03  0.92647745347E+02 0.  0.
         24    2    1    2    0    0 -0.17460360574E+02 -0.10000109530E+02  0.22754699892E+03  0.24218170670E+03  0.80433052673E+02 0.  0.
        -11    1    4    4    0    0 -0.10473935627E+02 -0.45389176205E+02  0.13761122989E+03  0.14528155848E+03  0.00000000000E+00 0.  1.
         12    1    4    4    0    0 -0.69864249467E+01  0.35389066675E+02  0.89935769031E+02  0.96900148219E+02  0.00000000000E+00 0. -1.
        -13    1    3    3    0    0 -0.68407497005E+01  0.22110053073E+02 -0.49812206659E+01  0.23674096872E+02  0.00000000000E+00 0. -1.
         13    1    3    3    0    0  0.60210684001E+02 -0.29177678757E+01 -0.19243193129E+03  0.20165288993E+03  0.00000000000E+00 0.  1.
         -2    1    1    2    0  502 -0.35909573726E+02 -0.91921756678E+01  0.28751519562E+03  0.28989477624E+03  0.00000000000E+00 0.  1.
<scales pt_clust_5="13000.00000" pt_clust_6="13000.00000" pt_clust_7="13000.00000" pt_clust_8="13000.00000" pt_clust_9="37.06742"></scales>
<clustering>
<clus scale="   37.067">  1  9  2 -1</clus>
<clus scale="   80.433">  5  6 -1 -1</clus>
<clus scale="   92.648">  7  8 -1 -1</clus>
<clus scale="   97.240">  1  5  2 -1</clus>
<clus scale="   37.067">  1  5  2 -1</clus>
</clustering>
</event>
<event>
 9    2  0.3764910E-005  0.9565261E+02  0.7546771E-02  0.1299789E+00
          4   -1    0    0  502    0 -0.00000000000E+00  0.00000000000E+00  0.14722131970E+03  0.14722131970E+03  0.00000000000E+00 0. -1.
         21   -1    0    0  501  502  0.00000000000E+00 -0.00000000000E+00 -0.20727116796E+03  0.20727116796E+03  0.00000000000E+00 0. -1.
         24    2    1    2    0    0  0.13294766515E+02 -0.85214637032E+01  0.92544921015E+02  0.12239430027E+03  0.78526658990E+02 0.  0.
         23    2    1    2    0    0  0.97627095498E+00 -0.15209249207E+02 -0.22131470008E+02  0.98728469313E+02  0.95001233265E+02 0.  0.
        -13    1    3    3    0    0  0.43927194875E+02  0.66286093960E+01  0.63774410085E+02  0.77722019362E+02  0.00000000000E+00 0.  1.
         14    1    3    3    0    0 -0.30632428360E+02 -0.15150073099E+02  0.28770510930E+02  0.44672280906E+02  0.00000000000E+00 0. -1.
        -13    1    4    4    0    0  0.31933790081E+01 -0.38182431136E+02  0.25344649485E+02  0.45939601375E+02  0.00000000000E+00 0. -1.
         13    1    4    4    0    0 -0.22171080532E+01  0.22973181929E+02 -0.47476119493E+02  0.52788867938E+02  0.00000000000E+00 0.  1.
          3    1    1    2  501    0 -0.14271037470E+02  0.23730712910E+02 -0.13046329927E+03  0.13336971808E+03  0.00000000000E+00 0. -1.
<scales pt_clust_5="13000.00000" pt_clust_6="13000.00000" pt_clust_7="13000.00000" pt_clust_8="13000.00000" pt_clust_9="27.69132"></scales>
<clustering>
<clus scale="   27.691">  2  9  1 -1</clus>
<clus scale="   78.527">  5  6 -1 -1</clus>
<clus scale="   79.313">  1  5  2 -1</clus>
<clus scale="   95.001">  7  8 -1 -1</clus>
<clus scale="   27.691">  2  5  1 -1</clus>
</clustering>
</event>
<event>
 9    2  0.3764910E-005  0.2061224E+03  0.7546771E-02  0.1162569E+00
          4   -1    0    0  502    0 -0.00000000000E+00  0.00000000000E+00  0.12268978378E+03  0.12268978378E+03  0.00000000000E+00 0. -1.
         21   -1    0    0  501  502  0.00000000000E+00 -0.00000000000E+00 -0.64187943001E+03  0.64187943001E+03  0.00000000000E+00 0. -1.
         24    2    1    2    0    0 -0.74593486310E+02  0.78783458853E+02 -0.16113876050E+03  0.21037814618E+03  0.80760402819E+02 0.  0.
         23    2    1    2    0    0 -0.10840330812E+03 -0.11069872808E+03 -0.57892147145E+02  0.20120143671E+03  0.11456453126E+03 0.  0.
        -13    1    3    3    0    0 -0.84637893154E+02  0.86628635826E+02 -0.15347562779E+03  0.19550667975E+03  0.00000000000E+00 0.  1.
         14    1    3    3    0    0  0.10044406844E+02 -0.78451769736E+01 -0.76631327136E+01  0.14871466423E+02  0.00000000000E+00 0. -1.
        -11    1    4    4    0    0 -0.23364684135E+01 -0.82486964073E+02 -0.18306550811E+02  0.84526257041E+02  0.00000000000E+00 0.  1.
         11    1    4    4    0    0 -0.10606683971E+03 -0.28211764006E+02 -0.39585596334E+02  0.11667517967E+03  0.00000000000E+00 0. -1.
          3    1    1    2  501    0  0.18299679443E+03  0.31915269226E+02 -0.30015873858E+03  0.35298963091E+03  0.00000000000E+00 0. -1.
<scales pt_clust_5="13000.00000" pt_clust_6="13000.00000" pt_clust_7="13000.00000" pt_clust_8="13000.00000" pt_clust_9="171.35168"></scales>
<clustering>
<clus scale="   80.760">  5  6 -1 -1</clus>
<clus scale="  114.565">  7  8 -1 -1</clus>
<clus scale="  135.253">  1  5  2 -1</clus>
<clus scale="  171.352">  2  9  1 -1</clus>
<clus scale="  171.352">  2  5  1 -1</clus>
</clustering>
</event>
<event>
 9    2  0.3764910E-005  0.1250093E+03  0.7546771E-02  0.1237886E+00
         21   -1    0    0  501  502  0.00000000000E+00  0.00000000000E+00  0.38497629152E+03  0.38497629152E+03  0.00000000000E+00 0. -1.
         -3   -1    0    0    0  501 -0.00000000000E+00 -0.00000000000E+00 -0.90594821416E+02  0.90594821416E+02  0.00000000000E+00 0.  1.
         24    2    1    2    0    0  0.30566361203E+02  0.73298264560E+02  0.22217772240E+02  0.11563888532E+03  0.81066542850E+02 0.  0.
         23    2    1    2    0    0 -0.11040731258E+03 -0.56087750273E+02  0.17070682490E+03  0.22968524534E+03  0.90988358926E+02 0.  0.
        -13    1    3    3    0    0  0.12382160797E+02  0.88144547262E+02  0.23718468826E+02  0.92115931746E+02  0.00000000000E+00 0.  1.
         14    1    3    3    0    0  0.18184200407E+02 -0.14846282702E+02 -0.15006965857E+01  0.23522953572E+02  0.00000000000E+00 0. -1.
        -13    1    4    4    0    0 -0.20031307535E+01 -0.35494808384E+02  0.77422705005E+02  0.85194889550E+02  0.00000000000E+00 0. -1.
         13    1    4    4    0    0 -0.10840418183E+03 -0.20592941889E+02  0.93284119892E+02  0.14449035579E+03  0.00000000000E+00 0.  1.
         -4    1    1    2    0  502  0.79840951379E+02 -0.17210514287E+02  0.10145687297E+03  0.13024698227E+03  0.00000000000E+00 0.  1.
<scales pt_clust_5="13000.00000" pt_clust_6="13000.00000" pt_clust_7="13000.00000" pt_clust_8="13000.00000" pt_clust_9="81.67484"></scales>
<clustering>
<clus scale="   81.067">  5  6 -1 -1</clus>
<clus scale="   81.675">  1  9  2 -1</clus>
<clus scale="   90.988">  7  8 -1 -1</clus>
<clus scale="  117.984">  2  5  1 -1</clus>
<clus scale="   81.675">  1  5  2 -1</clus>
</clustering>
</event>
<event>
 9    2  0.3764910E-005  0.1099914E+03  0.7546771E-02  0.1265420E+00
         21   -1    0    0  501  502  0.00000000000E+00  0.00000000000E+00  0.68447983691E+02  0.68447983691E+02  0.00000000000E+00 0.  1.
          2   -1    0    0  502    0 -0.00000000000E+00 -0.00000000000E+00 -0.36421720095E+03  0.36421720095E+03  0.00000000000E+00 0. -1.
         24    2    1    2    0    0 -0.52660004930E+02  0.30700649147E+02 -0.23464959080E+03  0.25539109079E+03  0.80303006285E+02 0.  0.
         23    2    1    2    0    0  0.26495014147E+02 -0.57036283869E+02 -0.74277577780E+01  0.11199784118E+03  0.92375437169E+02 0.  0.
        -11    1    3    3    0    0  0.80991735148E+00  0.24267609143E+02 -0.13506890140E+02  0.27785048153E+02  0.00000000000E+00 0.  1.
         12    1    3    3    0    0 -0.53469922282E+02  0.64330400043E+01 -0.22114270066E+03  0.22760604264E+03  0.00000000000E+00 0. -1.
        -11    1    4    4    0    0 -0.84831612176E+01 -0.44798040184E+02  0.33655886348E+02  0.56670513624E+02  0.00000000000E+00 0.  1.
         11    1    4    4    0    0  0.34978175364E+02 -0.12238243686E+02 -0.41083644126E+02  0.55327327561E+02  0.00000000000E+00 0. -1.
          1    1    1    2  501    0  0.26164990784E+02  0.26335634722E+02 -0.53691868686E+02  0.65276252664E+02  0.00000000000E+00 0. -1.
<scales pt_clust_5="13000.00000" pt_clust_6="13000.00000" pt_clust_7="13000.00000" pt_clust_8="13000.00000" pt_clust_9="37.12376"></scales>
<clustering>
<clus scale="   37.124">  1  9  2 -1</clus>
<clus scale="   80.303">  5  6 -1 -1</clus>
<clus scale="   92.375">  7  8 -1 -1</clus>
<clus scale="  100.067">  2  5  1 -1</clus>
<clus scale="   37.124">  1  5  2 -1</clus>
</clustering>
</event>
<event>
 9    2  0.3764910E-005  0.1690805E+03  0.7546771E-02  0.1179223E+00
          2   -1    0    0  502    0 -0.00000000000E+00  0.00000000000E+00  0.15593298588E+04  0.15593298588E+04  0.00000000000E+00 0. -1.
         21   -1    0    0  501  502  0.00000000000E+00 -0.00000000000E+00 -0.45939164052E+02  0.45939164052E+02  0.00000000000E+00 0. -1.
         24    2    1    2    0    0 -0.96744850522E+02  0.94327653252E+02  0.10218250713E+04  0.10342007028E+04  0.84778210802E+02 0.  0.
         23    2    1    2    0    0  0.10972912575E+03 -0.13388939021E+03  0.49254725899E+03  0.52941875768E+03  0.87832618042E+02 0.  0.
        -13    1    3    3    0    0 -0.85586847896E+01  0.48196570917E+02  0.18086622687E+03  0.18737329734E+03  0.00000000000E+00 0.  1.
         14    1    3    3    0    0 -0.88186165733E+02  0.46131082335E+02  0.84095884448E+03  0.84682740549E+03  0.00000000000E+00 0. -1.
        -13    1    4    4    0    0  0.75518067552E+02 -0.12212896269E+03  0.45567402212E+03  0.47776278265E+03  0.00000000000E+00 0. -1.
         13    1    4    4    0    0  0.34211058194E+02 -0.11760427526E+02  0.36873236874E+02  0.51655975026E+02  0.00000000000E+00 0.  1.
          1    1    1    2  501    0 -0.12984275224E+02  0.39561736960E+02 -0.98163560148E+00  0.41649562336E+02  0.00000000000E+00 0. -1.
<scales pt_clust_5="13000.00000" pt_clust_6="13000.00000" pt_clust_7="13000.00000" pt_clust_8="13000.00000" pt_clust_9="41.63799"></scales>
<clustering>
<clus scale="   41.638">  2  9  1 -1</clus>
<clus scale="   84.778">  5  6 -1 -1</clus>
<clus scale="   87.833">  7  8 -1 -1</clus>
<clus scale="  167.514">  1  5  2 -1</clus>
<clus scale="   41.638">  2  5  1 -1</clus>
</clustering>
</event>
<event>
 9    2  0.3764910E-005  0.1560556E+03  0.7546771E-02  0.1195286E+00
          2   -1    0    0  502    0 -0.00000000000E+00  0.00000000000E+00  0.26774841382E+03  0.26774841382E+03  0.00000000000E+00 0. -1.
         21   -1    0    0  501  502  0.00000000000E+00 -0.00000000000E+00 -0.12247322861E+03  0.12247322861E+03  0.00000000000E+00 0.  1.
         24    2    1    2    0    0 -0.55876775459E+02 -0.11269810012E+03  0.14763224015E+03  0.20975726089E+03  0.79873364507E+02 0.  0.
         23    2    1    2    0    0  0.76355612374E+02  0.10258184022E+03 -0.20801955325E+01  0.15762148052E+03  0.92124863222E+02 0.  0.
        -13    1    3    3    0    0 -0.33512849021E+02 -0.54564257569E+02  0.18927897571E+02  0.66773007721E+02  0.00000000000E+00 0.  1.
         14    1    3    3    0    0 -0.22363926437E+02 -0.58133842550E+02  0.12870434258E+03  0.14298425317E+03  0.00000000000E+00 0. -1.
        -11    1    4    4    0    0  0.21564259875E+02  0.25700588793E+01 -0.32965605756E+02  0.39475988518E+02  0.00000000000E+00 0. -1.
         11    1    4    4    0    0  0.54791352500E+02  0.10001178134E+03  0.30885410224E+02  0.11814549200E+03  0.00000000000E+00 0.  1.
          1    1    1    2  501    0 -0.20478836916E+02  0.10116259900E+02 -0.27685940473E+00  0.22842901018E+02  0.00000000000E+00 0. -1.
<scales pt_clust_5="13000.00000" pt_clust_6="13000.00000" pt_clust_7="13000.00000" pt_clust_8="13000.00000" pt_clust_9="22.84122"></scales>
<clustering>
<clus scale="   22.841">  2  9  1 -1</clus>
<clus scale="   79.873">  5  6 -1 -1</clus>
<clus scale="   92.125">  7  8 -1 -1</clus>
<clus scale="  149.151">  1  5  2 -1</clus>
<clus scale="   22.841">  2  5  1 -1</clus>
</clustering>
</event>
<event>
 9    2  0.3764910E-005  0.9906451E+02  0.7546771E-02  0.1287636E+00
         21   -1    0    0  501  502  0.00000000000E+00  0.00000000000E+00  0.53559894964E+03  0.53559894964E+03  0.00000000000E+00 0.  1.
          2   -1    0    0  502    0 -0.00000000000E+00 -0.00000000000E+00 -0.52216730275E+02  0.52216730275E+02  0.00000000000E+00 0. -1.
         23    2    1    2    0    0 -0.40578725744E+02  0.31969480740E+00  0.17687783911E+02  0.10118658492E+03  0.90989736127E+02 0.  0.
         24    2    1    2    0    0  0.31652347161E+02  0.30213880213E+02  0.21207209628E+03  0.23101948961E+03  0.80502676472E+02 0.  0.
        -13    1    4    4    0    0  0.95751828937E+01  0.40526668062E+02  0.19911252318E+03  0.20342048038E+03  0.00000000000E+00 0.  1.
         14    1    4    4    0    0  0.22077164267E+02 -0.10312787849E+02  0.12959573102E+02  0.27599009227E+02  0.00000000000E+00 0. -1.
        -11    1    3    3    0    0  0.80165143689E+01 -0.27022044054E+02  0.32965365142E+02  0.43372464380E+02  0.00000000000E+00 0. -1.
         11    1    3    3    0    0 -0.48595240113E+02  0.27341738862E+02 -0.15277581231E+02  0.57814120540E+02  0.00000000000E+00 0.  1.
          1    1    1    2  501    0  0.89263785829E+01 -0.30533575020E+02  0.25362233917E+03  0.25560960538E+03  0.00000000000E+00 0. -1.
<scales pt_clust_5="13000.00000" pt_clust_6="13000.00000" pt_clust_7="13000.00000" pt_clust_8="13000.00000" pt_clust_9="31.81162"></scales>
<clustering>
<clus scale="   31.812">  1  9  2 -1</clus>
<clus scale="   80.503">  5  6 -1 -1</clus>
<clus scale="   89.528">  1  5  2 -1</clus>
<clus scale="   90.990">  7  8 -1 -1</clus>
<clus scale="   31.812">  1  5  2 -1</clus>
</clustering>
</event>
<event>
 9    2  0.3764910E-005  0.1625891E+03  0.7546771E-02  0.1215829E+00
          2   -1    0    0  502    0 -0.00000000000E+00  0.00000000000E+00  0.68015899563E+03  0.68015899563E+03  0.00000000000E+00 0. -1.
         21   -1    0    0  501  502  0.00000000000E+00 -0.00000000000E+00 -0.78457221793E+02  0.78457221793E+02  0.00000000000E+00 0. -1.
         24    2    1    2    0    0 -0.25683114133E+02 -0.33423870895E+01  0.15945179629E+03  0.18058403777E+03  0.80715088129E+02 0.  0.
         23    2    1    2    0    0  0.13445293245E+03  0.44094140672E+02  0.59094427487E+02  0.17765766207E+03  0.89711812173E+02 0.  0.
        -11    1    3    3    0    0 -0.20858510738E+02 -0.11185333311E+01 -0.15480044298E+00  0.20889053358E+02  0.00000000000E+00 0.  1.
         12    1    3    3    0    0 -0.48246033951E+01 -0.22238537583E+01  0.15960659674E+03  0.15969498441E+03  0.00000000000E+00 0. -1.
        -11    1    4    4    0    0  0.42665291568E+01  0.28604819425E+02  0.33181940015E+02  0.44016816202E+02  0.00000000000E+00 0.  1.
         11    1    4    4    0    0  0.13018640330E+03  0.15489321247E+02  0.25912487473E+02  0.13364084586E+03  0.00000000000E+00 0. -1.
          1    1    1    2  501    0 -0.10876981832E+03 -0.40751753582E+02  0.38315555006E+03  0.40037451759E+03  0.00000000000E+00 0. -1.
<scales pt_clust_5="13000.00000" pt_clust_6="13000.00000" pt_clust_7="13000.00000" pt_clust_8="13000.00000" pt_clust_9="135.59881"></scales>
<clustering>
<clus scale="   80.715">  5  6 -1 -1</clus>
<clus scale="   84.769">  1  5  2 -1</clus>
<clus scale="   89.712">  7  8 -1 -1</clus>
<clus scale="  135.599">  2  9  1 -1</clus>
<clus scale="  135.599">  2  5  1 -1</clus>
</clustering>
</event>
<event>
 9    2  0.3764910E-005  0.9634706E+02  0.7546771E-02  0.1292360E+00
         21   -1    0    0  501  502  0.00000000000E+00  0.00000000000E+00  0.79288782607E+02  0.79288782607E+02  0.00000000000E+00 0. -1.
          2   -1    0    0  502    0 -0.00000000000E+00 -0.00000000000E+00 -0.25512090944E+03  0.25512090944E+03  0.00000000000E+00 0. -1.
         24    2    1    2    0    0 -0.55541921777E+02 -0.18947625033E+02 -0.95019549000E+02  0.13819783770E+03  0.81400307632E+02 0.  0.
         23    2    1    2    0    0 -0.17975479954E+02  0.19783425014E+02 -0.93438988018E+01  0.93677572271E+02  0.89295449587E+02 0.  0.
        -13    1    3    3    0    0 -0.19960728272E+02 -0.45641647362E+02 -0.26282524395E+02  0.56323722672E+02  0.00000000000E+00 0.  1.
         14    1    3    3    0    0 -0.35581193505E+02  0.26694022329E+02 -0.68737024605E+02  0.81874115024E+02  0.00000000000E+00 0. -1.
        -11    1    4    4    0    0 -0.51801648320E+02  0.25768546758E+02 -0.12464973012E+02  0.59184493939E+02  0.00000000000E+00 0. -1.
         11    1    4    4    0    0  0.33826168365E+02 -0.59851217444E+01  0.31210742105E+01  0.34493078332E+02  0.00000000000E+00 0.  1.
          1    1    1    2  501    0  0.73517401731E+02 -0.83579998109E+00 -0.71468679028E+02  0.10253428208E+03  0.00000000000E+00 0. -1.
<scales pt_clust_5="13000.00000" pt_clust_6="13000.00000" pt_clust_7="13000.00000" pt_clust_8="13000.00000" pt_clust_9="73.52219"></scales>
<clustering>
<clus scale="   73.522">  1  9  2 -1</clus>
<clus scale="   81.400">  5  6 -1 -1</clus>
<clus scale="   89.079">  2  5  1 -1</clus>
<clus scale="   89.295">  7  8 -1 -1</clus>
<clus scale="   73.522">  1  5  2 -1</clus>
</clustering>
</event>
<event>
 9    2  0.3764910E-005  0.1221339E+03  0.7546771E-02  0.1242562E+00
         21   -1    0    0  501  502  0.00000000000E+00  0.00000000000E+00  0.17754721830E+03  0.17754721830E+03  0.00000000000E+00 0.  1.
          2   -1    0    0  502    0 -0.00000000000E+00 -0.00000000000E+00 -0.33622991466E+03  0.33622991466E+03  0.00000000000E+00 0. -1.
         23    2    1    2    0    0 -0.61902971234E+02  0.37525835311E+02 -0.12964235614E+02  0.11664617043E+03  0.90543312878E+02 0.  0.
         24    2    1    2    0    0  0.12161271955E+03  0.30762726136E+02  0.68753910334E+02  0.16426409149E+03  0.80743994764E+02 0.  0.
        -11    1    4    4    0    0  0.13167733732E+03  0.27091226446E+02  0.51515312601E+02  0.14396764618E+03  0.00000000000E+00 0.  1.
         12    1    4    4    0    0 -0.10064617761E+02  0.36714996899E+01  0.17238597733E+02  0.20296445316E+02  0.00000000000E+00 0. -1.
        -11    1    3    3    0    0 -0.47986831392E+00  0.50877617763E+02  0.53878792955E+01  0.51164357772E+02  0.00000000000E+00 0. -1.
         11    1    3    3    0    0 -0.61423102920E+02 -0.13351782453E+02 -0.18352114910E+02  0.65481812655E+02  0.00000000000E+00 0.  1.
          1    1    1    2  501    0 -0.59709748320E+02 -0.68288561447E+02 -0.21447237109E+03  0.23286687104E+03  0.00000000000E+00 0. -1.
<scales pt_clust_5="13000.00000" pt_clust_6="13000.00000" pt_clust_7="13000.00000" pt_clust_8="13000.00000" pt_clust_9="90.71158"></scales>
<clustering>
<clus scale="   80.744">  5  6 -1 -1</clus>
<clus scale="   90.543">  7  8 -1 -1</clus>
<clus scale="   90.712">  1  9  2 -1</clus>
<clus scale="  115.057">  1  5  2 -1</clus>
<clus scale="   90.712">  1  5  2 -1</clus>
</clustering>
</event>
<event>
 9    2  0.3764910E-005  0.9349148E+02  0.7546771E-02  0.1304995E+00
         -1   -1    0    0    0  501 -0.00000000000E+00  0.00000000000E+00  0.70920626545E+03  0.70920626545E+03  0.00000000000E+00 0.  1.
         21   -1    0    0  501  502  0.00000000000E+00 -0.00000000000E+00 -0.19847294477E+02  0.19847294477E+02  0.00000000000E+00 0.  1.
         24    2    1    2    0    0  0.47338944607E+01  0.92714843493E+01  0.44658661032E+03  0.45304840613E+03  0.75530706324E+02 0.  0.
         23    2    1    2    0    0 -0.23237682737E+02 -0.32318185978E+02  0.16924394662E+03  0.19675890274E+03  0.92120015723E+02 0.  0.
        -13    1    3    3    0    0  0.18892166466E+02 -0.27813156837E+02  0.14423043200E+03  0.14809761363E+03  0.00000000000E+00 0.  1.
         14    1    3    3    0    0 -0.14158272005E+02  0.37084641186E+02  0.30235617832E+03  0.30495079250E+03  0.00000000000E+00 0. -1.
        -13    1    4    4    0    0  0.26521472182E+02  0.67861478043E+01  0.17880518587E+02  0.32697908704E+02  0.00000000000E+00 0. -1.
         13    1    4    4    0    0 -0.49759154919E+02 -0.39104333782E+02  0.15136342803E+03  0.16406099403E+03  0.00000000000E+00 0.  1.
         -2    1    1    2    0  502  0.18503788276E+02  0.23046701629E+02  0.73528414044E+02  0.79246251068E+02  0.00000000000E+00 0.  1.
<scales pt_clust_5="13000.00000" pt_clust_6="13000.00000" pt_clust_7="13000.00000" pt_clust_8="13000.00000" pt_clust_9="29.55572"></scales>
<clustering>
<clus scale="   29.556">  2  9  1 -1</clus>
<clus scale="   75.531">  5  6 -1 -1</clus>
<clus scale="   77.197">  1  5  2 -1</clus>
<clus scale="   92.120">  7  8 -1 -1</clus>
<clus scale="   29.556">  2  5  1 -1</clus>
</clustering>
</event>
<event>
 9    2  0.3764910E-005  0.1316627E+03  0.7546771E-02  0.1229349E+00
         21   -1    0    0  501  502  0.00000000000E+00  0.00000000000E+00  0.10804745800E+03  0.10804745800E+03  0.00000000000E+00 0. -1.
         -1   -1    0    0    0  501 -0.00000000000E+00 -0.00000000000E+00 -0.21703364930E+03  0.21703364930E+03  0.00000000000E+00 0.  1.
         24    2    1    2    0    0 -0.93288254932E+02  0.20390170271E+02 -0.60189291939E+02  0.13793635323E+03  0.79279436967E+02 0.  0.
         23    2    1    2    0    0  0.67920123505E+02 -0.59402093584E+02 -0.21550600097E+02  0.13322042676E+03  0.95611201444E+02 0.  0.
        -11    1    3    3    0    0 -0.99918009078E+02  0.19656605265E+02 -0.71762411206E+02  0.12457862710E+03  0.00000000000E+00 0.  1.
         12    1    3    3    0    0  0.66297541461E+01  0.73356500687E+00  0.11573119268E+02  0.13357726125E+02  0.00000000000E+00 0. -1.
        -13    1    4    4    0    0  0.10026982311E+02 -0.59986934942E+02  0.17617949856E+02  0.63319545917E+02  0.00000000000E+00 0. -1.
         13    1    4    4    0    0  0.57893141195E+02  0.58484135827E+00 -0.39168549953E+02  0.69900880840E+02  0.00000000000E+00 0.  1.
         -2    1    1    2    0  502  0.25368131426E+02  0.39011923312E+02 -0.27246299272E+02  0.53924327317E+02  0.00000000000E+00 0.  1.
<scales pt_clust_5="13000.00000" pt_clust_6="13000.00000" pt_clust_7="13000.00000" pt_clust_8="13000.00000" pt_clust_9="46.53466"></scales>
<clustering>
<clus scale="   46.535">  1  9  2 -1</clus>
<clus scale="   79.279">  5  6 -1 -1</clus>
<clus scale="   95.611">  7  8 -1 -1</clus>
<clus scale="  120.328">  2  5  1 -1</clus>
<clus scale="   46.535">  1  5  2 -1</clus>
</clustering>
</event>
<event>
 9    2  0.3764910E-005  0.9584700E+02  0.7546771E-02  0.1296703E+00
          2   -1    0    0  502    0 -0.00000000000E+00  0.00000000000E+00  0.34180358369E+03  0.34180358369E+03  0.00000000000E+00 0. -1.
         21   -1    0    0  501  502  0.00000000000E+00 -0.00000000000E+00 -0.60365916711E+02  0.60365916711E+02  0.00000000000E+00 0. -1.
         24    2    1    2    0    0  0.19241597771E+02  0.13557944832E+01  0.10728190102E+03  0.13456653593E+03  0.78909245603E+02 0.  0.
         23    2    1    2    0    0 -0.45855380823E+02 -0.34548362875E+02  0.23278202586E+02  0.11084174741E+03  0.91911440670E+02 0.  0.
        -13    1    3    3    0    0  0.76173994642E+01  0.24454423631E+02  0.14861388616E+01  0.25656426455E+02  0.00000000000E+00 0.  1.
         14    1    3    3    0    0  0.11624198307E+02 -0.23098629148E+02  0.10579576216E+03  0.10891010947E+03  0.00000000000E+00 0. -1.
        -13    1    4    4    0    0  0.26671229174E+02 -0.88189254773E+01 -0.56042225438E+01  0.28644985993E+02  0.00000000000E+00 0.  1.
         13    1    4    4    0    0 -0.72526609997E+02 -0.25729437397E+02  0.28882425130E+02  0.82196761419E+02  0.00000000000E+00 0. -1.
          1    1    1    2  501    0  0.26613783052E+02  0.33192568391E+02  0.15087756338E+03  0.15676121706E+03  0.00000000000E+00 0. -1.
<scales pt_clust_5="13000.00000" pt_clust_6="13000.00000" pt_clust_7="13000.00000" pt_clust_8="13000.00000" pt_clust_9="42.54459"></scales>
<clustering>
<clus scale="   42.545">  2  9  1 -1</clus>
<clus scale="   78.909">  5  6 -1 -1</clus>
<clus scale="   83.460">  1  5  2 -1</clus>
<clus scale="   91.911">  7  8 -1 -1</clus>
<clus scale="   42.545">  2  5  1 -1</clus>
</clustering>
</event>
<event>
 9    2  0.3764910E-005  0.1212583E+03  0.7546771E-02  0.1244319E+00
          2   -1    0    0  502    0 -0.00000000000E+00  0.00000000000E+00  0.11421974298E+04  0.11421974298E+04  0.00000000000E+00 0. -1.
         21   -1    0    0  501  502  0.00000000000E+00 -0.00000000000E+00 -0.19606942682E+02  0.19606942682E+02  0.00000000000E+00 0. -1.
         24    2    1    2    0    0 -0.58792976710E+02 -0.56464192468E+02  0.44848638659E+03  0.46331620909E+03  0.82927989882E+02 0.  0.
         23    2    1    2    0    0  0.79776588438E+01  0.83426357001E+02  0.45941633348E+03  0.47622707331E+03  0.93301971042E+02 0.  0.
        -11    1    3    3    0    0  0.15693773448E+02 -0.23342530372E+02  0.58627591623E+02  0.65025862152E+02  0.00000000000E+00 0.  1.
         12    1    3    3    0    0 -0.74486750158E+02 -0.33121662096E+02  0.38985879497E+03  0.39829034693E+03  0.00000000000E+00 0. -1.
        -13    1    4    4    0    0 -0.33004353165E+02  0.94497682037E+00  0.13615002277E+03  0.14009642754E+03  0.00000000000E+00 0.  1.
         13    1    4    4    0    0  0.40982012009E+02  0.82481380180E+02  0.32326631071E+03  0.33613064577E+03  0.00000000000E+00 0. -1.
          1    1    1    2  501    0  0.50815317867E+02 -0.26962164533E+02  0.21468776708E+03  0.22226109011E+03  0.00000000000E+00 0. -1.
<scales pt_clust_5="13000.00000" pt_clust_6="13000.00000" pt_clust_7="13000.00000" pt_clust_8="13000.00000" pt_clust_9="57.52525"></scales>
<clustering>
<clus scale="   57.525">  2  9  1 -1</clus>
<clus scale="   82.928">  5  6 -1 -1</clus>
<clus scale="   93.302">  7  8 -1 -1</clus>
<clus scale="  113.470">  1  5  2 -1</clus>
<clus scale="   57.525">  2  5  1 -1</clus>
</clustering>
</event>
<event>
 9    2  0.3764910E-005  0.1938614E+03  0.7546771E-02  0.1186141E+00
         -1   -1    0    0    0  501 -0.00000000000E+00  0.00000000000E+00  0.28926247499E+03  0.28926247499E+03  0.00000000000E+00 0.  1.
         21   -1    0    0  501  502  0.00000000000E+00 -0.00000000000E+00 -0.27954148157E+03  0.27954148157E+03  0.00000000000E+00 0.  1.
         24    2    1    2    0    0  0.25301301678E+01  0.52261644530E+02  0.27426639216E+02  0.99071982391E+02  0.79532107406E+02 0.  0.
         23    2    1    2    0    0  0.14445019508E+03  0.44287051758E+02  0.14616847090E+03  0.22935811351E+03  0.91720883843E+02 0.  0.
        -11    1    3    3    0    0  0.37160459088E+02  0.31941524374E+02  0.32204460761E+02  0.58636916630E+02  0.00000000000E+00 0.  1.
         12    1    3    3    0    0 -0.34630328921E+02  0.20320120156E+02 -0.47778215455E+01  0.40435065760E+02  0.00000000000E+00 0. -1.
        -13    1    4    4    0    0  0.94509431957E+02  0.59125158964E+02  0.13672116634E+03  0.17641001807E+03  0.00000000000E+00 0.  1.
         13    1    4    4    0    0  0.49940763123E+02 -0.14838107206E+02  0.94473045687E+01  0.52948095437E+02  0.00000000000E+00 0. -1.
         -2    1    1    2    0  502 -0.14698032525E+03 -0.96548696288E+02 -0.16387411670E+03  0.24037386066E+03  0.00000000000E+00 0.  1.
<scales pt_clust_5="13000.00000" pt_clust_6="13000.00000" pt_clust_7="13000.00000" pt_clust_8="13000.00000" pt_clust_9="170.79090"></scales>
<clustering>
<clus scale="   79.532">  5  6 -1 -1</clus>
<clus scale="   91.721">  7  8 -1 -1</clus>
<clus scale="   95.200">  1  5  2 -1</clus>
<clus scale="  170.791">  2  9  1 -1</clus>
<clus scale="  170.791">  2  5  1 -1</clus>
</clustering>
</event>
<event>
 9    2  0.3764910E-005  0.2524336E+03  0.7546771E-02  0.1112550E+00
         -1   -1    0    0    0  501 -0.00000000000E+00  0.00000000000E+00  0.13594105144E+04  0.13594105144E+04  0.00000000000E+00 0.  1.
         21   -1    0    0  501  502  0.00000000000E+00 -0.00000000000E+00 -0.16200298090E+03  0.16200298090E+03  0.00000000000E+00 0. -1.
         24    2    1    2    0    0 -0.19803614977E+03  0.13392637712E+03  0.12056010536E+04  0.12316508101E+04  0.79594135089E+02 0.  0.
         23    2    1    2    0    0  0.17364941714E+03 -0.10217685206E+03  0.41378933708E+02  0.22604319642E+03  0.93750100409E+02 0.  0.
        -13    1    3    3    0    0 -0.42903832325E+02 -0.94249640736E+00  0.14101521071E+03  0.14740053182E+03  0.00000000000E+00 0.  1.
         14    1    3    3    0    0 -0.15513231745E+03  0.13486887353E+03  0.10645858429E+04  0.10842502783E+04  0.00000000000E+00 0. -1.
        -13    1    4    4    0    0  0.10566032727E+03 -0.10077438387E+03 -0.81235923642E+00  0.14601452369E+03  0.00000000000E+00 0.  1.
         13    1    4    4    0    0  0.67989089870E+02 -0.14024681868E+01  0.42191292944E+02  0.80028672728E+02  0.00000000000E+00 0. -1.
         -2    1    1    2    0  502  0.24386732639E+02 -0.31749525063E+02 -0.49572453850E+02  0.63719488787E+02  0.00000000000E+00 0.  1.
<scales pt_clust_5="13000.00000" pt_clust_6="13000.00000" pt_clust_7="13000.00000" pt_clust_8="13000.00000" pt_clust_9="40.03430"></scales>
<clustering>
<clus scale="   40.034">  2  9  1 -1</clus>
<clus scale="   79.594">  5  6 -1 -1</clus>
<clus scale="   93.750">  7  8 -1 -1</clus>
<clus scale="  247.526">  1  5  2 -1</clus>
<clus scale="   40.034">  2  5  1 -1</clus>
</clustering>
</event>
<event>
 9    2  0.5372980E-005  0.1321144E+03  0.7546771E-02  0.1230730E+00
         21   -1    0    0  501  502  0.00000000000E+00  0.00000000000E+00  0.47852727175E+03  0.47852727175E+03  0.00000000000E+00 0. -1.
         -1   -1    0    0    0  501 -0.00000000000E+00 -0.00000000000E+00 -0.50185672701E+03  0.50185672701E+03  0.00000000000E+00 0.  1.
         24    2    1    2    0    0 -0.42671721471E+02 -0.71364801987E+02 -0.34421892711E+03  0.36315907376E+03  0.80523489130E+02 0.  0.
         23    2    1    2    0    0  0.46141010917E+02 -0.81080857696E+02  0.41711358056E+03  0.43691742592E+03  0.90609048181E+02 0.  0.
        -11    1    3    3    0    0  0.22557016474E+02 -0.27749541080E+02 -0.13671238417E+03  0.14131217926E+03  0.00000000000E+00 0.  1.
         12    1    3    3    0    0 -0.65228737945E+02 -0.43615260906E+02 -0.20750654294E+03  0.22184689450E+03  0.00000000000E+00 0. -1.
        -11    1    4    4    0    0  0.24460800074E+02  0.14926333836E+02  0.60048022152E+02  0.66534886687E+02  0.00000000000E+00 0.  1.
         11    1    4    4    0    0  0.21680210843E+02 -0.96007191532E+02  0.35706555840E+03  0.37038253923E+03  0.00000000000E+00 0. -1.
         -2    1    1    2    0  502 -0.34692894467E+01  0.15244565968E+03 -0.96224108706E+02  0.18030749907E+03  0.00000000000E+00 0.  1.
<scales pt_clust_5="13000.00000" pt_clust_6="13000.00000" pt_clust_7="13000.00000" pt_clust_8="13000.00000" pt_clust_9="96.14683"></scales>
<clustering>
<clus scale="   80.523">  5  6 -1 -1</clus>
<clus scale="   90.609">  7  8 -1 -1</clus>
<clus scale="  115.749">  2  5  1 -1</clus>
<clus scale="   96.147">  1  9  2 -1</clus>
<clus scale="   96.147">  1  5  2 -1</clus>
</clustering>
</event>
<event>
 9    2  0.3764910E-005  0.1030106E+03  0.7546771E-02  0.1278956E+00
         21   -1    0    0  501  502  0.00000000000E+00  0.00000000000E+00  0.32241210356E+02  0.32241210356E+02  0.00000000000E+00 0.  1.
         -1   -1    0    0    0  501 -0.00000000000E+00 -0.00000000000E+00 -0.44740072585E+03  0.44740072585E+03  0.00000000000E+00 0.  1.
         23    2    1    2    0    0 -0.30288947868E+02 -0.39807599315E+02 -0.26110961308E+03  0.28152057768E+03  0.92593413841E+02 0.  0.
         24    2    1    2    0    0  0.40290641590E+02  0.11924055615E+02 -0.97738966994E+02  0.13449394828E+03  0.82281210213E+02 0.  0.
        -11    1    4    4    0    0  0.61620134795E+02  0.81249018150E+01 -0.42874679327E+02  0.75506908088E+02  0.00000000000E+00 0.  1.
         12    1    4    4    0    0 -0.21329493205E+02  0.37991537996E+01 -0.54864287667E+02  0.58987040196E+02  0.00000000000E+00 0. -1.
        -13    1    3    3    0    0  0.29259388838E+02 -0.21897205528E+02 -0.14799306488E+03  0.15243866536E+03  0.00000000000E+00 0.  1.
         13    1    3    3    0    0 -0.59548336707E+02 -0.17910393787E+02 -0.11311654821E+03  0.12908191232E+03  0.00000000000E+00 0. -1.
         -2    1    1    2    0  502 -0.10001693722E+02  0.27883543700E+02 -0.56310935416E+02  0.63627410241E+02  0.00000000000E+00 0.  1.
<scales pt_clust_5="13000.00000" pt_clust_6="13000.00000" pt_clust_7="13000.00000" pt_clust_8="13000.00000" pt_clust_9="29.62308"></scales>
<clustering>
<clus scale="   29.623">  1  9  2 -1</clus>
<clus scale="   82.281">  5  6 -1 -1</clus>
<clus scale="   92.593">  7  8 -1 -1</clus>
<clus scale="   93.850">  1  5  2 -1</clus>
<clus scale="   29.623">  1  5  2 -1</clus>
</clustering>
</event>
<event>
 9    2  0.3764910E-005  0.1364864E+03  0.7546771E-02  0.1220760E+00
         -1   -1    0    0    0  501 -0.00000000000E+00  0.00000000000E+00  0.45107313312E+03  0.45107313312E+03  0.00000000000E+00 0.  1.
         21   -1    0    0  501  502  0.00000000000E+00 -0.00000000000E+00 -0.48200635025E+02  0.48200635025E+02  0.00000000000E+00 0.  1.
         24    2    1    2    0    0  0.95216491347E+02 -0.49407423003E+02  0.23151724317E+03  0.26836161533E+03  0.83129110600E+02 0.  0.
         23    2    1    2    0    0 -0.74559304879E+02  0.48328703882E+02  0.16409112891E+03  0.20898840964E+03  0.94103683320E+02 0.  0.
        -13    1    3    3    0    0  0.79187739758E+02 -0.52239222902E+02  0.10788349974E+03  0.14366100394E+03  0.00000000000E+00 0.  1.
         14    1    3    3    0    0  0.16028751589E+02  0.28317998988E+01  0.12363374343E+03  0.12470061139E+03  0.00000000000E+00 0. -1.
        -13    1    4    4    0    0 -0.83341702852E+02  0.96755905452E+01  0.13809839879E+03  0.16158782205E+03  0.00000000000E+00 0.  1.
         13    1    4    4    0    0  0.87823979731E+01  0.38653113337E+02  0.25992730119E+02  0.47400587589E+02  0.00000000000E+00 0. -1.
         -2    1    1    2    0  502 -0.20657186468E+02  0.10787191206E+01  0.72641260176E+01  0.21923743168E+02  0.00000000000E+00 0.  1.
<scales pt_clust_5="13000.00000" pt_clust_6="13000.00000" pt_clust_7="13000.00000" pt_clust_8="13000.00000" pt_clust_9="20.68533"></scales>
<clustering>
<clus scale="   20.685">  2  9  1 -1</clus>
<clus scale="   83.129">  5  6 -1 -1</clus>
<clus scale="   94.104">  7  8 -1 -1</clus>
<clus scale="  129.165">  1  5  2 -1</clus>
<clus scale="   20.685">  2  5  1 -1</clus>
</clustering>
</event>
<event>
 9    2  0.3764910E-005  0.1682714E+03  0.7546771E-02  0.1192521E+00
         -1   -1    0    0    0  501 -0.00000000000E+00  0.00000000000E+00  0.75162704389E+02  0.75162704389E+02  0.00000000000E+00 0.  1.
         21   -1    0    0  501  502  0.00000000000E+00 -0.00000000000E+00 -0.73937629952E+03  0.73937629952E+03  0.00000000000E+00 0.  1.
         24    2    1    2    0    0  0.96222415539E+02  0.10463788292E+02 -0.26535668530E+03  0.29392925980E+03  0.81314175992E+02 0.  0.
         23    2    1    2    0    0  0.60245323212E+02  0.94302762746E+02 -0.18917591348E+03  0.23878656600E+03  0.93321957927E+02 0.  0.
        -11    1    3    3    0    0  0.89255314300E+02  0.36302594597E+02 -0.23164983100E+03  0.25089048150E+03  0.00000000000E+00 0.  1.
         12    1    3    3    0    0  0.69671012395E+01 -0.25838806305E+02 -0.33706854300E+02  0.43038778302E+02  0.00000000000E+00 0. -1.
        -13    1    4    4    0    0  0.78158192631E+02  0.42789365594E+02 -0.13617360383E+03  0.16273562383E+03  0.00000000000E+00 0. -1.
         13    1    4    4    0    0 -0.17912869419E+02  0.51513397152E+02 -0.53002309648E+02  0.76050942170E+02  0.00000000000E+00 0.  1.
         -2    1    1    2    0  502 -0.15646773875E+03 -0.10476655104E+03 -0.20968099635E+03  0.28182317811E+03  0.00000000000E+00 0.  1.
<scales pt_clust_5="13000.00000" pt_clust_6="13000.00000" pt_clust_7="13000.00000" pt_clust_8="13000.00000" pt_clust_9="140.02243"></scales>
<clustering>
<clus scale="   81.314">  5  6 -1 -1</clus>
<clus scale="   93.322">  7  8 -1 -1</clus>
<clus scale="  126.413">  1  5  2 -1</clus>
<clus scale="  140.022">  2  9  1 -1</clus>
<clus scale="  140.022">  2  5  1 -1</clus>
</clustering>
</event>
<event>
 9    2  0.3764910E-005  0.9831132E+02  0.7546771E-02  0.1292054E+00
          2   -1    0    0  502    0 -0.00000000000E+00  0.00000000000E+00  0.53523613934E+03  0.53523613934E+03  0.00000000000E+00 0. -1.
         21   -1    0    0  501  502  0.00000000000E+00 -0.00000000000E+00 -0.37403876895E+02  0.37403876895E+02  0.00000000000E+00 0.  1.
         24    2    1    2    0    0 -0.14518974023E+02  0.14154167647E+02  0.38708730191E+03  0.39596813802E+03  0.80889096657E+02 0.  0.
         23    2    1    2    0    0  0.27667125576E+02 -0.38416107454E+02  0.69890127613E+02  0.12737042808E+03  0.95379918543E+02 0.  0.
        -11    1    3    3    0    0 -0.33733545111E+02  0.37475149725E+02  0.28783765330E+03  0.29222055638E+03  0.00000000000E+00 0.  1.
         12    1    3    3    0    0  0.19214571088E+02 -0.23320982078E+02  0.99249648609E+02  0.10374758164E+03  0.00000000000E+00 0. -1.
        -13    1    4    4    0    0 -0.16351315433E+02 -0.17743274962E+02 -0.15800616140E+02  0.28841789008E+02  0.00000000000E+00 0.  1.
         13    1    4    4    0    0  0.44018441009E+02 -0.20672832492E+02  0.85690743752E+02  0.98528639070E+02  0.00000000000E+00 0. -1.
          1    1    1    2  501    0 -0.13148151553E+02  0.24261939807E+02  0.40854832917E+02  0.49301450133E+02  0.00000000000E+00 0. -1.
<scales pt_clust_5="13000.00000" pt_clust_6="13000.00000" pt_clust_7="13000.00000" pt_clust_8="13000.00000" pt_clust_9="27.59557"></scales>
<clustering>
<clus scale="   27.596">  2  9  1 -1</clus>
<clus scale="   80.889">  5  6 -1 -1</clus>
<clus scale="   84.326">  1  5  2 -1</clus>
<clus scale="   95.380">  7  8 -1 -1</clus>
<clus scale="   27.596">  2  5  1 -1</clus>
</clustering>
</event>
<event>
 9    2  0.3764910E-005  0.1102932E+03  0.7546771E-02  0.1273825E+00
         21   -1    0    0  501  502  0.00000000000E+00  0.00000000000E+00  0.98654446863E+03  0.98654446863E+03  0.00000000000E+00 0.  1.
         -1   -1    0    0    0  501 -0.00000000000E+00 -0.00000000000E+00 -0.28747899900E+02  0.28747899900E+02  0.00000000000E+00 0.  1.
         23    2    1    2    0    0  0.39777125461E+02  0.62664518594E+00  0.11772934421E+03  0.16356976954E+03  0.10635910222E+03 0.  0.
         24    2    1    2    0    0  0.65625890141E+01 -0.27174309433E+02  0.42266134200E+03  0.43091406964E+03  0.79137947435E+02 0.  0.
        -13    1    4    4    0    0  0.42373100092E+02 -0.20578726826E+02  0.21698036973E+03  0.22203478209E+03  0.00000000000E+00 0.  1.
         14    1    4    4    0    0 -0.35810511078E+02 -0.65955826070E+01  0.20568097227E+03  0.20887928755E+03  0.00000000000E+00 0. -1.
        -11    1    3    3    0    0  0.27678842153E+02  0.40290636308E+02  0.11135893443E+03  0.12161523735E+03  0.00000000000E+00 0. -1.
         11    1    3    3    0    0  0.12098283308E+02 -0.39663991122E+02  0.63704097796E+01  0.41954532193E+02  0.00000000000E+00 0.  1.
         -2    1    1    2    0  502 -0.46339714475E+02  0.26547664247E+02  0.41740588252E+03  0.42080852936E+03  0.00000000000E+00 0.  1.
<scales pt_clust_5="13000.00000" pt_clust_6="13000.00000" pt_clust_7="13000.00000" pt_clust_8="13000.00000" pt_clust_9="53.40550"></scales>
<clustering>
<clus scale="   53.406">  1  9  2 -1</clus>
<clus scale="   79.138">  5  6 -1 -1</clus>
<clus scale="   84.351">  1  5  2 -1</clus>
<clus scale="  106.359">  7  8 -1 -1</clus>
<clus scale="   53.406">  1  5  2 -1</clus>
</clustering>
</event>
<event>
 9    2  0.3764910E-005  0.1104168E+03  0.7546771E-02  0.1266537E+00
         21   -1    0    0  501  502  0.00000000000E+00  0.00000000000E+00  0.33613780124E+02  0.33613780124E+02  0.00000000000E+00 0. -1.
         -3   -1    0    0    0  501 -0.00000000000E+00 -0.00000000000E+00 -0.67488660293E+03  0.67488660293E+03  0.00000000000E+00 0.  1.
         23    2    1    2    0    0 -0.31962921053E+02 -0.53158519667E+02 -0.51477897099E+03  0.52646544480E+03  0.91219619924E+02 0.  0.
         24    2    1    2    0    0  0.53291438522E+02  0.40389340390E+02 -0.75060918280E+02  0.12490960019E+03  0.74141692253E+02 0.  0.
        -11    1    4    4    0    0  0.50440023018E+02 -0.51245584381E+01 -0.55836493138E+02  0.75419964116E+02  0.00000000000E+00 0.  1.
         12    1    4    4    0    0  0.28514155039E+01  0.45513898828E+02 -0.19224425143E+02  0.49489636077E+02  0.00000000000E+00 0. -1.
        -11    1    3    3    0    0 -0.63243790533E+02 -0.31520289514E+02 -0.37523716848E+03  0.38183273602E+03  0.00000000000E+00 0.  1.
         11    1    3    3    0    0  0.31280869479E+02 -0.21638230153E+02 -0.13954180251E+03  0.14463270877E+03  0.00000000000E+00 0. -1.
         -4    1    1    2    0  502 -0.21328517469E+02  0.12769179277E+02 -0.51432933541E+02  0.57125338069E+02  0.00000000000E+00 0.  1.
<scales pt_clust_5="13000.00000" pt_clust_6="13000.00000" pt_clust_7="13000.00000" pt_clust_8="13000.00000" pt_clust_9="24.85875"></scales>
<clustering>
<clus scale="   24.859">  1  9  2 -1</clus>
<clus scale="   74.142">  5  6 -1 -1</clus>
<clus scale="   91.220">  7  8 -1 -1</clus>
<clus scale="   96.788">  1  5  2 -1</clus>
<clus scale="   24.859">  1  5  2 -1</clus>
</clustering>
</event>
<event>
 9    2  0.3764910E-005  0.9198369E+02  0.7546771E-02  0.1303369E+00
         21   -1    0    0  501  502  0.00000000000E+00  0.00000000000E+00  0.30033468507E+03  0.30033468507E+03  0.00000000000E+00 0. -1.
         -1   -1    0    0    0  501 -0.00000000000E+00 -0.00000000000E+00 -0.78217628351E+02  0.78217628351E+02  0.00000000000E+00 0.  1.
         24    2    1    2    0    0 -0.16661497757E+02  0.28842926441E+01 -0.21953360224E+02  0.84945657238E+02  0.80298754703E+02 0.  0.
         23    2    1    2    0    0  0.42174892165E+02 -0.51666129619E+01  0.78614831325E+02  0.12617997643E+03  0.89082429971E+02 0.  0.
        -13    1    3    3    0    0 -0.18680601162E+02 -0.30773449340E+02 -0.33628786864E+02  0.49263225128E+02  0.00000000000E+00 0.  1.
         14    1    3    3    0    0  0.20191034047E+01  0.33657741984E+02  0.11675426639E+02  0.35682432110E+02  0.00000000000E+00 0. -1.
        -11    1    4    4    0    0 -0.11421997653E+02 -0.35300483124E+02  0.32457648568E+02  0.49295893234E+02  0.00000000000E+00 0.  1.
         11    1    4    4    0    0  0.53596889818E+02  0.30133870162E+02  0.46157182756E+02  0.76884083198E+02  0.00000000000E+00 0. -1.
         -2    1    1    2    0  502 -0.25513394408E+02  0.22823203178E+01  0.16545558561E+03  0.16742667975E+03  0.00000000000E+00 0.  1.
<scales pt_clust_5="13000.00000" pt_clust_6="13000.00000" pt_clust_7="13000.00000" pt_clust_8="13000.00000" pt_clust_9="25.61527"></scales>
<clustering>
<clus scale="   25.615">  1  9  2 -1</clus>
<clus scale="   80.299">  5  6 -1 -1</clus>
<clus scale="   83.506">  2  5  1 -1</clus>
<clus scale="   89.082">  7  8 -1 -1</clus>
<clus scale="   25.615">  1  5  2 -1</clus>
</clustering>
</event>
<event>
 9    2  0.3764910E-005  0.9209789E+02  0.7546771E-02  0.1301738E+00
         21   -1    0    0  501  502  0.00000000000E+00  0.00000000000E+00  0.61438398730E+02  0.61438398730E+02  0.00000000000E+00 0. -1.
          2   -1    0    0  502    0 -0.00000000000E+00 -0.00000000000E+00 -0.34896279154E+03  0.34896279154E+03  0.00000000000E+00 0. -1.
         24    2    1    2    0    0  0.25330853378E+01 -0.24405444036E+02 -0.25400139916E+03  0.26763201151E+03  0.80673047460E+02 0.  0.
         23    2    1    2    0    0  0.94364749797E+01  0.56506498939E+02 -0.25553928274E+02  0.10759455577E+03  0.87415980791E+02 0.  0.
        -13    1    3    3    0    0 -0.19855140488E+02 -0.41894911740E+02 -0.90535417463E+02  0.10171564309E+03  0.00000000000E+00 0.  1.
         14    1    3    3    0    0  0.22388225826E+02  0.17489467704E+02 -0.16346598170E+03  0.16591636842E+03  0.00000000000E+00 0. -1.
        -13    1    4    4    0    0  0.72291345865E+01 -0.23401973601E+02 -0.41774713344E+01  0.24846811104E+02  0.00000000000E+00 0.  1.
         13    1    4    4    0    0  0.22073403932E+01  0.79908472540E+02 -0.21376456939E+02  0.82747744661E+02  0.00000000000E+00 0. -1.
          1    1    1    2  501    0 -0.11969560318E+02 -0.32101054903E+02 -0.79690653712E+01  0.35174622997E+02  0.00000000000E+00 0. -1.
<scales pt_clust_5="13000.00000" pt_clust_6="13000.00000" pt_clust_7="13000.00000" pt_clust_8="13000.00000" pt_clust_9="34.26001"></scales>
<clustering>
<clus scale="   34.260">  1  9  2 -1</clus>
<clus scale="   80.673">  5  6 -1 -1</clus>
<clus scale="   85.724">  2  5  1 -1</clus>
<clus scale="   87.416">  7  8 -1 -1</clus>
<clus scale="   34.260">  1  5  2 -1</clus>
</clustering>
</event>
<event>
 9    2  0.3764910E-005  0.1162473E+03  0.7546771E-02  0.1253009E+00
         21   -1    0    0  501  502  0.00000000000E+00  0.00000000000E+00  0.87401369678E+02  0.87401369678E+02  0.00000000000E+00 0.  1.
         -3   -1    0    0    0  501 -0.00000000000E+00 -0.00000000000E+00 -0.27633882451E+03  0.27633882451E+03  0.00000000000E+00 0.  1.
         23    2    1    2    0    0 -0.55917791004E+02 -0.49224106379E+02 -0.19371433076E+03  0.22718351646E+03  0.92397490266E+02 0.  0.
         24    2    1    2    0    0  0.43092159590E+02  0.33726162115E+02  0.31102543162E+02  0.10342476181E+03  0.82066588418E+02 0.  0.
        -13    1    4    4    0    0  0.44423032984E+02  0.44690505517E+02  0.50734668645E+02  0.80899034267E+02  0.00000000000E+00 0.  1.
         14    1    4    4    0    0 -0.13308733944E+01 -0.10964343402E+02 -0.19632125483E+02  0.22525727540E+02  0.00000000000E+00 0. -1.
        -11    1    3    3    0    0  0.21630233877E-01  0.24895638790E+02 -0.30173357284E+02  0.39118087740E+02  0.00000000000E+00 0. -1.
         11    1    3    3    0    0 -0.55939421238E+02 -0.74119745169E+02 -0.16354097348E+03  0.18806542872E+03  0.00000000000E+00 0.  1.
         -4    1    1    2    0  502  0.12825631414E+02  0.15497944265E+02 -0.26325667230E+02  0.33131915923E+02  0.00000000000E+00 0.  1.
<scales pt_clust_5="13000.00000" pt_clust_6="13000.00000" pt_clust_7="13000.00000" pt_clust_8="13000.00000" pt_clust_9="20.11675"></scales>
<clustering>
<clus scale="   20.117">  1  9  2 -1</clus>
<clus scale="   82.067">  5  6 -1 -1</clus>
<clus scale="   92.397">  7  8 -1 -1</clus>
<clus scale="  108.218">  1  5  2 -1</clus>
<clus scale="   20.117">  1  5  2 -1</clus>
</clustering>
</event>
<event>
 9    2  0.3764910E-005  0.1112876E+03  0.7546771E-02  0.1264702E+00
          2   -1    0    0  502    0 -0.00000000000E+00  0.00000000000E+00  0.76259087046E+02  0.76259087046E+02  0.00000000000E+00 0. -1.
         21   -1    0    0  501  502  0.00000000000E+00 -0.00000000000E+00 -0.20653790711E+03  0.20653790711E+03  0.00000000000E+00 0.  1.
         24    2    1    2    0    0  0.19271474106E+02  0.48471193639E+02 -0.28357851999E+02  0.99577769825E+02  0.79941967366E+02 0.  0.
         23    2    1    2    0    0  0.19766650292E+01 -0.65930634751E+02 -0.54597423889E+02  0.12848501808E+03  0.95795435026E+02 0.  0.
        -13    1    3    3    0    0  0.16128858027E+02 -0.17614837748E+02  0.65599872700E+01  0.24768043991E+02  0.00000000000E+00 0.  1.
         14    1    3    3    0    0  0.31426160782E+01  0.66086031386E+02 -0.34917839269E+02  0.74809725835E+02  0.00000000000E+00 0. -1.
        -11    1    4    4    0    0 -0.32667512395E+02 -0.29646379353E+02  0.11420450235E+02  0.45568638979E+02  0.00000000000E+00 0. -1.
         11    1    4    4    0    0  0.34644177424E+02 -0.36284255398E+02 -0.66017874124E+02  0.82916379099E+02  0.00000000000E+00 0.  1.
          1    1    1    2  501    0 -0.21248139135E+02  0.17459441112E+02 -0.47323544173E+02  0.54734206249E+02  0.00000000000E+00 0. -1.
<scales pt_clust_5="13000.00000" pt_clust_6="13000.00000" pt_clust_7="13000.00000" pt_clust_8="13000.00000" pt_clust_9="27.50119"></scales>
<clustering>
<clus scale="   27.501">  2  9  1 -1</clus>
<clus scale="   79.942">  5  6 -1 -1</clus>
<clus scale="   95.795">  7  8 -1 -1</clus>
<clus scale="   97.974">  1  5  2 -1</clus>
<clus scale="   27.501">  2  5  1 -1</clus>
</clustering>
</event>
<event>
 9    2  0.3764910E-005  0.1371031E+03  0.7546771E-02  0.1222698E+00
         21   -1    0    0  501  502  0.00000000000E+00  0.00000000000E+00  0.26643818665E+03  0.26643818665E+03  0.00000000000E+00 0. -1.
          4   -1    0    0  502    0 -0.00000000000E+00 -0.00000000000E+00 -0.18496076768E+03  0.18496076768E+03  0.00000000000E+00 0. -1.
         23    2    1    2    0    0  0.21992106322E+02 -0.99793455610E+02 -0.84847354006E+02  0.16670555999E+03  0.10074365353E+03 0.  0.
         24    2    1    2    0    0  0.22890598206E+02  0.82578416638E+02  0.57199610931E+01  0.11704876921E+03  0.79526863630E+02 0.  0.
        -11    1    4    4    0    0  0.46073987883E+02  0.67343069661E+02  0.22482042132E+02  0.84636538263E+02  0.00000000000E+00 0.  1.
         12    1    4    4    0    0 -0.23183389677E+02  0.15235346978E+02 -0.16762081039E+02  0.32412230950E+02  0.00000000000E+00 0. -1.
        -13    1    3    3    0    0  0.14531821806E+02 -0.52540539335E+02  0.14527497229E+02  0.56415691916E+02  0.00000000000E+00 0. -1.
         13    1    3    3    0    0  0.74602845169E+01 -0.47252916275E+02 -0.99374851234E+02  0.11028986807E+03  0.00000000000E+00 0.  1.
          3    1    1    2  501    0 -0.44882704529E+02  0.17215038972E+02  0.16060481189E+03  0.16764462513E+03  0.00000000000E+00 0. -1.
<scales pt_clust_5="13000.00000" pt_clust_6="13000.00000" pt_clust_7="13000.00000" pt_clust_8="13000.00000" pt_clust_9="48.07093"></scales>
<clustering>
<clus scale="   48.071">  1  9  2 -1</clus>
<clus scale="   79.527">  5  6 -1 -1</clus>
<clus scale="  100.744">  7  8 -1 -1</clus>
<clus scale="  122.362">  1  5  2 -1</clus>
<clus scale="   48.071">  1  5  2 -1</clus>
</clustering>
</event>
<event>
 9    2  0.3764910E-005  0.9137036E+02  0.7546771E-02  0.1310349E+00
         21   -1    0    0  501  502  0.00000000000E+00  0.00000000000E+00  0.36282941543E+02  0.36282941543E+02  0.00000000000E+00 0. -1.
         -1   -1    0    0    0  501 -0.00000000000E+00 -0.00000000000E+00 -0.43407679845E+03  0.43407679845E+03  0.00000000000E+00 0.  1.
         23    2    1    2    0    0 -0.15665972428E+01 -0.86672248052E+00 -0.33891109763E+03  0.35095028007E+03  0.91116198034E+02 0.  0.
         24    2    1    2    0    0  0.11877462638E+02  0.22761256079E+02 -0.50693129312E+02  0.93860397600E+02  0.74704966242E+02 0.  0.
        -13    1    4    4    0    0  0.31203460964E+01 -0.27558608055E+02 -0.20921678942E+02  0.34740899347E+02  0.00000000000E+00 0.  1.
         14    1    4    4    0    0  0.87571165420E+01  0.50319864134E+02 -0.29771450370E+02  0.59119498253E+02  0.00000000000E+00 0. -1.
        -11    1    3    3    0    0  0.37031740654E+02 -0.18907051779E+02 -0.10049177145E+03  0.10875395419E+03  0.00000000000E+00 0. -1.
         11    1    3    3    0    0 -0.38598337897E+02  0.18040329299E+02 -0.23841932619E+03  0.24219632588E+03  0.00000000000E+00 0.  1.
         -2    1    1    2    0  502 -0.10310865396E+02 -0.21894533598E+02 -0.81896299562E+01  0.25549062322E+02  0.00000000000E+00 0.  1.
<scales pt_clust_5="13000.00000" pt_clust_6="13000.00000" pt_clust_7="13000.00000" pt_clust_8="13000.00000" pt_clust_9="24.20092"></scales>
<clustering>
<clus scale="   24.201">  1  9  2 -1</clus>
<clus scale="   74.705">  5  6 -1 -1</clus>
<clus scale="   75.015">  1  5  2 -1</clus>
<clus scale="   91.116">  7  8 -1 -1</clus>
<clus scale="   24.201">  1  5  2 -1</clus>
</clustering>
</event>
<event>
 9    2  0.3764910E-005  0.1039043E+03  0.7546771E-02  0.1277295E+00
          4   -1    0    0  502    0 -0.00000000000E+00  0.00000000000E+00  0.42974076302E+02  0.42974076302E+02  0.00000000000E+00 0. -1.
         21   -1    0    0  501  502  0.00000000000E+00 -0.00000000000E+00 -0.31631491268E+03  0.31631491268E+03  0.00000000000E+00 0.  1.
         24    2    1    2    0    0 -0.44936742015E+02  0.35565924369E+02 -0.89296604592E+02  0.13316705082E+03  0.80469460498E+02 0.  0.
         23    2    1    2    0    0  0.18790768173E+02 -0.37652361330E+02 -0.11823159814E+03  0.15527514632E+03  0.91437776567E+02 0.  0.
        -11    1    3    3    0    0 -0.26999171385E+02  0.26621963663E+02 -0.10241731277E+03  0.10921076028E+03  0.00000000000E+00 0.  1.
         12    1    3    3    0    0 -0.17937570630E+02  0.89439607062E+01  0.13120708182E+02  0.23956290540E+02  0.00000000000E+00 0. -1.
        -13    1    4    4    0    0  0.44527129839E+02 -0.25306657624E+02 -0.11580848846E+03  0.12662818885E+03  0.00000000000E+00 0.  1.
         13    1    4    4    0    0 -0.25736361666E+02 -0.12345703706E+02 -0.24231096808E+01  0.28646957470E+02  0.00000000000E+00 0. -1.
          3    1    1    2  501    0  0.26145973842E+02  0.20864369610E+01 -0.65812633637E+02  0.70846791836E+02  0.00000000000E+00 0. -1.
<scales pt_clust_5="13000.00000" pt_clust_6="13000.00000" pt_clust_7="13000.00000" pt_clust_8="13000.00000" pt_clust_9="26.22909"></scales>
<clustering>
<clus scale="   26.229">  2  9  1 -1</clus>
<clus scale="   80.469">  5  6 -1 -1</clus>
<clus scale="   91.438">  7  8 -1 -1</clus>
<clus scale="   94.396">  1  5  2 -1</clus>
<clus scale="   26.229">  2  5  1 -1</clus>
</clustering>
</event>
<event>
 9    2  0.3764910E-005  0.2022336E+03  0.7546771E-02  0.1148851E+00
          2   -1    0    0  502    0 -0.00000000000E+00  0.00000000000E+00  0.61809240242E+03  0.61809240242E+03  0.00000000000E+00 0. -1.
         21   -1    0    0  501  502  0.00000000000E+00 -0.00000000000E+00 -0.13829980034E+03  0.13829980034E+03  0.00000000000E+00 0. -1.
         23    2    1    2    0    0  0.13058315415E+03  0.26732931608E+02  0.78486238133E+02  0.18002008226E+03  0.92089796731E+02 0.  0.
         24    2    1    2    0    0 -0.24802556374E+03 -0.22112357129E+02  0.15735310687E+03  0.30558205251E+03  0.81331137757E+02 0.  0.
        -13    1    4    4    0    0 -0.10808155324E+03  0.16992966242E+02  0.10353216560E+03  0.15062965301E+03  0.00000000000E+00 0.  1.
         14    1    4    4    0    0 -0.13994401051E+03 -0.39105323371E+02  0.53820941264E+02  0.15495239950E+03  0.00000000000E+00 0. -1.
        -13    1    3    3    0    0  0.44649549054E+01 -0.22595546750E+02 -0.89016673876E+00  0.23049662732E+02  0.00000000000E+00 0.  1.
         13    1    3    3    0    0  0.12611819924E+03  0.49328478358E+02  0.79376404872E+02  0.15697041953E+03  0.00000000000E+00 0. -1.
          1    1    1    2  501    0  0.11744240959E+03 -0.46205744792E+01  0.24395325708E+03  0.27079006799E+03  0.00000000000E+00 0. -1.
<scales pt_clust_5="13000.00000" pt_clust_6="13000.00000" pt_clust_7="13000.00000" pt_clust_8="13000.00000" pt_clust_9="117.53333"></scales>
<clustering>
<clus scale="   81.331">  5  6 -1 -1</clus>
<clus scale="   92.090">  7  8 -1 -1</clus>
<clus scale="  117.533">  2  9  1 -1</clus>
<clus scale="  197.567">  2  5  1 -1</clus>
<clus scale="  117.533">  2  5  1 -1</clus>
</clustering>
</event>
<event>
 9    2  0.3764910E-005  0.9871159E+02  0.7546771E-02  0.1287453E+00
         21   -1    0    0  501  502  0.00000000000E+00  0.00000000000E+00  0.15065127509E+03  0.15065127509E+03  0.00000000000E+00 0. -1.
          2   -1    0    0  502    0 -0.00000000000E+00 -0.00000000000E+00 -0.19334941805E+03  0.19334941805E+03  0.00000000000E+00 0. -1.
         23    2    1    2    0    0  0.58781619084E+02  0.43377252485E+02 -0.82816428790E+02  0.14310445954E+03  0.91013519254E+02 0.  0.
         24    2    1    2    0    0  0.15263549405E+02 -0.20742993033E+02 -0.34894826801E+02  0.93091021561E+02  0.82371364304E+02 0.  0.
        -13    1    4    4    0    0 -0.28327001751E+02 -0.26144492183E+02 -0.27207768466E+01  0.38643966235E+02  0.00000000000E+00 0.  1.
         14    1    4    4    0    0  0.43590551157E+02  0.54014991492E+01 -0.32174049955E+02  0.54447055326E+02  0.00000000000E+00 0. -1.
        -13    1    3    3    0    0  0.22585522102E+02  0.67040662217E+02 -0.36016236672E+02  0.79383408236E+02  0.00000000000E+00 0. -1.
         13    1    3    3    0    0  0.36196096982E+02 -0.23663409732E+02 -0.46800192118E+02  0.63721051303E+02  0.00000000000E+00 0.  1.
          1    1    1    2  501    0 -0.74045168490E+02 -0.22634259452E+02  0.75013112623E+02  0.10780521204E+03  0.00000000000E+00 0. -1.
<scales pt_clust_5="13000.00000" pt_clust_6="13000.00000" pt_clust_7="13000.00000" pt_clust_8="13000.00000" pt_clust_9="77.42736"></scales>
<clustering>
<clus scale="   77.427">  1  9  2 -1</clus>
<clus scale="   82.371">  5  6 -1 -1</clus>
<clus scale="   90.805">  1  5  2 -1</clus>
<clus scale="   91.014">  7  8 -1 -1</clus>
<clus scale="   77.427">  1  5  2 -1</clus>
</clustering>
</event>
<event>
 9    2  0.3764910E-005  0.1107794E+03  0.7546771E-02  0.1266647E+00
         -1   -1    0    0    0  501 -0.00000000000E+00  0.00000000000E+00  0.42923405302E+03  0.42923405302E+03  0.00000000000E+00 0.  1.
         21   -1    0    0  501  502  0.00000000000E+00 -0.00000000000E+00 -0.69906500203E+02  0.69906500203E+02  0.00000000000E+00 0. -1.
         23    2    1    2    0    0 -0.29823073160E+02 -0.51679112126E+02  0.32009382320E+03  0.33919216353E+03  0.95032214692E+02 0.  0.
         24    2    1    2    0    0 -0.23288203542E+02  0.61242980666E+02  0.28428494682E+02  0.10491178009E+03  0.76845684247E+02 0.  0.
        -11    1    4    4    0    0 -0.29452385551E+02  0.10019471684E+02  0.41329989231E+02  0.51730076718E+02  0.00000000000E+00 0.  1.
         12    1    4    4    0    0  0.61641820089E+01  0.51223508982E+02 -0.12901494549E+02  0.53181703375E+02  0.00000000000E+00 0. -1.
        -13    1    3    3    0    0  0.17677190288E+02 -0.38665523299E+02  0.24961816399E+03  0.25321282263E+03  0.00000000000E+00 0.  1.
         13    1    3    3    0    0 -0.47500263448E+02 -0.13013588826E+02  0.70475659206E+02  0.85979340904E+02  0.00000000000E+00 0. -1.
         -2    1    1    2    0  502  0.53111276702E+02 -0.95638685406E+01  0.10805234942E+02  0.55036609602E+02  0.00000000000E+00 0.  1.
<scales pt_clust_5="13000.00000" pt_clust_6="13000.00000" pt_clust_7="13000.00000" pt_clust_8="13000.00000" pt_clust_9="53.96550"></scales>
<clustering>
<clus scale="   53.966">  2  9  1 -1</clus>
<clus scale="   76.846">  5  6 -1 -1</clus>
<clus scale="   95.032">  7  8 -1 -1</clus>
<clus scale="   95.636">  2  5  1 -1</clus>
<clus scale="   53.966">  2  5  1 -1</clus>
</clustering>
</event>
<event>
 9    2  0.3764910E-005  0.9505166E+02  0.7546771E-02  0.1294697E+00
         21   -1    0    0  501  502  0.00000000000E+00  0.00000000000E+00  0.13154011397E+03  0.13154011397E+03  0.00000000000E+00 0.  1.
          2   -1    0    0  502    0 -0.00000000000E+00 -0.00000000000E+00 -0.22815717616E+03  0.22815717616E+03  0.00000000000E+00 0. -1.
         23    2    1    2    0    0  0.11580553587E+02 -0.32894460068E+02 -0.17864311209E+03  0.20308710689E+03  0.90082499749E+02 0.  0.
         24    2    1    2    0    0  0.20906115757E+02  0.30447505593E+01  0.69748423151E+02  0.11081576260E+03  0.83480264292E+02 0.  0.
        -13    1    4    4    0    0  0.20223229849E+02  0.11998438982E+02  0.87670857425E+02  0.90769602870E+02  0.00000000000E+00 0.  1.
         14    1    4    4    0    0  0.68288590841E+00 -0.89536884224E+01 -0.17922434275E+02  0.20046159728E+02  0.00000000000E+00 0. -1.
        -13    1    3    3    0    0 -0.28258866267E+02 -0.14515269051E+02 -0.17901647055E+02  0.36465401761E+02  0.00000000000E+00 0.  1.
         13    1    3    3    0    0  0.39839419854E+02 -0.18379191017E+02 -0.16074146504E+03  0.16662170513E+03  0.00000000000E+00 0. -1.
          1    1    1    2  501    0 -0.32486669344E+02  0.29849709509E+02  0.12277626751E+02  0.45794420637E+02  0.00000000000E+00 0. -1.
<scales pt_clust_5="13000.00000" pt_clust_6="13000.00000" pt_clust_7="13000.00000" pt_clust_8="13000.00000" pt_clust_9="44.11790"></scales>
<clustering>
<clus scale="   44.118">  1  9  2 -1</clus>
<clus scale="   83.480">  5  6 -1 -1</clus>
<clus scale="   88.820">  1  5  2 -1</clus>
<clus scale="   90.082">  7  8 -1 -1</clus>
<clus scale="   44.118">  1  5  2 -1</clus>
</clustering>
</event>
<event>
 9    2  0.3764910E-005  0.3850953E+03  0.7546771E-02  0.1083212E+00
         21   -1    0    0  501  502  0.00000000000E+00  0.00000000000E+00  0.24761002257E+03  0.24761002257E+03  0.00000000000E+00 0. -1.
          2   -1    0    0  502    0 -0.00000000000E+00 -0.00000000000E+00 -0.15017576375E+04  0.15017576375E+04  0.00000000000E+00 0. -1.
         23    2    1    2    0    0  0.32290346852E+02  0.11515435769E+03 -0.57033169689E+03  0.58966030086E+03  0.90099019656E+02 0.  0.
         24    2    1    2    0    0 -0.13324290865E+03  0.26386567460E+03 -0.70054617933E+03  0.76711659743E+03  0.10160786267E+03 0.  0.
        -11    1    4    4    0    0 -0.38527241066E+02  0.14531436241E+03 -0.44732002290E+03  0.47190657456E+03  0.00000000000E+00 0.  1.
         12    1    4    4    0    0 -0.94715667582E+02  0.11855131218E+03 -0.25322615642E+03  0.29521002287E+03  0.00000000000E+00 0. -1.
        -11    1    3    3    0    0 -0.10957772372E+02  0.76719668620E+02 -0.44395732529E+03  0.45067070796E+03  0.00000000000E+00 0.  1.
         11    1    3    3    0    0  0.43248119223E+02  0.38434689067E+02 -0.12637437160E+03  0.13898959291E+03  0.00000000000E+00 0. -1.
          1    1    1    2  501    0  0.10095256180E+03 -0.37902003228E+03  0.16730261253E+02  0.39259076180E+03  0.00000000000E+00 0. -1.
<scales pt_clust_5="13000.00000" pt_clust_6="13000.00000" pt_clust_7="13000.00000" pt_clust_8="13000.00000" pt_clust_9="371.44882"></scales>
<clustering>
<clus scale="   90.099">  7  8 -1 -1</clus>
<clus scale="  101.608">  5  6 -1 -1</clus>
<clus scale="  149.737">  2  7  1 -1</clus>
<clus scale="  371.449">  1  9  2 -1</clus>
<clus scale="  371.449">  1  5  2 -1</clus>
</clustering>
</event>
<event>
 9    2  0.3764910E-005  0.3612631E+03  0.7546771E-02  0.1109597E+00
         21   -1    0    0  501  502  0.00000000000E+00  0.00000000000E+00  0.45734011220E+03  0.45734011220E+03  0.00000000000E+00 0. -1.
          2   -1    0    0  502    0 -0.00000000000E+00 -0.00000000000E+00 -0.36400714553E+03  0.36400714553E+03  0.00000000000E+00 0. -1.
         23    2    1    2    0    0 -0.45555587096E+01 -0.10586610728E+02  0.28574436058E+02  0.95411644590E+02  0.90299801138E+02 0.  0.
         24    2    1    2    0    0  0.33099557571E+03 -0.12142219594E+03 -0.25410447954E+02  0.36245266384E+03  0.80154986461E+02 0.  0.
        -11    1    4    4    0    0  0.51364345044E+02 -0.48944002640E+02  0.90859028743E+01  0.71528770206E+02  0.00000000000E+00 0.  1.
         12    1    4    4    0    0  0.27963123066E+03 -0.72478193300E+02 -0.34496350829E+02  0.29092389363E+03  0.00000000000E+00 0. -1.
        -13    1    3    3    0    0  0.15329703920E+02 -0.38323768413E+02  0.41860607979E+02  0.58787937096E+02  0.00000000000E+00 0.  1.
         13    1    3    3    0    0 -0.19885262629E+02  0.27737157686E+02 -0.13286171921E+02  0.36623707494E+02  0.00000000000E+00 0. -1.
          1    1    1    2  501    0 -0.32644001700E+03  0.13200880667E+03  0.90168978564E+02  0.36348294930E+03  0.00000000000E+00 0. -1.
<scales pt_clust_5="13000.00000" pt_clust_6="13000.00000" pt_clust_7="13000.00000" pt_clust_8="13000.00000" pt_clust_9="352.25868"></scales>
<clustering>
<clus scale="   80.155">  5  6 -1 -1</clus>
<clus scale="   90.300">  7  8 -1 -1</clus>
<clus scale="   91.032">  2  7  1 -1</clus>
<clus scale="  352.259">  1  9  2 -1</clus>
<clus scale="  352.259">  1  5  2 -1</clus>
</clustering>
</event>
<event>
 9    2  0.3764910E-005  0.9406718E+02  0.7546771E-02  0.1299910E+00
         21   -1    0    0  501  502  0.00000000000E+00  0.00000000000E+00  0.83959826000E+02  0.83959826000E+02  0.00000000000E+00 0. -1.
          2   -1    0    0  502    0 -0.00000000000E+00 -0.00000000000E+00 -0.32293669293E+03  0.32293669293E+03  0.00000000000E+00 0. -1.
         23    2    1    2    0    0 -0.39090411040E+01  0.31199428962E+02 -0.22558230001E+03  0.24570222123E+03  0.92160308539E+02 0.  0.
         24    2    1    2    0    0 -0.95567798919E+01  0.70866763924E+01 -0.58393829263E+02  0.10059654355E+03  0.81044878021E+02 0.  0.
        -13    1    4    4    0    0 -0.29904384781E+02 -0.25949364607E+02 -0.14881066759E+02  0.42297611050E+02  0.00000000000E+00 0.  1.
         14    1    4    4    0    0  0.20347604889E+02  0.33036041000E+02 -0.43512762503E+02  0.58298932497E+02  0.00000000000E+00 0. -1.
        -11    1    3    3    0    0 -0.29413087540E+02 -0.50076956069E+01 -0.21261911762E+02  0.36637079929E+02  0.00000000000E+00 0.  1.
         11    1    3    3    0    0  0.25504046436E+02  0.36207124569E+02 -0.20432038824E+03  0.20906514130E+03  0.00000000000E+00 0. -1.
          1    1    1    2  501    0  0.13465820996E+02 -0.38286105355E+02  0.44999262335E+02  0.60597754158E+02  0.00000000000E+00 0. -1.
<scales pt_clust_5="13000.00000" pt_clust_6="13000.00000" pt_clust_7="13000.00000" pt_clust_8="13000.00000" pt_clust_9="40.58515"></scales>
<clustering>
<clus scale="   40.585">  1  9  2 -1</clus>
<clus scale="   81.045">  5  6 -1 -1</clus>
<clus scale="   83.207">  1  5  2 -1</clus>
<clus scale="   92.160">  7  8 -1 -1</clus>
<clus scale="   40.585">  1  5  2 -1</clus>
</clustering>
</event>
<event>
 9    2  0.3764910E-005  0.1245282E+03  0.7546771E-02  0.1238995E+00
         -3   -1    0    0    0  501 -0.00000000000E+00  0.00000000000E+00  0.26531711916E+03  0.26531711916E+03  0.00000000000E+00 0.  1.
         21   -1    0    0  501  502  0.00000000000E+00 -0.00000000000E+00 -0.17941952575E+03  0.17941952575E+03  0.00000000000E+00 0. -1.
         23    2    1    2    0    0  0.34980885841E+02  0.54599702794E+02  0.93583323104E+02  0.14591575273E+03  0.91262142272E+02 0.  0.
         24    2    1    2    0    0 -0.12441531686E+03 -0.11526217575E+03 -0.25318808622E+02  0.18932487149E+03  0.80239171651E+02 0.  0.
        -11    1    4    4    0    0 -0.19404639780E+02 -0.62638375261E+02  0.10755774151E+02  0.66451431722E+02  0.00000000000E+00 0.  1.
         12    1    4    4    0    0 -0.10501067708E+03 -0.52623800487E+02 -0.36074582772E+02  0.12287343977E+03  0.00000000000E+00 0. -1.
        -11    1    3    3    0    0  0.15119007798E+01  0.58076061921E+02  0.14362349561E+02  0.59844731573E+02  0.00000000000E+00 0.  1.
         11    1    3    3    0    0  0.33468985061E+02 -0.34763591262E+01  0.79220973543E+02  0.86071021156E+02  0.00000000000E+00 0. -1.
         -4    1    1    2    0  502  0.89434431016E+02  0.60662472953E+02  0.17633078933E+02  0.10949602070E+03  0.00000000000E+00 0.  1.
<scales pt_clust_5="13000.00000" pt_clust_6="13000.00000" pt_clust_7="13000.00000" pt_clust_8="13000.00000" pt_clust_9="108.06689"></scales>
<clustering>
<clus scale="   80.239">  5  6 -1 -1</clus>
<clus scale="   91.262">  7  8 -1 -1</clus>
<clus scale="  108.067">  2  9  1 -1</clus>
<clus scale="  116.691">  2  5  1 -1</clus>
<clus scale="  108.067">  2  5  1 -1</clus>
</clustering>
</event>
<event>
 9    2  0.3764910E-005  0.9602923E+02  0.7546771E-02  0.1303135E+00
          2   -1    0    0  502    0 -0.00000000000E+00  0.00000000000E+00  0.12734424155E+02  0.12734424155E+02  0.00000000000E+00 0. -1.
         21   -1    0    0  501  502  0.00000000000E+00 -0.00000000000E+00 -0.91443418693E+03  0.91443418693E+03  0.00000000000E+00 0. -1.
         24    2    1    2    0    0 -0.12256241457E+02 -0.21436945811E+01 -0.21835951121E+03  0.23078624726E+03  0.73665493321E+02 0.  0.
         23    2    1    2    0    0 -0.22441980166E+02 -0.69118089758E+00 -0.53536149888E+03  0.54436356779E+03  0.95998121071E+02 0.  0.
        -11    1    3    3    0    0  0.24683270028E+02  0.11149093159E+02 -0.14573030981E+03  0.14822580510E+03  0.00000000000E+00 0.  1.
         12    1    3    3    0    0 -0.36939511485E+02 -0.13292787740E+02 -0.72629201394E+02  0.82560442161E+02  0.00000000000E+00 0. -1.
        -11    1    4    4    0    0 -0.26458377387E+02  0.45101285909E+02 -0.30703340496E+03  0.31145414347E+03  0.00000000000E+00 0.  1.
         11    1    4    4    0    0  0.40163972207E+01 -0.45792466807E+02 -0.22832809392E+03  0.23290942432E+03  0.00000000000E+00 0. -1.
          1    1    1    2  501    0  0.34698221622E+02  0.28348754786E+01 -0.14797875268E+03  0.15201879603E+03  0.00000000000E+00 0. -1.
<scales pt_clust_5="13000.00000" pt_clust_6="13000.00000" pt_clust_7="13000.00000" pt_clust_8="13000.00000" pt_clust_9="34.81383"></scales>
<clustering>
<clus scale="   34.814">  2  9  1 -1</clus>
<clus scale="   73.665">  5  6 -1 -1</clus>
<clus scale="   73.706">  1  5  2 -1</clus>
<clus scale="   95.998">  7  8 -1 -1</clus>
<clus scale="   34.814">  2  5  1 -1</clus>
</clustering>
</event>
<event>
 9    2  0.3764910E-005  0.1216678E+03  0.7546771E-02  0.1243710E+00
          2   -1    0    0  502    0 -0.00000000000E+00  0.00000000000E+00  0.21403913107E+03  0.21403913107E+03  0.00000000000E+00 0. -1.
         21   -1    0    0  501  502  0.00000000000E+00 -0.00000000000E+00 -0.18503147284E+03  0.18503147284E+03  0.00000000000E+00 0.  1.
         23    2    1    2    0    0 -0.54587612914E+02  0.48701658525E+02  0.10119494180E+03  0.15447640366E+03  0.90944400684E+02 0.  0.
         24    2    1    2    0    0  0.85143741881E+02 -0.44088231336E+02  0.37705921027E+02  0.13043870480E+03  0.79995564283E+02 0.  0.
        -13    1    4    4    0    0  0.80533635058E+02 -0.36200205961E+02 -0.33690336819E+01  0.88359898570E+02  0.00000000000E+00 0.  1.
         14    1    4    4    0    0  0.46101068232E+01 -0.78880253748E+01  0.41074954709E+02  0.42078806228E+02  0.00000000000E+00 0. -1.
        -13    1    3    3    0    0 -0.20195166943E+02 -0.18580310433E+02 -0.90408043871E+00  0.27457058566E+02  0.00000000000E+00 0. -1.
         13    1    3    3    0    0 -0.34392445971E+02  0.67281968958E+02  0.10209902224E+03  0.12701934509E+03  0.00000000000E+00 0.  1.
          1    1    1    2  501    0 -0.30556128967E+02 -0.46134271887E+01 -0.10989320459E+03  0.11415549546E+03  0.00000000000E+00 0. -1.
<scales pt_clust_5="13000.00000" pt_clust_6="13000.00000" pt_clust_7="13000.00000" pt_clust_8="13000.00000" pt_clust_9="30.90244"></scales>
<clustering>
<clus scale="   30.902">  2  9  1 -1</clus>
<clus scale="   79.996">  5  6 -1 -1</clus>
<clus scale="   90.944">  7  8 -1 -1</clus>
<clus scale="  113.717">  2  5  1 -1</clus>
<clus scale="   30.902">  2  5  1 -1</clus>
</clustering>
</event>
<event>
 9    2  0.3764910E-005  0.9892481E+02  0.7546771E-02  0.1289837E+00
         21   -1    0    0  501  502  0.00000000000E+00  0.00000000000E+00  0.42648555558E+03  0.42648555558E+03  0.00000000000E+00 0.  1.
         -1   -1    0    0    0  501 -0.00000000000E+00 -0.00000000000E+00 -0.94211489060E+02  0.94211489060E+02  0.00000000000E+00 0.  1.
         23    2    1    2    0    0 -0.39417918660E+01 -0.30235132296E+02 -0.10963969629E+02  0.98479243563E+02  0.92995977518E+02 0.  0.
         24    2    1    2    0    0 -0.48436616953E+02  0.26705842170E+02  0.25363032884E+02  0.10003699578E+03  0.79402828795E+02 0.  0.
        -13    1    4    4    0    0 -0.57817136183E+02  0.46680801469E+02  0.15719894580E+02  0.75954154250E+02  0.00000000000E+00 0.  1.
         14    1    4    4    0    0  0.93805192304E+01 -0.19974959299E+02  0.96431383045E+01  0.24082841535E+02  0.00000000000E+00 0. -1.
        -13    1    3    3    0    0 -0.14746671431E+02  0.29652725757E+02  0.91991652426E+01  0.34371108569E+02  0.00000000000E+00 0. -1.
         13    1    3    3    0    0  0.10804879565E+02 -0.59887858053E+02 -0.20163134871E+02  0.64108134994E+02  0.00000000000E+00 0.  1.
         -2    1    1    2    0  502  0.52378408819E+02  0.35292901263E+01  0.31787500327E+03  0.32218080530E+03  0.00000000000E+00 0.  1.
<scales pt_clust_5="13000.00000" pt_clust_6="13000.00000" pt_clust_7="13000.00000" pt_clust_8="13000.00000" pt_clust_9="52.49718"></scales>
<clustering>
<clus scale="   52.497">  1  9  2 -1</clus>
<clus scale="   79.403">  5  6 -1 -1</clus>
<clus scale="   86.271">  1  5  2 -1</clus>
<clus scale="   92.996">  7  8 -1 -1</clus>
<clus scale="   52.497">  1  5  2 -1</clus>
</clustering>
</event>
<event>
 9    2  0.3764910E-005  0.1033370E+03  0.7546771E-02  0.1279344E+00
          2   -1    0    0  502    0 -0.00000000000E+00  0.00000000000E+00  0.16035531266E+03  0.16035531266E+03  0.00000000000E+00 0. -1.
         21   -1    0    0  501  502  0.00000000000E+00 -0.00000000000E+00 -0.10639418666E+03  0.10639418666E+03  0.00000000000E+00 0. -1.
         23    2    1    2    0    0 -0.58402883162E+02  0.28588252603E+02  0.42533071808E+02  0.12094003366E+03  0.92678177554E+02 0.  0.
         24    2    1    2    0    0  0.28657346104E+01 -0.35746784551E+02 -0.33915840793E+01  0.87885022406E+02  0.80163765382E+02 0.  0.
        -11    1    4    4    0    0 -0.18093437274E+02 -0.55262234125E+02  0.40692429604E+01  0.58291043318E+02  0.00000000000E+00 0.  1.
         12    1    4    4    0    0  0.20959171884E+02  0.19515449574E+02 -0.74608270398E+01  0.29593979088E+02  0.00000000000E+00 0. -1.
        -11    1    3    3    0    0 -0.35367281219E+02  0.51968887532E+02  0.57199096108E+02  0.84990272665E+02  0.00000000000E+00 0. -1.
         11    1    3    3    0    0 -0.23035601944E+02 -0.23380634928E+02 -0.14666024300E+02  0.35949760991E+02  0.00000000000E+00 0.  1.
          1    1    1    2  501    0  0.55537148552E+02  0.71585319478E+01  0.14819638271E+02  0.57924443264E+02  0.00000000000E+00 0. -1.
<scales pt_clust_5="13000.00000" pt_clust_6="13000.00000" pt_clust_7="13000.00000" pt_clust_8="13000.00000" pt_clust_9="55.99663"></scales>
<clustering>
<clus scale="   55.997">  2  9  1 -1</clus>
<clus scale="   80.164">  5  6 -1 -1</clus>
<clus scale="   92.280">  2  5  1 -1</clus>
<clus scale="   92.678">  7  8 -1 -1</clus>
<clus scale="   55.997">  2  5  1 -1</clus>
</clustering>
</event>
<event>
 9    2  0.3764910E-005  0.1160720E+03  0.7546771E-02  0.1253471E+00
          2   -1    0    0  502    0 -0.00000000000E+00  0.00000000000E+00  0.98340725273E+02  0.98340725273E+02  0.00000000000E+00 0. -1.
         21   -1    0    0  501  502  0.00000000000E+00 -0.00000000000E+00 -0.18207451858E+03  0.18207451858E+03  0.00000000000E+00 0.  1.
         23    2    1    2    0    0 -0.63440297917E+02 -0.37823505562E+02 -0.64767744433E+01  0.11820189386E+03  0.92056776670E+02 0.  0.
         24    2    1    2    0    0  0.70893580662E+02  0.39551420907E+01 -0.60072493117E+02  0.12351030887E+03  0.81268376623E+02 0.  0.
        -11    1    4    4    0    0  0.75365406657E+01 -0.27837485331E+02 -0.40956650906E+02  0.50091638905E+02  0.00000000000E+00 0.  1.
         12    1    4    4    0    0  0.63357039996E+02  0.31792627421E+02 -0.19115842211E+02  0.73418669961E+02  0.00000000000E+00 0. -1.
        -11    1    3    3    0    0 -0.18331176084E+02 -0.39174545638E+02  0.35964812792E+02  0.56250731567E+02  0.00000000000E+00 0. -1.
         11    1    3    3    0    0 -0.45109121833E+02  0.13510400760E+01 -0.42441587236E+02  0.61951162289E+02  0.00000000000E+00 0.  1.
          1    1    1    2  501    0 -0.74532827447E+01  0.33868363471E+02 -0.17184525750E+02  0.38703041136E+02  0.00000000000E+00 0. -1.
<scales pt_clust_5="13000.00000" pt_clust_6="13000.00000" pt_clust_7="13000.00000" pt_clust_8="13000.00000" pt_clust_9="34.67878"></scales>
<clustering>
<clus scale="   34.679">  2  9  1 -1</clus>
<clus scale="   81.268">  5  6 -1 -1</clus>
<clus scale="   92.057">  7  8 -1 -1</clus>
<clus scale="  107.716">  2  5  1 -1</clus>
<clus scale="   34.679">  2  5  1 -1</clus>
</clustering>
</event>
<event>
 9    2  0.3764910E-005  0.1050278E+03  0.7546771E-02  0.1274822E+00
         -1   -1    0    0    0  501 -0.00000000000E+00  0.00000000000E+00  0.56546644791E+02  0.56546644791E+02  0.00000000000E+00 0.  1.
         21   -1    0    0  501  502  0.00000000000E+00 -0.00000000000E+00 -0.65873219158E+03  0.65873219158E+03  0.00000000000E+00 0. -1.
         23    2    1    2    0    0  0.12611722820E+02 -0.49979464375E+02 -0.34522934963E+01  0.10595748097E+03  0.92509821268E+02 0.  0.
         24    2    1    2    0    0 -0.88290285149E+01  0.30284612838E+02 -0.54384235824E+03  0.55088158886E+03  0.81920112401E+02 0.  0.
        -13    1    4    4    0    0  0.33524079090E+02 -0.24218811981E+01 -0.17788789025E+03  0.18103544096E+03  0.00000000000E+00 0.  1.
         14    1    4    4    0    0 -0.42353107605E+02  0.32706494036E+02 -0.36595446799E+03  0.36984614790E+03  0.00000000000E+00 0. -1.
        -13    1    3    3    0    0  0.26963200908E+02  0.74086463342E+01 -0.30093804721E+02  0.41079670475E+02  0.00000000000E+00 0.  1.
         13    1    3    3    0    0 -0.14351478089E+02 -0.57388110709E+02  0.26641511224E+02  0.64877810493E+02  0.00000000000E+00 0. -1.
         -2    1    1    2    0  502 -0.37826943047E+01  0.19694851537E+02 -0.54890895053E+02  0.58439766538E+02  0.00000000000E+00 0.  1.
<scales pt_clust_5="13000.00000" pt_clust_6="13000.00000" pt_clust_7="13000.00000" pt_clust_8="13000.00000" pt_clust_9="20.05482"></scales>
<clustering>
<clus scale="   20.055">  2  9  1 -1</clus>
<clus scale="   81.920">  5  6 -1 -1</clus>
<clus scale="   92.510">  7  8 -1 -1</clus>
<clus scale="   95.832">  2  5  1 -1</clus>
<clus scale="   20.055">  2  5  1 -1</clus>
</clustering>
</event>
<event>
 9    2  0.3764910E-005  0.1095582E+03  0.7546771E-02  0.1268650E+00
         21   -1    0    0  501  502  0.00000000000E+00  0.00000000000E+00  0.79882526295E+02  0.79882526295E+02  0.00000000000E+00 0. -1.
         -1   -1    0    0    0  501 -0.00000000000E+00 -0.00000000000E+00 -0.31284453486E+03  0.31284453486E+03  0.00000000000E+00 0.  1.
         24    2    1    2    0    0 -0.49853941386E+02 -0.56908891748E+01 -0.42408128485E+02  0.12402367483E+03  0.10519325485E+03 0.  0.
         23    2    1    2    0    0  0.11803387049E+02 -0.19457292820E+02 -0.23862000501E+02  0.95884236749E+02  0.90036023897E+02 0.  0.
        -11    1    3    3    0    0  0.27464376415E+02 -0.20508410636E+02 -0.27396173864E+02  0.43879804250E+02  0.00000000000E+00 0.  1.
         12    1    3    3    0    0 -0.77318317801E+02  0.14817521461E+02 -0.15011954621E+02  0.80143870579E+02  0.00000000000E+00 0. -1.
        -13    1    4    4    0    0 -0.33209105336E+02 -0.31818457662E+02 -0.14961734267E+02  0.48364371365E+02  0.00000000000E+00 0.  1.
         13    1    4    4    0    0  0.45012492386E+02  0.12361164842E+02 -0.89002662345E+01  0.47519865384E+02  0.00000000000E+00 0. -1.
         -2    1    1    2    0  502  0.38050554337E+02  0.25148181995E+02 -0.16669187958E+03  0.17281914958E+03  0.00000000000E+00 0.  1.
<scales pt_clust_5="13000.00000" pt_clust_6="13000.00000" pt_clust_7="13000.00000" pt_clust_8="13000.00000" pt_clust_9="45.61006"></scales>
<clustering>
<clus scale="   45.610">  1  9  2 -1</clus>
<clus scale="   90.036">  7  8 -1 -1</clus>
<clus scale="   95.099">  1  7  2 -1</clus>
<clus scale="  105.193">  5  6 -1 -1</clus>
<clus scale="   45.610">  1  5  2 -1</clus>
</clustering>
</event>
<event>
 9    2  0.3764910E-005  0.1629416E+03  0.7546771E-02  0.1186837E+00
          2   -1    0    0  502    0 -0.00000000000E+00  0.00000000000E+00  0.97911705390E+03  0.97911705390E+03  0.00000000000E+00 0. -1.
         21   -1    0    0  501  502  0.00000000000E+00 -0.00000000000E+00 -0.15379228534E+03  0.15379228534E+03  0.00000000000E+00 0.  1.
         24    2    1    2    0    0  0.11913402197E+03  0.68535113364E+02  0.89527066935E+03  0.90940629356E+03  0.81364970350E+02 0.  0.
         23    2    1    2    0    0 -0.97842016298E+02 -0.57997040197E+02  0.42352687996E+01  0.14561051449E+03  0.90817220858E+02 0.  0.
        -13    1    3    3    0    0  0.11468050249E+02  0.21090880610E+02  0.44719191958E+02  0.50755763720E+02  0.00000000000E+00 0.  1.
         14    1    3    3    0    0  0.10766597172E+03  0.47444232755E+02  0.85055147740E+03  0.85865052984E+03  0.00000000000E+00 0. -1.
        -13    1    4    4    0    0 -0.15621176932E+02 -0.29942964644E+02  0.39395175779E+02  0.51890097081E+02  0.00000000000E+00 0. -1.
         13    1    4    4    0    0 -0.82220839366E+02 -0.28054075553E+02 -0.35159906979E+02  0.93720417413E+02  0.00000000000E+00 0.  1.
          1    1    1    2  501    0 -0.21292005674E+02 -0.10538073168E+02 -0.74181169593E+02  0.77892531182E+02  0.00000000000E+00 0. -1.
<scales pt_clust_5="13000.00000" pt_clust_6="13000.00000" pt_clust_7="13000.00000" pt_clust_8="13000.00000" pt_clust_9="23.75711"></scales>
<clustering>
<clus scale="   23.757">  2  9  1 -1</clus>
<clus scale="   81.365">  5  6 -1 -1</clus>
<clus scale="   90.817">  7  8 -1 -1</clus>
<clus scale="  157.868">  1  5  2 -1</clus>
<clus scale="   23.757">  2  5  1 -1</clus>
</clustering>
</event>
<event>
 9    2  0.3764910E-005  0.2285952E+03  0.7546771E-02  0.1161221E+00
          2   -1    0    0  502    0 -0.00000000000E+00  0.00000000000E+00  0.32573506896E+03  0.32573506896E+03  0.00000000000E+00 0. -1.
         21   -1    0    0  501  502  0.00000000000E+00 -0.00000000000E+00 -0.48937634637E+03  0.48937634637E+03  0.00000000000E+00 0.  1.
         23    2    1    2    0    0  0.30691176278E+02  0.30197452027E+02  0.17382798447E+03  0.20170001902E+03  0.92805684511E+02 0.  0.
         24    2    1    2    0    0 -0.20207921122E+03  0.81732503802E+02 -0.33607746328E+03  0.40870646077E+03  0.81096855445E+02 0.  0.
        -11    1    4    4    0    0 -0.16231589478E+03  0.48768328670E+02 -0.30357139987E+03  0.34767857914E+03  0.00000000000E+00 0.  1.
         12    1    4    4    0    0 -0.39763316446E+02  0.32964175132E+02 -0.32506063412E+02  0.61027881624E+02  0.00000000000E+00 0. -1.
        -13    1    3    3    0    0 -0.39071635015E+01 -0.31319009230E+02  0.59142939616E+02  0.67037553447E+02  0.00000000000E+00 0.  1.
         13    1    3    3    0    0  0.34598339779E+02  0.61516461257E+02  0.11468504486E+03  0.13466246558E+03  0.00000000000E+00 0. -1.
          1    1    1    2  501    0  0.17138803494E+03 -0.11192995583E+03 -0.13917986048E+01  0.20470493555E+03  0.00000000000E+00 0. -1.
<scales pt_clust_5="13000.00000" pt_clust_6="13000.00000" pt_clust_7="13000.00000" pt_clust_8="13000.00000" pt_clust_9="213.72672"></scales>
<clustering>
<clus scale="   81.097">  5  6 -1 -1</clus>
<clus scale="   92.806">  7  8 -1 -1</clus>
<clus scale="  102.307">  1  7  2 -1</clus>
<clus scale="  213.727">  2  9  1 -1</clus>
<clus scale="  213.727">  2  5  1 -1</clus>
</clustering>
</event>
<event>
 9    2  0.3764910E-005  0.9422439E+02  0.7546771E-02  0.1298853E+00
         -3   -1    0    0    0  501 -0.00000000000E+00  0.00000000000E+00  0.74696134868E+02  0.74696134868E+02  0.00000000000E+00 0.  1.
         21   -1    0    0  501  502  0.00000000000E+00 -0.00000000000E+00 -0.19138655850E+03  0.19138655850E+03  0.00000000000E+00 0.  1.
         23    2    1    2    0    0 -0.53097849921E+01  0.16899274558E+02  0.96660258259E+00  0.92128167154E+02  0.90404012993E+02 0.  0.
         24    2    1    2    0    0  0.32166034131E+02 -0.33183198210E+02 -0.66511580138E+02  0.11393552138E+03  0.80135724516E+02 0.  0.
        -13    1    4    4    0    0 -0.71332118812E+01 -0.36158584290E+02 -0.64725934421E+02  0.74483370737E+02  0.00000000000E+00 0.  1.
         14    1    4    4    0    0  0.39299246012E+02  0.29753860800E+01 -0.17856457166E+01  0.39452150639E+02  0.00000000000E+00 0. -1.
        -11    1    3    3    0    0 -0.17433849205E+02  0.52068475832E+02 -0.18732870599E+00  0.54909929572E+02  0.00000000000E+00 0. -1.
         11    1    3    3    0    0  0.12124064213E+02 -0.35169201274E+02  0.11539312886E+01  0.37218237582E+02  0.00000000000E+00 0.  1.
         -4    1    1    2    0  502 -0.26856249139E+02  0.16283923652E+02 -0.51145446072E+02  0.60019004834E+02  0.00000000000E+00 0.  1.
<scales pt_clust_5="13000.00000" pt_clust_6="13000.00000" pt_clust_7="13000.00000" pt_clust_8="13000.00000" pt_clust_9="31.40739"></scales>
<clustering>
<clus scale="   31.407">  2  9  1 -1</clus>
<clus scale="   80.136">  5  6 -1 -1</clus>
<clus scale="   84.422">  2  5  1 -1</clus>
<clus scale="   90.404">  7  8 -1 -1</clus>
<clus scale="   31.407">  2  5  1 -1</clus>
</clustering>
</event>
<event>
 9    2  0.3764910E-005  0.9988046E+02  0.7546771E-02  0.1286796E+00
         21   -1    0    0  501  502  0.00000000000E+00  0.00000000000E+00  0.37962405474E+02  0.37962405474E+02  0.00000000000E+00 0.  1.
         -3   -1    0    0    0  501 -0.00000000000E+00 -0.00000000000E+00 -0.38692867434E+03  0.38692867434E+03  0.00000000000E+00 0.  1.
         24    2    1    2    0    0  0.26536622716E+02  0.30934304973E+01 -0.11972267927E+03  0.14667312997E+03  0.80409734885E+02 0.  0.
         23    2    1    2    0    0 -0.35338856891E+02 -0.48512309952E+02 -0.14608064444E+03  0.18305267581E+03  0.92555110156E+02 0.  0.
        -11    1    3    3    0    0  0.45435732582E+02  0.79305504603E+01 -0.30388477389E+02  0.55233676175E+02  0.00000000000E+00 0.  1.
         12    1    3    3    0    0 -0.18899109865E+02 -0.48371199630E+01 -0.89334201884E+02  0.91439453791E+02  0.00000000000E+00 0. -1.
        -11    1    4    4    0    0  0.21159857239E+02  0.34028513368E+01 -0.76594660954E+02  0.79536539038E+02  0.00000000000E+00 0. -1.
         11    1    4    4    0    0 -0.56498714130E+02 -0.51915161289E+02 -0.69485983488E+02  0.10351613677E+03  0.00000000000E+00 0.  1.
         -4    1    1    2    0  502  0.88022341747E+01  0.45418879455E+02 -0.83162945155E+02  0.95165274046E+02  0.00000000000E+00 0.  1.
<scales pt_clust_5="13000.00000" pt_clust_6="13000.00000" pt_clust_7="13000.00000" pt_clust_8="13000.00000" pt_clust_9="46.26398"></scales>
<clustering>
<clus scale="   46.264">  1  9  2 -1</clus>
<clus scale="   80.410">  5  6 -1 -1</clus>
<clus scale="   88.743">  2  5  1 -1</clus>
<clus scale="   92.555">  7  8 -1 -1</clus>
<clus scale="   46.264">  1  5  2 -1</clus>
</clustering>
</event>
<event>
 9    2  0.3764910E-005  0.1025117E+03  0.7546771E-02  0.1279808E+00
          2   -1    0    0  502    0 -0.00000000000E+00  0.00000000000E+00  0.71373670310E+03  0.71373670310E+03  0.00000000000E+00 0. -1.
         21   -1    0    0  501  502  0.00000000000E+00 -0.00000000000E+00 -0.57998491029E+02  0.57998491029E+02  0.00000000000E+00 0.  1.
         23    2    1    2    0    0 -0.29875132994E+01  0.56526142474E+02  0.28012140897E+03  0.29960113351E+03  0.89937230434E+02 0.  0.
         24    2    1    2    0    0  0.74228548634E+02 -0.22891834631E+01  0.27082420730E+02  0.11228249604E+03  0.79741981481E+02 0.  0.
        -11    1    4    4    0    0  0.73736275832E+02  0.11691963578E+02 -0.74457320162E+01  0.75027856901E+02  0.00000000000E+00 0.  1.
         12    1    4    4    0    0  0.49227280217E+00 -0.13981147041E+02  0.34528152746E+02  0.37254639136E+02  0.00000000000E+00 0. -1.
        -13    1    3    3    0    0 -0.31688042224E+02  0.67332235947E+02  0.21740224911E+03  0.22978576965E+03  0.00000000000E+00 0.  1.
         13    1    3    3    0    0  0.28700528924E+02 -0.10806093473E+02  0.62719159864E+02  0.69815363859E+02  0.00000000000E+00 0. -1.
          1    1    1    2  501    0 -0.71241035335E+02 -0.54236959011E+02  0.34853438237E+03  0.35985156459E+03  0.00000000000E+00 0. -1.
<scales pt_clust_5="13000.00000" pt_clust_6="13000.00000" pt_clust_7="13000.00000" pt_clust_8="13000.00000" pt_clust_9="89.53737"></scales>
<clustering>
<clus scale="   79.742">  5  6 -1 -1</clus>
<clus scale="   89.537">  2  9  1 -1</clus>
<clus scale="   89.937">  7  8 -1 -1</clus>
<clus scale="   93.695">  2  5  1 -1</clus>
<clus scale="   89.537">  2  5  1 -1</clus>
</clustering>
</event>
<event>
 9    2  0.3764910E-005  0.1045090E+03  0.7546771E-02  0.1275868E+00
          2   -1    0    0  502    0 -0.00000000000E+00  0.00000000000E+00  0.93089523335E+02  0.93089523335E+02  0.00000000000E+00 0. -1.
         21   -1    0    0  501  502  0.00000000000E+00 -0.00000000000E+00 -0.30546347762E+03  0.30546347762E+03  0.00000000000E+00 0. -1.
         23    2    1    2    0    0 -0.55010486880E+02 -0.16316803887E+02  0.36736199210E+02  0.11379262415E+03  0.91141764424E+02 0.  0.
         24    2    1    2    0    0  0.34596694105E+02 -0.15124800235E+02 -0.11402771884E+03  0.14457278265E+03  0.80456683950E+02 0.  0.
        -11    1    4    4    0    0  0.24757649432E+02  0.17952265537E+02 -0.10434008667E+03  0.10872938301E+03  0.00000000000E+00 0.  1.
         12    1    4    4    0    0  0.98390446728E+01 -0.33077065773E+02 -0.96876321705E+01  0.35843399633E+02  0.00000000000E+00 0. -1.
        -13    1    3    3    0    0  0.61010487373E+01  0.28008976852E+02 -0.23835680030E+01  0.28764682797E+02  0.00000000000E+00 0.  1.
         13    1    3    3    0    0 -0.61111535617E+02 -0.44325780739E+02  0.39119767213E+02  0.85027941351E+02  0.00000000000E+00 0. -1.
          1    1    1    2  501    0  0.20413792775E+02  0.31441604122E+02 -0.13508243465E+03  0.14018759416E+03  0.00000000000E+00 0. -1.
<scales pt_clust_5="13000.00000" pt_clust_6="13000.00000" pt_clust_7="13000.00000" pt_clust_8="13000.00000" pt_clust_9="37.48730"></scales>
<clustering>
<clus scale="   37.487">  2  9  1 -1</clus>
<clus scale="   80.457">  5  6 -1 -1</clus>
<clus scale="   91.142">  7  8 -1 -1</clus>
<clus scale="   95.334">  2  5  1 -1</clus>
<clus scale="   37.487">  2  5  1 -1</clus>
</clustering>
</event>
<event>
 9    2  0.3764910E-005  0.2572740E+03  0.7546771E-02  0.1137141E+00
         21   -1    0    0  501  502  0.00000000000E+00  0.00000000000E+00  0.43163505162E+03  0.43163505162E+03  0.00000000000E+00 0.  1.
          2   -1    0    0  502    0 -0.00000000000E+00 -0.00000000000E+00 -0.27993064686E+03  0.27993064686E+03  0.00000000000E+00 0. -1.
         23    2    1    2    0    0 -0.33021785347E+02  0.86042576741E+02  0.15506595186E+03  0.20048990711E+03  0.87504229078E+02 0.  0.
         24    2    1    2    0    0 -0.11324302569E+03 -0.24856140060E+03  0.41536673172E+02  0.28786823496E+03  0.80845981621E+02 0.  0.
        -13    1    4    4    0    0 -0.12033641921E+03 -0.21587104658E+03  0.52511015653E+02  0.25266295594E+03  0.00000000000E+00 0.  1.
         14    1    4    4    0    0  0.70933935244E+01 -0.32690354022E+02 -0.10974342482E+02  0.35205279017E+02  0.00000000000E+00 0. -1.
        -13    1    3    3    0    0 -0.61023071591E+02  0.39329097686E+02  0.86677682394E+02  0.11306464441E+03  0.00000000000E+00 0. -1.
         13    1    3    3    0    0  0.28001286244E+02  0.46713479055E+02  0.68388269465E+02  0.87425262694E+02  0.00000000000E+00 0.  1.
          1    1    1    2  501    0  0.14626481104E+03  0.16251882386E+03 -0.44898220275E+02  0.22320755641E+03  0.00000000000E+00 0. -1.
<scales pt_clust_5="13000.00000" pt_clust_6="13000.00000" pt_clust_7="13000.00000" pt_clust_8="13000.00000" pt_clust_9="244.24143"></scales>
<clustering>
<clus scale="   80.846">  5  6 -1 -1</clus>
<clus scale="   87.504">  7  8 -1 -1</clus>
<clus scale="  127.086">  2  7  1 -1</clus>
<clus scale="  244.241">  1  9  2 -1</clus>
<clus scale="  244.241">  1  5  2 -1</clus>
</clustering>
</event>
<event>
 9    2  0.3764910E-005  0.1739451E+03  0.7546771E-02  0.1175440E+00
         -3   -1    0    0    0  501 -0.00000000000E+00  0.00000000000E+00  0.26768613775E+03  0.26768613775E+03  0.00000000000E+00 0.  1.
         21   -1    0    0  501  502  0.00000000000E+00 -0.00000000000E+00 -0.15143394071E+03  0.15143394071E+03  0.00000000000E+00 0.  1.
         24    2    1    2    0    0 -0.88932282732E+02  0.95967562843E+02  0.69342432259E+02  0.17217171029E+03  0.87840770040E+02 0.  0.
         23    2    1    2    0    0  0.80080773963E+02 -0.14389503193E+03  0.26867513101E+02  0.19425032881E+03  0.99461632854E+02 0.  0.
        -13    1    3    3    0    0 -0.99125774945E+02  0.88335422728E+02  0.80473893654E+02  0.15525821629E+03  0.00000000000E+00 0.  1.
         14    1    3    3    0    0  0.10193492213E+02  0.76321401148E+01 -0.11131461395E+02  0.16913493992E+02  0.00000000000E+00 0. -1.
        -11    1    4    4    0    0  0.86679989904E+02 -0.10832777860E+03 -0.14269772726E+02  0.13947026450E+03  0.00000000000E+00 0.  1.
         11    1    4    4    0    0 -0.65992159406E+01 -0.35567253324E+02  0.41137285827E+02  0.54780064305E+02  0.00000000000E+00 0. -1.
         -4    1    1    2    0  502  0.88515087684E+01  0.47927469085E+02  0.20042251676E+02  0.52698039362E+02  0.00000000000E+00 0.  1.
<scales pt_clust_5="13000.00000" pt_clust_6="13000.00000" pt_clust_7="13000.00000" pt_clust_8="13000.00000" pt_clust_9="48.73801"></scales>
<clustering>
<clus scale="   48.738">  2  9  1 -1</clus>
<clus scale="   87.841">  5  6 -1 -1</clus>
<clus scale="   99.462">  7  8 -1 -1</clus>
<clus scale="  167.572">  1  5  2 -1</clus>
<clus scale="   48.738">  2  5  1 -1</clus>
</clustering>
</event>
<event>
 9    2  0.3764910E-005  0.1955279E+03  0.7546771E-02  0.1154457E+00
         21   -1    0    0  501  502  0.00000000000E+00  0.00000000000E+00  0.30527079725E+03  0.30527079725E+03  0.00000000000E+00 0. -1.
          2   -1    0    0  502    0 -0.00000000000E+00 -0.00000000000E+00 -0.11027107598E+04  0.11027107598E+04  0.00000000000E+00 0. -1.
         24    2    1    2    0    0 -0.16586548246E+03 -0.46104326768E+02 -0.97643552482E+03  0.99455551871E+03  0.77957542578E+02 0.  0.
         23    2    1    2    0    0  0.21750760580E+03  0.13179259384E+03  0.15553058209E+03  0.31066421024E+03  0.87427931364E+02 0.  0.
        -13    1    3    3    0    0 -0.80651505812E+02 -0.20228321265E+02 -0.26958137827E+03  0.28211339898E+03  0.00000000000E+00 0.  1.
         14    1    3    3    0    0 -0.85213976652E+02 -0.25876005503E+02 -0.70685414655E+03  0.71244211973E+03  0.00000000000E+00 0. -1.
        -11    1    4    4    0    0  0.33926066284E+01  0.25026175908E+02  0.33875408120E+02  0.42253550568E+02  0.00000000000E+00 0.  1.
         11    1    4    4    0    0  0.21411499917E+03  0.10676641793E+03  0.12165517397E+03  0.26841065967E+03  0.00000000000E+00 0. -1.
          1    1    1    2  501    0 -0.51642123336E+02 -0.85688267073E+02  0.23464980187E+02  0.10276182809E+03  0.00000000000E+00 0. -1.
<scales pt_clust_5="13000.00000" pt_clust_6="13000.00000" pt_clust_7="13000.00000" pt_clust_8="13000.00000" pt_clust_9="100.04693"></scales>
<clustering>
<clus scale="   77.958">  5  6 -1 -1</clus>
<clus scale="   87.428">  7  8 -1 -1</clus>
<clus scale="  100.047">  1  9  2 -1</clus>
<clus scale="  191.481">  2  5  1 -1</clus>
<clus scale="  100.047">  1  5  2 -1</clus>
</clustering>
</event>
<event>
 9    2  0.3764910E-005  0.1389931E+03  0.7546771E-02  0.1221439E+00
         21   -1    0    0  501  502  0.00000000000E+00  0.00000000000E+00  0.75924115781E+03  0.75924115781E+03  0.00000000000E+00 0.  1.
          2   -1    0    0  502    0 -0.00000000000E+00 -0.00000000000E+00 -0.73475700945E+02  0.73475700945E+02  0.00000000000E+00 0. -1.
         24    2    1    2    0    0  0.76442718309E+02 -0.47342244577E+02  0.93740710190E+02  0.15272592208E+03  0.80331246881E+02 0.  0.
         23    2    1    2    0    0  0.82192482037E+02 -0.22701320767E+02  0.40896944834E+03  0.42783925596E+03  0.92300949068E+02 0.  0.
        -11    1    3    3    0    0  0.32840560828E+02 -0.46270684115E+02  0.90411648831E+01  0.57456255590E+02  0.00000000000E+00 0.  1.
         12    1    3    3    0    0  0.43602157481E+02 -0.10715604626E+01  0.84699545307E+02  0.95269666495E+02  0.00000000000E+00 0. -1.
        -13    1    4    4    0    0 -0.19794154207E+02 -0.46537012179E+01  0.44235899271E+02  0.48685524133E+02  0.00000000000E+00 0. -1.
         13    1    4    4    0    0  0.10198663624E+03 -0.18047619549E+02  0.36473354907E+03  0.37915373183E+03  0.00000000000E+00 0.  1.
          1    1    1    2  501    0 -0.15863520035E+03  0.70043565345E+02  0.18305529833E+03  0.25215168070E+03  0.00000000000E+00 0. -1.
<scales pt_clust_5="13000.00000" pt_clust_6="13000.00000" pt_clust_7="13000.00000" pt_clust_8="13000.00000" pt_clust_9="103.92132"></scales>
<clustering>
<clus scale="   80.331">  5  6 -1 -1</clus>
<clus scale="   92.301">  7  8 -1 -1</clus>
<clus scale="  120.573">  2  5  1 -1</clus>
<clus scale="  103.921">  1  9  2 -1</clus>
<clus scale="  103.921">  1  5  2 -1</clus>
</clustering>
</event>
<event>
 9    2  0.3764910E-005  0.1135616E+03  0.7546771E-02  0.1257961E+00
          2   -1    0    0  502    0 -0.00000000000E+00  0.00000000000E+00  0.55135273994E+03  0.55135273994E+03  0.00000000000E+00 0. -1.
         21   -1    0    0  501  502  0.00000000000E+00 -0.00000000000E+00 -0.31411349847E+02  0.31411349847E+02  0.00000000000E+00 0.  1.
         24    2    1    2    0    0  0.68594292461E+02 -0.33421503353E+02  0.23980986872E+03  0.26413997072E+03  0.80243237434E+02 0.  0.
         23    2    1    2    0    0 -0.60075740922E+02  0.14487690444E+01  0.15685396563E+03  0.19098330580E+03  0.90885988925E+02 0.  0.
        -11    1    3    3    0    0  0.74491087498E+02 -0.51990706234E+02  0.18824214182E+03  0.20901449617E+03  0.00000000000E+00 0.  1.
         12    1    3    3    0    0 -0.58967950373E+01  0.18569202881E+02  0.51567726899E+02  0.55125474555E+02  0.00000000000E+00 0. -1.
        -13    1    4    4    0    0 -0.57660658611E+02  0.36263616290E+02  0.13065560918E+03  0.14734547712E+03  0.00000000000E+00 0.  1.
         13    1    4    4    0    0 -0.24150823114E+01 -0.34814847246E+02  0.26198356444E+02  0.43637828678E+02  0.00000000000E+00 0. -1.
          1    1    1    2  501    0 -0.85185515392E+01  0.31972734308E+02  0.12327755575E+03  0.12764081326E+03  0.00000000000E+00 0. -1.
<scales pt_clust_5="13000.00000" pt_clust_6="13000.00000" pt_clust_7="13000.00000" pt_clust_8="13000.00000" pt_clust_9="33.08810"></scales>
<clustering>
<clus scale="   33.088">  2  9  1 -1</clus>
<clus scale="   80.243">  5  6 -1 -1</clus>
<clus scale="   90.886">  7  8 -1 -1</clus>
<clus scale="  105.238">  1  5  2 -1</clus>
<clus scale="   33.088">  2  5  1 -1</clus>
</clustering>
</event>
<event>
 9    2  0.3764910E-005  0.1424803E+03  0.7546771E-02  0.1223832E+00
          2   -1    0    0  502    0 -0.00000000000E+00  0.00000000000E+00  0.37362393019E+03  0.37362393019E+03  0.00000000000E+00 0. -1.
         21   -1    0    0  501  502  0.00000000000E+00 -0.00000000000E+00 -0.60366114534E+02  0.60366114534E+02  0.00000000000E+00 0.  1.
         24    2    1    2    0    0 -0.67118034986E+02  0.26305574078E+02  0.20702938726E+03  0.23343702747E+03  0.80217608775E+02 0.  0.
         23    2    1    2    0    0  0.67534390394E+02  0.14271794520E+01  0.79918670730E+02  0.16232367880E+03  0.12409291696E+03 0.  0.
        -13    1    3    3    0    0 -0.21330908799E+02  0.51119999760E+02  0.96906037259E+02  0.11162007930E+03  0.00000000000E+00 0.  1.
         14    1    3    3    0    0 -0.45787126187E+02 -0.24814425682E+02  0.11012335000E+03  0.12181694817E+03  0.00000000000E+00 0. -1.
        -13    1    4    4    0    0 -0.15582392269E+02 -0.28845994353E+02 -0.11850929268E+02  0.34861825304E+02  0.00000000000E+00 0.  1.
         13    1    4    4    0    0  0.83116782664E+02  0.30273173805E+02  0.91769599998E+02  0.12746185350E+03  0.00000000000E+00 0. -1.
          1    1    1    2  501    0 -0.41635540816E+00 -0.27732753530E+02  0.26309757672E+02  0.38229338458E+02  0.00000000000E+00 0. -1.
<scales pt_clust_5="13000.00000" pt_clust_6="13000.00000" pt_clust_7="13000.00000" pt_clust_8="13000.00000" pt_clust_9="27.73588"></scales>
<clustering>
<clus scale="   27.736">  2  9  1 -1</clus>
<clus scale="   80.218">  5  6 -1 -1</clus>
<clus scale="  106.473">  1  5  2 -1</clus>
<clus scale="  124.093">  7  8 -1 -1</clus>
<clus scale="   27.736">  2  5  1 -1</clus>
</clustering>
</event>
<event>
 9    2  0.3764910E-005  0.2427135E+03  0.7546771E-02  0.1117998E+00
         21   -1    0    0  501  502  0.00000000000E+00  0.00000000000E+00  0.78002412526E+02  0.78002412526E+02  0.00000000000E+00 0. -1.
          2   -1    0    0  502    0 -0.00000000000E+00 -0.00000000000E+00 -0.79257425166E+03  0.79257425166E+03  0.00000000000E+00 0. -1.
         24    2    1    2    0    0 -0.15056074115E+02  0.66243502955E+02 -0.22012855347E+03  0.24394285438E+03  0.80228729903E+02 0.  0.
         23    2    1    2    0    0 -0.18585748610E+01  0.97522343600E+02 -0.42968339382E+03  0.44971800655E+03  0.90024467184E+02 0.  0.
        -13    1    3    3    0    0  0.29431814235E+02  0.15718169883E+02 -0.10921121652E+03  0.11419449359E+03  0.00000000000E+00 0.  1.
         14    1    3    3    0    0 -0.44487888351E+02  0.50525333072E+02 -0.11091733695E+03  0.12974836079E+03  0.00000000000E+00 0. -1.
        -13    1    4    4    0    0 -0.35293761141E+02  0.67888034867E+01 -0.10897389924E+03  0.11474775877E+03  0.00000000000E+00 0.  1.
         13    1    4    4    0    0  0.33435186280E+02  0.90733540113E+02 -0.32070949458E+03  0.33497024778E+03  0.00000000000E+00 0. -1.
          1    1    1    2  501    0  0.16914648976E+02 -0.16376584655E+03 -0.64759891849E+02  0.17691580325E+03  0.00000000000E+00 0. -1.
<scales pt_clust_5="13000.00000" pt_clust_6="13000.00000" pt_clust_7="13000.00000" pt_clust_8="13000.00000" pt_clust_9="164.63705"></scales>
<clustering>
<clus scale="   80.229">  5  6 -1 -1</clus>
<clus scale="   90.024">  7  8 -1 -1</clus>
<clus scale="   96.135">  5  7 -1 -1</clus>
<clus scale="  164.637">  1  9  2 -1</clus>
<clus scale="  164.637">  1  5  2 -1</clus>
</clustering>
</event>
<event>
 9    2  0.3764910E-005  0.1068175E+03  0.7546771E-02  0.1269565E+00
          2   -1    0    0  502    0 -0.00000000000E+00  0.00000000000E+00  0.48989282454E+03  0.48989282454E+03  0.00000000000E+00 0. -1.
         21   -1    0    0  501  502  0.00000000000E+00 -0.00000000000E+00 -0.48011628932E+02  0.48011628932E+02  0.00000000000E+00 0. -1.
         23    2    1    2    0    0  0.46919199775E+02 -0.23260236972E+02  0.34342051100E+03  0.35912497725E+03  0.91053017413E+02 0.  0.
         24    2    1    2    0    0 -0.66329745659E+02  0.30198422909E+02  0.42251015302E+02  0.11890932807E+03  0.83920796606E+02 0.  0.
        -11    1    4    4    0    0 -0.40377522437E+02 -0.25099040056E+02  0.31110963102E+02  0.56817234665E+02  0.00000000000E+00 0.  1.
         12    1    4    4    0    0 -0.25952223222E+02  0.55297462965E+02  0.11140052200E+02  0.62092093406E+02  0.00000000000E+00 0. -1.
        -11    1    3    3    0    0 -0.18734752374E+02  0.18093313268E+02  0.11403642510E+03  0.11697292499E+03  0.00000000000E+00 0. -1.
         11    1    3    3    0    0  0.65653952149E+02 -0.41353550240E+02  0.22938408590E+03  0.24215205226E+03  0.00000000000E+00 0.  1.
          1    1    1    2  501    0  0.19410545884E+02 -0.69381859371E+01  0.56209669307E+02  0.59870148148E+02  0.00000000000E+00 0. -1.
<scales pt_clust_5="13000.00000" pt_clust_6="13000.00000" pt_clust_7="13000.00000" pt_clust_8="13000.00000" pt_clust_9="20.61330"></scales>
<clustering>
<clus scale="   20.613">  2  9  1 -1</clus>
<clus scale="   83.921">  5  6 -1 -1</clus>
<clus scale="   91.053">  7  8 -1 -1</clus>
<clus scale="  100.807">  2  5  1 -1</clus>
<clus scale="   20.613">  2  5  1 -1</clus>
</clustering>
</event>
<event>
 9    2  0.3764910E-005  0.1323882E+03  0.7546771E-02  0.1226930E+00
          2   -1    0    0  502    0 -0.00000000000E+00  0.00000000000E+00  0.34157900737E+03  0.34157900737E+03  0.00000000000E+00 0. -1.
         21   -1    0    0  501  502  0.00000000000E+00 -0.00000000000E+00 -0.59248216181E+02  0.59248216181E+02  0.00000000000E+00 0. -1.
         23    2    1    2    0    0  0.82252085662E+02 -0.39570101235E+02  0.14889759422E+03  0.19667760259E+03  0.90445493460E+02 0.  0.
         24    2    1    2    0    0 -0.10010625584E+03  0.27259213238E+02  0.12645319058E+03  0.18136695551E+03  0.78353276752E+02 0.  0.
        -11    1    4    4    0    0 -0.70631689055E+02 -0.16813111864E+01  0.30603232647E+02  0.76994935902E+02  0.00000000000E+00 0.  1.
         12    1    4    4    0    0 -0.29474566786E+02  0.28940524425E+02  0.95849957930E+02  0.10437201960E+03  0.00000000000E+00 0. -1.
        -11    1    3    3    0    0  0.14211181221E+02  0.26989549943E+02  0.55474766813E+02  0.63307529022E+02  0.00000000000E+00 0.  1.
         11    1    3    3    0    0  0.68040904440E+02 -0.66559651178E+02  0.93422827410E+02  0.13337007357E+03  0.00000000000E+00 0. -1.
          1    1    1    2  501    0  0.17854170179E+02  0.12310887996E+02  0.69800063879E+01  0.22782665455E+02  0.00000000000E+00 0. -1.
<scales pt_clust_5="13000.00000" pt_clust_6="13000.00000" pt_clust_7="13000.00000" pt_clust_8="13000.00000" pt_clust_9="21.68708"></scales>
<clustering>
<clus scale="   21.687">  2  9  1 -1</clus>
<clus scale="   78.353">  5  6 -1 -1</clus>
<clus scale="   90.445">  7  8 -1 -1</clus>
<clus scale="  124.441">  2  5  1 -1</clus>
<clus scale="   21.687">  2  5  1 -1</clus>
</clustering>
</event>
<event>
 9    2  0.3764910E-005  0.1058485E+03  0.7546771E-02  0.1271541E+00
          2   -1    0    0  502    0 -0.00000000000E+00  0.00000000000E+00  0.78637863369E+03  0.78637863369E+03  0.00000000000E+00 0. -1.
         21   -1    0    0  501  502  0.00000000000E+00 -0.00000000000E+00 -0.21717725941E+02  0.21717725941E+02  0.00000000000E+00 0. -1.
         24    2    1    2    0    0  0.76228311553E+01 -0.56035653733E+02  0.45800087742E+03  0.46905856821E+03  0.83982347211E+02 0.  0.
         23    2    1    2    0    0 -0.23671535063E+02  0.42417813672E+02  0.15722497533E+03  0.18812774495E+03  0.91174245615E+02 0.  0.
        -11    1    3    3    0    0 -0.31319700891E+02 -0.29013175577E+02  0.11262616624E+03  0.12044642519E+03  0.00000000000E+00 0.  1.
         12    1    3    3    0    0  0.38942532047E+02 -0.27022478156E+02  0.34537471119E+03  0.34861214301E+03  0.00000000000E+00 0. -1.
        -11    1    4    4    0    0 -0.54933935765E+02  0.30602072974E+02  0.66881093428E+02  0.91800353088E+02  0.00000000000E+00 0. -1.
         11    1    4    4    0    0  0.31262400702E+02  0.11815740698E+02  0.90343881898E+02  0.96327391859E+02  0.00000000000E+00 0.  1.
          1    1    1    2  501    0  0.16048703907E+02  0.13617840061E+02  0.14943505500E+03  0.15091004648E+03  0.00000000000E+00 0. -1.
<scales pt_clust_5="13000.00000" pt_clust_6="13000.00000" pt_clust_7="13000.00000" pt_clust_8="13000.00000" pt_clust_9="21.04773"></scales>
<clustering>
<clus scale="   21.048">  2  9  1 -1</clus>
<clus scale="   83.982">  5  6 -1 -1</clus>
<clus scale="   91.174">  7  8 -1 -1</clus>
<clus scale="   99.721">  1  5  2 -1</clus>
<clus scale="   21.048">  2  5  1 -1</clus>
</clustering>
</event>
<event>
 9    2  0.3764910E-005  0.9832119E+02  0.7546771E-02  0.1290634E+00
          2   -1    0    0  502    0 -0.00000000000E+00  0.00000000000E+00  0.16823852466E+03  0.16823852466E+03  0.00000000000E+00 0. -1.
         21   -1    0    0  501  502  0.00000000000E+00 -0.00000000000E+00 -0.12224709330E+03  0.12224709330E+03  0.00000000000E+00 0.  1.
         23    2    1    2    0    0  0.35469299072E+02  0.25444649095E+02  0.82078260412E+02  0.13060375762E+03  0.91733305448E+02 0.  0.
         24    2    1    2    0    0  0.46411289148E+01 -0.36285197604E+02  0.20726054634E+02  0.89496722147E+02  0.79005938332E+02 0.  0.
        -13    1    4    4    0    0 -0.11959768746E+00 -0.55289409481E+02 -0.68046712884E+01  0.55706702072E+02  0.00000000000E+00 0.  1.
         14    1    4    4    0    0  0.47607266023E+01  0.19004211877E+02  0.27530725923E+02  0.33790020075E+02  0.00000000000E+00 0. -1.
        -11    1    3    3    0    0  0.24442688309E+02 -0.23432517007E+02 -0.67090579845E+00  0.33867063345E+02  0.00000000000E+00 0.  1.
         11    1    3    3    0    0  0.11026610763E+02  0.48877166102E+02  0.82749166211E+02  0.96736694277E+02  0.00000000000E+00 0. -1.
          1    1    1    2  501    0 -0.40110427987E+02  0.10840548509E+02 -0.56812883688E+02  0.70385138191E+02  0.00000000000E+00 0. -1.
<scales pt_clust_5="13000.00000" pt_clust_6="13000.00000" pt_clust_7="13000.00000" pt_clust_8="13000.00000" pt_clust_9="41.54954"></scales>
<clustering>
<clus scale="   41.550">  2  9  1 -1</clus>
<clus scale="   79.006">  5  6 -1 -1</clus>
<clus scale="   86.568">  2  5  1 -1</clus>
<clus scale="   91.733">  7  8 -1 -1</clus>
<clus scale="   41.550">  2  5  1 -1</clus>
</clustering>
</event>
<event>
 9    2  0.3764910E-005  0.9313141E+02  0.7546771E-02  0.1302105E+00
          2   -1    0    0  502    0 -0.00000000000E+00  0.00000000000E+00  0.11527924647E+04  0.11527924647E+04  0.00000000000E+00 0. -1.
         21   -1    0    0  501  502  0.00000000000E+00 -0.00000000000E+00 -0.11905301947E+02  0.11905301947E+02  0.00000000000E+00 0.  1.
         24    2    1    2    0    0 -0.99833774453E+01 -0.85705590224E+01  0.75447450396E+03  0.75898428450E+03  0.81561294030E+02 0.  0.
         23    2    1    2    0    0 -0.13312556060E+02  0.16493557887E+02  0.34237693660E+03  0.35526926287E+03  0.92439281828E+02 0.  0.
        -11    1    3    3    0    0 -0.25774492450E+02  0.41909231881E+01  0.78983552730E+02  0.83188279824E+02  0.00000000000E+00 0.  1.
         12    1    3    3    0    0  0.15791115005E+02 -0.12761482211E+02  0.67549095123E+03  0.67579600468E+03  0.00000000000E+00 0. -1.
        -13    1    4    4    0    0 -0.33073826077E+00  0.52117473735E+02  0.14033696470E+03  0.14970238514E+03  0.00000000000E+00 0.  1.
         13    1    4    4    0    0 -0.12981817800E+02 -0.35623915847E+02  0.20203997189E+03  0.20556687772E+03  0.00000000000E+00 0. -1.
          1    1    1    2  501    0  0.23295933506E+02 -0.79229988650E+01  0.44035722155E+02  0.50444219239E+02  0.00000000000E+00 0. -1.
<scales pt_clust_5="13000.00000" pt_clust_6="13000.00000" pt_clust_7="13000.00000" pt_clust_8="13000.00000" pt_clust_9="24.60639"></scales>
<clustering>
<clus scale="   24.606">  2  9  1 -1</clus>
<clus scale="   81.561">  5  6 -1 -1</clus>
<clus scale="   82.345">  1  5  2 -1</clus>
<clus scale="   92.439">  7  8 -1 -1</clus>
<clus scale="   24.606">  2  5  1 -1</clus>
</clustering>
</event>
<event>
 9    2  0.3764910E-005  0.8790511E+02  0.7546771E-02  0.1311434E+00
         -3   -1    0    0    0  501 -0.00000000000E+00  0.00000000000E+00  0.14085455379E+03  0.14085455379E+03  0.00000000000E+00 0.  1.
         21   -1    0    0  501  502  0.00000000000E+00 -0.00000000000E+00 -0.16025750119E+03  0.16025750119E+03  0.00000000000E+00 0. -1.
         23    2    1    2    0    0  0.13575567630E+02  0.17422588605E+02  0.58640322001E+02  0.10667075032E+03  0.86325656558E+02 0.  0.
         24    2    1    2    0    0  0.59145770519E+02 -0.98061354731E+01 -0.24025633812E+02  0.10353306337E+03  0.80916510473E+02 0.  0.
        -13    1    4    4    0    0  0.18059536469E+02  0.15724893940E+02  0.25029523857E+02  0.34639518059E+02  0.00000000000E+00 0.  1.
         14    1    4    4    0    0  0.41086234051E+02 -0.25531029413E+02 -0.49055157668E+02  0.68893545309E+02  0.00000000000E+00 0. -1.
        -11    1    3    3    0    0 -0.36816659383E+02  0.46500023695E+01  0.25273824071E+02  0.44898275171E+02  0.00000000000E+00 0. -1.
         11    1    3    3    0    0  0.50392227013E+02  0.12772586236E+02  0.33366497929E+02  0.61772475153E+02  0.00000000000E+00 0.  1.
         -4    1    1    2    0  502 -0.72721338149E+02 -0.76164531322E+01 -0.54017635587E+02  0.90908241293E+02  0.00000000000E+00 0.  1.
<scales pt_clust_5="13000.00000" pt_clust_6="13000.00000" pt_clust_7="13000.00000" pt_clust_8="13000.00000" pt_clust_9="73.11910"></scales>
<clustering>
<clus scale="   73.119">  2  9  1 -1</clus>
<clus scale="   80.917">  5  6 -1 -1</clus>
<clus scale="   82.599">  2  5  1 -1</clus>
<clus scale="   86.326">  7  8 -1 -1</clus>
<clus scale="   73.119">  2  5  1 -1</clus>
</clustering>
</event>
<event>
 9    2  0.3764910E-005  0.9249020E+02  0.7546771E-02  0.1299168E+00
          2   -1    0    0  502    0 -0.00000000000E+00  0.00000000000E+00  0.37136600786E+03  0.37136600786E+03  0.00000000000E+00 0. -1.
         21   -1    0    0  501  502  0.00000000000E+00 -0.00000000000E+00 -0.31773529077E+02  0.31773529077E+02  0.00000000000E+00 0.  1.
         23    2    1    2    0    0 -0.16747509472E+02  0.46223591449E+02  0.18768708205E+03  0.20878310135E+03  0.77115777636E+02 0.  0.
         24    2    1    2    0    0 -0.12371500847E+02 -0.39654730908E+02  0.11496199003E+03  0.14686030954E+03  0.81401103495E+02 0.  0.
        -13    1    4    4    0    0  0.17550628691E+02 -0.10138773291E+02 -0.40283535560E+01  0.20665113687E+02  0.00000000000E+00 0.  1.
         14    1    4    4    0    0 -0.29922129538E+02 -0.29515957617E+02  0.11899034358E+03  0.12619519585E+03  0.00000000000E+00 0. -1.
        -11    1    3    3    0    0 -0.17388501169E+02  0.67106556789E+02  0.15739231513E+03  0.17198253050E+03  0.00000000000E+00 0.  1.
         11    1    3    3    0    0  0.64099169746E+00 -0.20882965339E+02  0.30294766923E+02  0.36800570847E+02  0.00000000000E+00 0. -1.
          1    1    1    2  501    0  0.29119010318E+02 -0.65688605414E+01  0.36943406710E+02  0.47496126053E+02  0.00000000000E+00 0. -1.
<scales pt_clust_5="13000.00000" pt_clust_6="13000.00000" pt_clust_7="13000.00000" pt_clust_8="13000.00000" pt_clust_9="29.85074"></scales>
<clustering>
<clus scale="   29.851">  2  9  1 -1</clus>
<clus scale="   77.116">  7  8 -1 -1</clus>
<clus scale="   81.401">  5  6 -1 -1</clus>
<clus scale="   88.742">  1  7  2 -1</clus>
<clus scale="   29.851">  2  5  1 -1</clus>
</clustering>
</event>
<event>
 9    2  0.3764910E-005  0.1264996E+03  0.7546771E-02  0.1234894E+00
          2   -1    0    0  502    0 -0.00000000000E+00  0.00000000000E+00  0.59492747997E+02  0.59492747997E+02  0.00000000000E+00 0. -1.
         21   -1    0    0  501  502  0.00000000000E+00 -0.00000000000E+00 -0.53545796520E+03  0.53545796520E+03  0.00000000000E+00 0.  1.
         24    2    1    2    0    0 -0.85862763833E+02  0.21876869275E+02 -0.17002894317E+03  0.20834611392E+03  0.81530669369E+02 0.  0.
         23    2    1    2    0    0  0.72469958517E+02 -0.66075883337E+02 -0.31291200558E+03  0.33989720255E+03  0.89433035397E+02 0.  0.
        -11    1    3    3    0    0 -0.98511552948E+02  0.30030260984E+02 -0.15993672860E+03  0.19022644346E+03  0.00000000000E+00 0.  1.
         12    1    3    3    0    0  0.12648789115E+02 -0.81533917083E+01 -0.10092214572E+02  0.18119670455E+02  0.00000000000E+00 0. -1.
        -11    1    4    4    0    0  0.19353848439E+02 -0.60731288340E+02 -0.87529804467E+02  0.10827893379E+03  0.00000000000E+00 0. -1.
         11    1    4    4    0    0  0.53116110078E+02 -0.53445949970E+01 -0.22538220111E+03  0.23161826876E+03  0.00000000000E+00 0.  1.
          1    1    1    2  501    0  0.13392805316E+02  0.44199014062E+02  0.69757315457E+01  0.46707396725E+02  0.00000000000E+00 0. -1.
<scales pt_clust_5="13000.00000" pt_clust_6="13000.00000" pt_clust_7="13000.00000" pt_clust_8="13000.00000" pt_clust_9="46.18357"></scales>
<clustering>
<clus scale="   46.184">  2  9  1 -1</clus>
<clus scale="   81.531">  5  6 -1 -1</clus>
<clus scale="   89.433">  7  8 -1 -1</clus>
<clus scale="  121.042">  1  5  2 -1</clus>
<clus scale="   46.184">  2  5  1 -1</clus>
</clustering>
</event>
<event>
 9    2  0.3764910E-005  0.2539537E+03  0.7546771E-02  0.1110831E+00
         21   -1    0    0  501  502  0.00000000000E+00  0.00000000000E+00  0.37248829467E+03  0.37248829467E+03  0.00000000000E+00 0.  1.
          2   -1    0    0  502    0 -0.00000000000E+00 -0.00000000000E+00 -0.14846906663E+03  0.14846906663E+03  0.00000000000E+00 0. -1.
         24    2    1    2    0    0 -0.29203064642E+02 -0.77635018123E+02  0.12761417710E+03  0.18762864929E+03  0.10972290925E+03 0.  0.
         23    2    1    2    0    0 -0.23659058699E+02 -0.68391609719E+02  0.13034877413E+03  0.17436218575E+03  0.90411313255E+02 0.  0.
        -13    1    3    3    0    0  0.11073801456E+02 -0.67623914499E+02  0.12903546722E+03  0.14610193254E+03  0.00000000000E+00 0.  1.
         14    1    3    3    0    0 -0.40276866099E+02 -0.10011103625E+02 -0.14212901182E+01  0.41526716751E+02  0.00000000000E+00 0. -1.
        -11    1    4    4    0    0 -0.58090105844E+02 -0.49505984612E+02  0.91000912676E+02  0.11877065722E+03  0.00000000000E+00 0.  1.
         11    1    4    4    0    0  0.34431047145E+02 -0.18885625106E+02  0.39347861458E+02  0.55591528531E+02  0.00000000000E+00 0. -1.
          1    1    1    2  501    0  0.52862123341E+02  0.14602662784E+03 -0.33943723197E+02  0.15896652625E+03  0.00000000000E+00 0. -1.
<scales pt_clust_5="13000.00000" pt_clust_6="13000.00000" pt_clust_7="13000.00000" pt_clust_8="13000.00000" pt_clust_9="155.30037"></scales>
<clustering>
<clus scale="   90.411">  7  8 -1 -1</clus>
<clus scale="  109.723">  5  6 -1 -1</clus>
<clus scale="  110.493">  5  7 -1 -1</clus>
<clus scale="  155.300">  1  9  2 -1</clus>
<clus scale="  155.300">  1  5  2 -1</clus>
</clustering>
</event>
<event>
 9    2  0.3764910E-005  0.1559327E+03  0.7546771E-02  0.1194745E+00
          2   -1    0    0  502    0 -0.00000000000E+00  0.00000000000E+00  0.34390528382E+03  0.34390528382E+03  0.00000000000E+00 0. -1.
         21   -1    0    0  501  502  0.00000000000E+00 -0.00000000000E+00 -0.27866987590E+03  0.27866987590E+03  0.00000000000E+00 0.  1.
         23    2    1    2    0    0  0.84085323854E+02 -0.98274045466E+02  0.28071643136E+03  0.32194309185E+03  0.90097224434E+02 0.  0.
         24    2    1    2    0    0 -0.45555575162E+02  0.11005351398E+03 -0.93339262627E+02  0.17201672218E+03  0.81795161185E+02 0.  0.
        -13    1    4    4    0    0 -0.67872189264E+02  0.94894492311E+02 -0.68194053324E+02  0.13513706988E+03  0.00000000000E+00 0.  1.
         14    1    4    4    0    0  0.22316614102E+02  0.15159021673E+02 -0.25145209303E+02  0.36879652302E+02  0.00000000000E+00 0. -1.
        -11    1    3    3    0    0  0.69976906422E+01 -0.63789929844E+02  0.70155619140E+02  0.95078566043E+02  0.00000000000E+00 0.  1.
         11    1    3    3    0    0  0.77087633212E+02 -0.34484115623E+02  0.21056081222E+03  0.22686452580E+03  0.00000000000E+00 0. -1.
          1    1    1    2  501    0 -0.38529748692E+02 -0.11779468517E+02 -0.12214176081E+03  0.12861534569E+03  0.00000000000E+00 0. -1.
<scales pt_clust_5="13000.00000" pt_clust_6="13000.00000" pt_clust_7="13000.00000" pt_clust_8="13000.00000" pt_clust_9="40.29017"></scales>
<clustering>
<clus scale="   40.290">  2  9  1 -1</clus>
<clus scale="   81.795">  5  6 -1 -1</clus>
<clus scale="   90.097">  7  8 -1 -1</clus>
<clus scale="  151.288">  2  5  1 -1</clus>
<clus scale="   40.290">  2  5  1 -1</clus>
</clustering>
</event>
<event>
 9    2  0.3764910E-005  0.9339864E+02  0.7546771E-02  0.1303216E+00
         -1   -1    0    0    0  501 -0.00000000000E+00  0.00000000000E+00  0.47308011366E+02  0.47308011366E+02  0.00000000000E+00 0.  1.
         21   -1    0    0  501  502  0.00000000000E+00 -0.00000000000E+00 -0.60415679134E+03  0.60415679134E+03  0.00000000000E+00 0. -1.
         23    2    1    2    0    0 -0.10840822028E+02  0.67593422629E+00 -0.29971281287E+02  0.97823838948E+02  0.92483757792E+02 0.  0.
         24    2    1    2    0    0  0.11924948564E+02  0.58415839775E+02 -0.42021344476E+03  0.43169739695E+03  0.78922041563E+02 0.  0.
        -13    1    4    4    0    0  0.23273655838E+02  0.31806524445E+02 -0.70331380122E+02  0.80621467880E+02  0.00000000000E+00 0.  1.
         14    1    4    4    0    0 -0.11348707273E+02  0.26609315329E+02 -0.34988206464E+03  0.35107592907E+03  0.00000000000E+00 0. -1.
        -11    1    3    3    0    0  0.28307210056E+02  0.32183804107E+02 -0.14329098072E+02  0.45193123808E+02  0.00000000000E+00 0. -1.
         11    1    3    3    0    0 -0.39148032085E+02 -0.31507869880E+02 -0.15642183216E+02  0.52630715141E+02  0.00000000000E+00 0.  1.
         -2    1    1    2    0  502 -0.10841265362E+01 -0.59091774001E+02 -0.10666405393E+03  0.12194356680E+03  0.00000000000E+00 0.  1.
<scales pt_clust_5="13000.00000" pt_clust_6="13000.00000" pt_clust_7="13000.00000" pt_clust_8="13000.00000" pt_clust_9="59.10172"></scales>
<clustering>
<clus scale="   59.102">  2  9  1 -1</clus>
<clus scale="   78.922">  5  6 -1 -1</clus>
<clus scale="   79.992">  2  5  1 -1</clus>
<clus scale="   92.484">  7  8 -1 -1</clus>
<clus scale="   59.102">  2  5  1 -1</clus>
</clustering>
</event>
<event>
 9    2  0.3764910E-005  0.3989140E+03  0.7546771E-02  0.1070063E+00
         -1   -1    0    0    0  501 -0.00000000000E+00  0.00000000000E+00  0.51506600153E+03  0.51506600153E+03  0.00000000000E+00 0.  1.
         21   -1    0    0  501  502  0.00000000000E+00 -0.00000000000E+00 -0.10984214622E+04  0.10984214622E+04  0.00000000000E+00 0.  1.
         24    2    1    2    0    0  0.10534323237E+03  0.13502784163E+03  0.12957287647E+03  0.23196601196E+03  0.87689142791E+02 0.  0.
         23    2    1    2    0    0  0.28975865926E+03  0.22606388097E+03 -0.75560402893E+03  0.84457270978E+03  0.85443868565E+02 0.  0.
        -11    1    3    3    0    0  0.51416252399E+02  0.12156631933E+03  0.11356883738E+03  0.17412605156E+03  0.00000000000E+00 0.  1.
         12    1    3    3    0    0  0.53926979976E+02  0.13461522301E+02  0.16004039089E+02  0.57839960401E+02  0.00000000000E+00 0. -1.
        -11    1    4    4    0    0  0.10344860989E+03  0.32118681565E+02 -0.21028049798E+03  0.23653987492E+03  0.00000000000E+00 0. -1.
         11    1    4    4    0    0  0.18631004937E+03  0.19394519941E+03 -0.54532353095E+03  0.60803283487E+03  0.00000000000E+00 0.  1.
         -2    1    1    2    0  502 -0.39510189164E+03 -0.36109172260E+03  0.42675691742E+02  0.53694874204E+03  0.00000000000E+00 0.  1.
<scales pt_clust_5="13000.00000" pt_clust_6="13000.00000" pt_clust_7="13000.00000" pt_clust_8="13000.00000" pt_clust_9="389.65608"></scales>
<clustering>
<clus scale="   85.444">  7  8 -1 -1</clus>
<clus scale="   87.689">  5  6 -1 -1</clus>
<clus scale="  192.403">  1  5  2 -1</clus>
<clus scale="  389.656">  2  9  1 -1</clus>
<clus scale="  389.656">  2  5  1 -1</clus>
</clustering>
</event>
<event>
 9    2  0.3764910E-005  0.2648196E+03  0.7546771E-02  0.1105460E+00
         -1   -1    0    0    0  501 -0.00000000000E+00  0.00000000000E+00  0.12407314493E+03  0.12407314493E+03  0.00000000000E+00 0.  1.
         21   -1    0    0  501  502  0.00000000000E+00 -0.00000000000E+00 -0.23847434829E+04  0.23847434829E+04  0.00000000000E+00 0. -1.
         23    2    1    2    0    0 -0.11563695311E+03  0.19909251813E+03 -0.51076850270E+03  0.56946658448E+03  0.10197054374E+03 0.  0.
         24    2    1    2    0    0  0.25812239537E+02 -0.31164988688E+03 -0.17652906971E+04  0.17945244327E+04  0.79213449176E+02 0.  0.
        -13    1    4    4    0    0 -0.21921134996E+02 -0.17898651173E+03 -0.91057687600E+03  0.92826017616E+03  0.00000000000E+00 0.  1.
         14    1    4    4    0    0  0.47733374533E+02 -0.13266337516E+03 -0.85471382109E+03  0.86626425652E+03  0.00000000000E+00 0. -1.
        -13    1    3    3    0    0 -0.69395458851E+02  0.32032282813E+02 -0.19123937103E+03  0.20594730851E+03  0.00000000000E+00 0. -1.
         13    1    3    3    0    0 -0.46241494259E+02  0.16706023531E+03 -0.31952913167E+03  0.36351927597E+03  0.00000000000E+00 0.  1.
         -2    1    1    2    0  502  0.89824713572E+02  0.11255736876E+03  0.15388861846E+02  0.14482561064E+03  0.00000000000E+00 0.  1.
<scales pt_clust_5="13000.00000" pt_clust_6="13000.00000" pt_clust_7="13000.00000" pt_clust_8="13000.00000" pt_clust_9="144.00577"></scales>
<clustering>
<clus scale="   79.213">  5  6 -1 -1</clus>
<clus scale="  101.971">  7  8 -1 -1</clus>
<clus scale="  144.006">  2  9  1 -1</clus>
<clus scale="  256.917">  2  5  1 -1</clus>
<clus scale="  144.006">  2  5  1 -1</clus>
</clustering>
</event>
<event>
 9    2  0.3764910E-005  0.9086852E+02  0.7546771E-02  0.1305368E+00
         -3   -1    0    0    0  501 -0.00000000000E+00  0.00000000000E+00  0.39830669256E+02  0.39830669256E+02  0.00000000000E+00 0.  1.
         21   -1    0    0  501  502  0.00000000000E+00 -0.00000000000E+00 -0.36712113151E+03  0.36712113151E+03  0.00000000000E+00 0. -1.
         23    2    1    2    0    0 -0.20853705239E+02 -0.21263233000E+02 -0.82627205181E+02  0.11444269626E+03  0.73368069295E+02 0.  0.
         24    2    1    2    0    0  0.66551927430E+02  0.14502580459E+02 -0.20773713455E+03  0.23336882670E+03  0.81650525527E+02 0.  0.
        -13    1    4    4    0    0  0.23509171005E+02 -0.21926937570E+02 -0.21233971843E+02  0.38527305548E+02  0.00000000000E+00 0.  1.
         14    1    4    4    0    0  0.43042756425E+02  0.36429518029E+02 -0.18650316271E+03  0.19484152115E+03  0.00000000000E+00 0. -1.
        -13    1    3    3    0    0 -0.45106640389E+02 -0.20062261605E+02 -0.33555109943E+02  0.59691278685E+02  0.00000000000E+00 0.  1.
         13    1    3    3    0    0  0.24252935149E+02 -0.12009713956E+01 -0.49072095239E+02  0.54751417578E+02  0.00000000000E+00 0. -1.
         -4    1    1    2    0  502 -0.45698222191E+02  0.67606525418E+01 -0.36926122523E+02  0.59140277804E+02  0.00000000000E+00 0.  1.
<scales pt_clust_5="13000.00000" pt_clust_6="13000.00000" pt_clust_7="13000.00000" pt_clust_8="13000.00000" pt_clust_9="46.19563"></scales>
<clustering>
<clus scale="   46.196">  2  9  1 -1</clus>
<clus scale="   73.368">  7  8 -1 -1</clus>
<clus scale="   81.651">  5  6 -1 -1</clus>
<clus scale="   83.505">  1  7  2 -1</clus>
<clus scale="   46.196">  2  5  1 -1</clus>
</clustering>
</event>
<event>
 9    2  0.3764910E-005  0.1870849E+03  0.7546771E-02  0.1162295E+00
          2   -1    0    0  502    0 -0.00000000000E+00  0.00000000000E+00  0.48353078428E+03  0.48353078428E+03  0.00000000000E+00 0. -1.
         21   -1    0    0  501  502  0.00000000000E+00 -0.00000000000E+00 -0.15506527632E+03  0.15506527632E+03  0.00000000000E+00 0. -1.
         23    2    1    2    0    0 -0.94933807621E+02 -0.12995964493E+03  0.33670747620E+03  0.38413847824E+03  0.91041247765E+02 0.  0.
         24    2    1    2    0    0  0.59291419265E+02  0.17131248999E+03 -0.17882448331E+02  0.19901954037E+03  0.80159552556E+02 0.  0.
        -13    1    4    4    0    0  0.78275531548E+02  0.11998481485E+03 -0.86552079718E+01  0.14352117355E+03  0.00000000000E+00 0.  1.
         14    1    4    4    0    0 -0.18984112283E+02  0.51327675144E+02 -0.92272403594E+01  0.55498366818E+02  0.00000000000E+00 0. -1.
        -11    1    3    3    0    0 -0.90732118157E+02 -0.59917004284E+02  0.24981566335E+03  0.27245225329E+03  0.00000000000E+00 0. -1.
         11    1    3    3    0    0 -0.42016894639E+01 -0.70042640645E+02  0.86891812850E+02  0.11168622495E+03  0.00000000000E+00 0.  1.
          1    1    1    2  501    0  0.35642388356E+02 -0.41352845063E+02  0.96404800932E+01  0.55438041983E+02  0.00000000000E+00 0. -1.
<scales pt_clust_5="13000.00000" pt_clust_6="13000.00000" pt_clust_7="13000.00000" pt_clust_8="13000.00000" pt_clust_9="54.59338"></scales>
<clustering>
<clus scale="   54.593">  2  9  1 -1</clus>
<clus scale="   80.160">  5  6 -1 -1</clus>
<clus scale="   91.041">  7  8 -1 -1</clus>
<clus scale="  182.038">  2  5  1 -1</clus>
<clus scale="   54.593">  2  5  1 -1</clus>
</clustering>
</event>
<event>
 9    2  0.3764910E-005  0.1190258E+03  0.7546771E-02  0.1249782E+00
          4   -1    0    0  502    0 -0.00000000000E+00  0.00000000000E+00  0.20185059340E+03  0.20185059340E+03  0.00000000000E+00 0. -1.
         21   -1    0    0  501  502  0.00000000000E+00 -0.00000000000E+00 -0.90936195755E+02  0.90936195755E+02  0.00000000000E+00 0. -1.
         24    2    1    2    0    0 -0.50663844928E+02 -0.32934802293E+02  0.62773061976E+02  0.11845092948E+03  0.80241130347E+02 0.  0.
         23    2    1    2    0    0  0.69063924907E+02  0.61969057436E+02  0.33948282356E+02  0.13714723672E+03  0.95115134775E+02 0.  0.
        -13    1    3    3    0    0 -0.36229645463E+01  0.24161558692E+02  0.26548421796E+02  0.36079433067E+02  0.00000000000E+00 0.  1.
         14    1    3    3    0    0 -0.47040880382E+02 -0.57096360985E+02  0.36224640179E+02  0.82371496411E+02  0.00000000000E+00 0. -1.
        -11    1    4    4    0    0  0.59546661633E+02 -0.70374140111E+01  0.71308782132E+00  0.59965311655E+02  0.00000000000E+00 0.  1.
         11    1    4    4    0    0  0.95172632741E+01  0.69006471447E+02  0.33235194534E+02  0.77181925070E+02  0.00000000000E+00 0. -1.
          3    1    1    2  501    0 -0.18400079980E+02 -0.29034255143E+02  0.14193053317E+02  0.37188622957E+02  0.00000000000E+00 0. -1.
<scales pt_clust_5="13000.00000" pt_clust_6="13000.00000" pt_clust_7="13000.00000" pt_clust_8="13000.00000" pt_clust_9="34.37371"></scales>
<clustering>
<clus scale="   34.374">  2  9  1 -1</clus>
<clus scale="   80.241">  5  6 -1 -1</clus>
<clus scale="   95.115">  7  8 -1 -1</clus>
<clus scale="  107.512">  1  5  2 -1</clus>
<clus scale="   34.374">  2  5  1 -1</clus>
</clustering>
</event>
<event>
 9    2  0.3764910E-005  0.1314864E+03  0.7546771E-02  0.1227875E+00
          2   -1    0    0  502    0 -0.00000000000E+00  0.00000000000E+00  0.82713049370E+03  0.82713049370E+03  0.00000000000E+00 0. -1.
         21   -1    0    0  501  502  0.00000000000E+00 -0.00000000000E+00 -0.26693410387E+02  0.26693410387E+02  0.00000000000E+00 0. -1.
         24    2    1    2    0    0  0.65799206081E+02 -0.81468057404E+02  0.41540898553E+03  0.43611891883E+03  0.81660922123E+02 0.  0.
         23    2    1    2    0    0 -0.46714693214E+02  0.62936184901E+02  0.22391073090E+03  0.25440631766E+03  0.91887611349E+02 0.  0.
        -13    1    3    3    0    0  0.14454960157E+02 -0.79680270836E+02  0.27116511832E+03  0.28299896259E+03  0.00000000000E+00 0.  1.
         14    1    3    3    0    0  0.51344245925E+02 -0.17877865687E+01  0.14424386721E+03  0.15311995624E+03  0.00000000000E+00 0. -1.
        -13    1    4    4    0    0 -0.30272096626E+02 -0.89073263366E+01  0.19450726832E+02  0.37068464641E+02  0.00000000000E+00 0. -1.
         13    1    4    4    0    0 -0.16442596588E+02  0.71843511237E+02  0.20446000407E+03  0.21733785302E+03  0.00000000000E+00 0.  1.
          1    1    1    2  501    0 -0.19084512867E+02  0.18531872504E+02  0.16111736688E+03  0.16329866760E+03  0.00000000000E+00 0. -1.
<scales pt_clust_5="13000.00000" pt_clust_6="13000.00000" pt_clust_7="13000.00000" pt_clust_8="13000.00000" pt_clust_9="26.60168"></scales>
<clustering>
<clus scale="   26.602">  2  9  1 -1</clus>
<clus scale="   81.661">  5  6 -1 -1</clus>
<clus scale="   91.888">  7  8 -1 -1</clus>
<clus scale="  124.555">  1  5  2 -1</clus>
<clus scale="   26.602">  2  5  1 -1</clus>
</clustering>
</event>
<event>
 9    2  0.3764910E-005  0.1055824E+03  0.7546771E-02  0.1276665E+00
         21   -1    0    0  501  502  0.00000000000E+00  0.00000000000E+00  0.22029691066E+03  0.22029691066E+03  0.00000000000E+00 0. -1.
          2   -1    0    0  502    0 -0.00000000000E+00 -0.00000000000E+00 -0.21893681782E+03  0.21893681782E+03  0.00000000000E+00 0. -1.
         23    2    1    2    0    0 -0.40973351960E+02 -0.24612226044E+02 -0.15463472937E+03  0.18790076219E+03  0.95447470692E+02 0.  0.
         24    2    1    2    0    0  0.10697435534E+02  0.47912709004E+02  0.24551474174E+01  0.93111680234E+02  0.79080303718E+02 0.  0.
        -13    1    4    4    0    0  0.20593092238E+02 -0.41046248956E+01 -0.25662852583E+02  0.33158790632E+02  0.00000000000E+00 0.  1.
         14    1    4    4    0    0 -0.98956567041E+01  0.52017333900E+02  0.28118000000E+02  0.59952889602E+02  0.00000000000E+00 0. -1.
        -13    1    3    3    0    0 -0.37071967255E+02  0.67102770356E+01 -0.15157660262E+03  0.15618842798E+03  0.00000000000E+00 0. -1.
         13    1    3    3    0    0 -0.39013847048E+01 -0.31322503079E+02 -0.30581267568E+01  0.31712334210E+02  0.00000000000E+00 0.  1.
          1    1    1    2  501    0  0.30275916426E+02 -0.23300482961E+02  0.15353967480E+03  0.15822128605E+03  0.00000000000E+00 0. -1.
<scales pt_clust_5="13000.00000" pt_clust_6="13000.00000" pt_clust_7="13000.00000" pt_clust_8="13000.00000" pt_clust_9="38.20397"></scales>
<clustering>
<clus scale="   38.204">  1  9  2 -1</clus>
<clus scale="   79.080">  5  6 -1 -1</clus>
<clus scale="   91.056">  1  5  2 -1</clus>
<clus scale="   95.447">  7  8 -1 -1</clus>
<clus scale="   38.204">  1  5  2 -1</clus>
</clustering>
</event>
<event>
 9    2  0.3764910E-005  0.1159330E+03  0.7546771E-02  0.1253497E+00
         -1   -1    0    0    0  501 -0.00000000000E+00  0.00000000000E+00  0.22275717142E+03  0.22275717142E+03  0.00000000000E+00 0.  1.
         21   -1    0    0  501  502  0.00000000000E+00 -0.00000000000E+00 -0.15478579318E+03  0.15478579318E+03  0.00000000000E+00 0.  1.
         23    2    1    2    0    0 -0.70314229417E+02 -0.31639887392E+02  0.13154587241E+03  0.17807024004E+03  0.91975651703E+02 0.  0.
         24    2    1    2    0    0  0.62223915746E+02  0.27343866738E+01  0.25111120148E+02  0.10584516809E+03  0.81812827179E+02 0.  0.
        -13    1    4    4    0    0  0.45832286099E+02 -0.21622710554E+02 -0.17920644507E+02  0.53752112147E+02  0.00000000000E+00 0.  1.
         14    1    4    4    0    0  0.16391629647E+02  0.24357097228E+02  0.43031764655E+02  0.52093055940E+02  0.00000000000E+00 0. -1.
        -11    1    3    3    0    0 -0.67303847995E+02  0.42438604675E+01  0.37048312693E+02  0.76944108157E+02  0.00000000000E+00 0. -1.
         11    1    3    3    0    0 -0.30103814219E+01 -0.35883747859E+02  0.94497559715E+02  0.10112613188E+03  0.00000000000E+00 0.  1.
         -2    1    1    2    0  502  0.80903136706E+01  0.28905500718E+02 -0.88685614307E+02  0.93627556478E+02  0.00000000000E+00 0.  1.
<scales pt_clust_5="13000.00000" pt_clust_6="13000.00000" pt_clust_7="13000.00000" pt_clust_8="13000.00000" pt_clust_9="30.01635"></scales>
<clustering>
<clus scale="   30.016">  2  9  1 -1</clus>
<clus scale="   81.813">  5  6 -1 -1</clus>
<clus scale="   91.976">  7  8 -1 -1</clus>
<clus scale="  108.048">  2  5  1 -1</clus>
<clus scale="   30.016">  2  5  1 -1</clus>
</clustering>
</event>
<event>
 9    2  0.3764910E-005  0.1010017E+03  0.7546771E-02  0.1286067E+00
          2   -1    0    0  502    0 -0.00000000000E+00  0.00000000000E+00  0.27567154980E+03  0.27567154980E+03  0.00000000000E+00 0. -1.
         21   -1    0    0  501  502  0.00000000000E+00 -0.00000000000E+00 -0.65771998095E+02  0.65771998095E+02  0.00000000000E+00 0.  1.
         23    2    1    2    0    0  0.22129832185E+02 -0.35799785064E+02  0.16319613519E+03  0.19458288633E+03  0.97253108051E+02 0.  0.
         24    2    1    2    0    0 -0.19727530423E+01 -0.10830564723E+02  0.95053332813E+01  0.83897221726E+02  0.82626869515E+02 0.  0.
        -13    1    4    4    0    0 -0.39467427983E+02 -0.10187184218E+02 -0.95037854370E+01  0.41854253446E+02  0.00000000000E+00 0.  1.
         14    1    4    4    0    0  0.37494674941E+02 -0.64338050519E+00  0.19009118718E+02  0.42042968280E+02  0.00000000000E+00 0. -1.
        -13    1    3    3    0    0 -0.29967658618E+02 -0.37768687524E+02  0.10998406108E+03  0.12008758475E+03  0.00000000000E+00 0.  1.
         13    1    3    3    0    0  0.52097490803E+02  0.19689024598E+01  0.53212074112E+02  0.74495301571E+02  0.00000000000E+00 0. -1.
          1    1    1    2  501    0 -0.20157079142E+02  0.46630349787E+02  0.37198083232E+02  0.62963439844E+02  0.00000000000E+00 0. -1.
<scales pt_clust_5="13000.00000" pt_clust_6="13000.00000" pt_clust_7="13000.00000" pt_clust_8="13000.00000" pt_clust_9="50.80056"></scales>
<clustering>
<clus scale="   50.801">  2  9  1 -1</clus>
<clus scale="   82.627">  5  6 -1 -1</clus>
<clus scale="   87.008">  2  5  1 -1</clus>
<clus scale="   97.253">  7  8 -1 -1</clus>
<clus scale="   50.801">  2  5  1 -1</clus>
</clustering>
</event>
<event>
 9    2  0.3764910E-005  0.1196575E+03  0.7546771E-02  0.1245723E+00
          2   -1    0    0  502    0 -0.00000000000E+00  0.00000000000E+00  0.52968960343E+03  0.52968960343E+03  0.00000000000E+00 0. -1.
         21   -1    0    0  501  502  0.00000000000E+00 -0.00000000000E+00 -0.58518081561E+02  0.58518081561E+02  0.00000000000E+00 0.  1.
         23    2    1    2    0    0  0.69379529301E+02 -0.52412393956E+02  0.18946630977E+03  0.22655580350E+03  0.88710041361E+02 0.  0.
         24    2    1    2    0    0 -0.91096930240E+02 -0.31467856070E+02  0.10347634295E+03  0.16347753490E+03  0.82028496271E+02 0.  0.
        -11    1    4    4    0    0 -0.98524565737E+02 -0.24566723961E+02  0.58112200292E+02  0.11699419559E+03  0.00000000000E+00 0.  1.
         12    1    4    4    0    0  0.74276354965E+01 -0.69011321093E+01  0.45364142662E+02  0.46483339305E+02  0.00000000000E+00 0. -1.
        -13    1    3    3    0    0  0.54527669671E+02 -0.66702325205E+02  0.88509867672E+02  0.12351705802E+03  0.00000000000E+00 0.  1.
         13    1    3    3    0    0  0.14851859630E+02  0.14289931249E+02  0.10095644210E+03  0.10303874548E+03  0.00000000000E+00 0. -1.
          1    1    1    2  501    0  0.21717400940E+02  0.83880250026E+02  0.17822886914E+03  0.19817434658E+03  0.00000000000E+00 0. -1.
<scales pt_clust_5="13000.00000" pt_clust_6="13000.00000" pt_clust_7="13000.00000" pt_clust_8="13000.00000" pt_clust_9="86.64612"></scales>
<clustering>
<clus scale="   82.028">  5  6 -1 -1</clus>
<clus scale="   86.646">  2  9  1 -1</clus>
<clus scale="   88.710">  7  8 -1 -1</clus>
<clus scale="  114.792">  2  5  1 -1</clus>
<clus scale="   86.646">  2  5  1 -1</clus>
</clustering>
</event>
<event>
 9    2  0.3764910E-005  0.1903758E+03  0.7546771E-02  0.1158279E+00
         -1   -1    0    0    0  501 -0.00000000000E+00  0.00000000000E+00  0.64723929111E+03  0.64723929111E+03  0.00000000000E+00 0.  1.
         21   -1    0    0  501  502  0.00000000000E+00 -0.00000000000E+00 -0.87031434128E+02  0.87031434128E+02  0.00000000000E+00 0. -1.
         24    2    1    2    0    0 -0.12276351387E+03  0.82448010858E+02  0.14945465248E+03  0.22698148448E+03  0.85529797825E+02 0.  0.
         23    2    1    2    0    0  0.16319787860E+03 -0.10878096626E+03  0.20472690293E+03  0.29568773007E+03  0.83971916298E+02 0.  0.
        -11    1    3    3    0    0 -0.47762703716E+01  0.43096998857E+02  0.58866164968E+02  0.73112170308E+02  0.00000000000E+00 0.  1.
         12    1    3    3    0    0 -0.11798724349E+03  0.39351012002E+02  0.90588487516E+02  0.15386931417E+03  0.00000000000E+00 0. -1.
        -13    1    4    4    0    0  0.24219050539E+02 -0.88213519017E+01 -0.36212745090E+01  0.26028682016E+02  0.00000000000E+00 0.  1.
         13    1    4    4    0    0  0.13897882806E+03 -0.99959614362E+02  0.20834817744E+03  0.26965904805E+03  0.00000000000E+00 0. -1.
         -2    1    1    2    0  502 -0.40434364730E+02  0.26332955406E+02  0.20602630157E+03  0.21160151070E+03  0.00000000000E+00 0.  1.
<scales pt_clust_5="13000.00000" pt_clust_6="13000.00000" pt_clust_7="13000.00000" pt_clust_8="13000.00000" pt_clust_9="48.25313"></scales>
<clustering>
<clus scale="   48.253">  2  9  1 -1</clus>
<clus scale="   83.972">  7  8 -1 -1</clus>
<clus scale="   85.530">  5  6 -1 -1</clus>
<clus scale="  189.681">  2  7  1 -1</clus>
<clus scale="   48.253">  2  5  1 -1</clus>
</clustering>
</event>
<event>
 9    2  0.3764910E-005  0.1080111E+03  0.7546771E-02  0.1267869E+00
         21   -1    0    0  501  502  0.00000000000E+00  0.00000000000E+00  0.11715250436E+03  0.11715250436E+03  0.00000000000E+00 0.  1.
         -1   -1    0    0    0  501 -0.00000000000E+00 -0.00000000000E+00 -0.45043075281E+03  0.45043075281E+03  0.00000000000E+00 0.  1.
         24    2    1    2    0    0  0.59560583375E+02  0.23263887000E+02 -0.35569888632E+03  0.37066659209E+03  0.82361114829E+02 0.  0.
         23    2    1    2    0    0 -0.33761240556E+02  0.53919523328E+02 -0.45041153044E+01  0.11119719673E+03  0.91090027703E+02 0.  0.
        -11    1    3    3    0    0  0.78142937267E+02  0.84730672378E+01 -0.29977767860E+03  0.30991090349E+03  0.00000000000E+00 0.  1.
         12    1    3    3    0    0 -0.18582353892E+02  0.14790819762E+02 -0.55921207712E+02  0.60755688601E+02  0.00000000000E+00 0. -1.
        -13    1    4    4    0    0  0.97910569485E+01  0.57342953265E+02 -0.24537620962E+02  0.63136153889E+02  0.00000000000E+00 0.  1.
         13    1    4    4    0    0 -0.43552297504E+02 -0.34234299371E+01  0.20033505658E+02  0.48061042845E+02  0.00000000000E+00 0. -1.
         -2    1    1    2    0  502 -0.25799342820E+02 -0.77183410328E+02  0.26924753174E+02  0.85719468345E+02  0.00000000000E+00 0.  1.
<scales pt_clust_5="13000.00000" pt_clust_6="13000.00000" pt_clust_7="13000.00000" pt_clust_8="13000.00000" pt_clust_9="81.38111"></scales>
<clustering>
<clus scale="   81.381">  1  9  2 -1</clus>
<clus scale="   82.361">  5  6 -1 -1</clus>
<clus scale="   91.090">  7  8 -1 -1</clus>
<clus scale="  100.759">  2  5  1 -1</clus>
<clus scale="   81.381">  1  5  2 -1</clus>
</clustering>
</event>
<event>
 9    2  0.3764910E-005  0.9364316E+02  0.7546771E-02  0.1298836E+00
         -3   -1    0    0    0  501 -0.00000000000E+00  0.00000000000E+00  0.45056464208E+03  0.45056464208E+03  0.00000000000E+00 0.  1.
         21   -1    0    0  501  502  0.00000000000E+00 -0.00000000000E+00 -0.40246599368E+02  0.40246599368E+02  0.00000000000E+00 0.  1.
         23    2    1    2    0    0 -0.11970000153E+02 -0.65924154661E+01  0.33901367166E+03  0.35146808375E+03  0.91721335996E+02 0.  0.
         24    2    1    2    0    0  0.32874168991E+02  0.21851900117E+02  0.63139274616E+02  0.11220453308E+03  0.83934931456E+02 0.  0.
        -13    1    4    4    0    0  0.11560181254E+02 -0.31226843998E+02  0.11745563009E+02  0.35308806650E+02  0.00000000000E+00 0.  1.
         14    1    4    4    0    0  0.21313987737E+02  0.53078744115E+02  0.51393711606E+02  0.76895726427E+02  0.00000000000E+00 0. -1.
        -11    1    3    3    0    0  0.15603575386E+01  0.37060090730E+02  0.76645939374E+02  0.85149780171E+02  0.00000000000E+00 0. -1.
         11    1    3    3    0    0 -0.13530357691E+02 -0.43652506196E+02  0.26236773228E+03  0.26631830358E+03  0.00000000000E+00 0.  1.
         -4    1    1    2    0  502 -0.20904168838E+02 -0.15259484651E+02  0.81650964393E+01  0.27138624624E+02  0.00000000000E+00 0.  1.
<scales pt_clust_5="13000.00000" pt_clust_6="13000.00000" pt_clust_7="13000.00000" pt_clust_8="13000.00000" pt_clust_9="25.88119"></scales>
<clustering>
<clus scale="   25.881">  2  9  1 -1</clus>
<clus scale="   83.935">  5  6 -1 -1</clus>
<clus scale="   86.031">  2  5  1 -1</clus>
<clus scale="   91.721">  7  8 -1 -1</clus>
<clus scale="   25.881">  2  5  1 -1</clus>
</clustering>
</event>
<event>
 9    2  0.3764910E-005  0.1267110E+03  0.7546771E-02  0.1246863E+00
          2   -1    0    0  502    0 -0.00000000000E+00  0.00000000000E+00  0.34322176596E+03  0.34322176596E+03  0.00000000000E+00 0. -1.
         21   -1    0    0  501  502  0.00000000000E+00 -0.00000000000E+00 -0.17613024544E+03  0.17613024544E+03  0.00000000000E+00 0. -1.
         23    2    1    2    0    0 -0.22465863143E+02 -0.26688889476E+02  0.24160319536E+03  0.25941962938E+03  0.87803350021E+02 0.  0.
         24    2    1    2    0    0 -0.74311412310E+02  0.62215764589E+02 -0.91027682577E+02  0.15552558908E+03  0.80679504830E+02 0.  0.
        -13    1    4    4    0    0 -0.14713418130E+02 -0.18909803004E+02 -0.87257306922E+01  0.25499092118E+02  0.00000000000E+00 0.  1.
         14    1    4    4    0    0 -0.59597994180E+02  0.81125567593E+02 -0.82301951885E+02  0.13002649696E+03  0.00000000000E+00 0. -1.
        -11    1    3    3    0    0  0.21127604478E+01  0.31364801265E+02  0.81100731224E+02  0.86980130605E+02  0.00000000000E+00 0. -1.
         11    1    3    3    0    0 -0.24578623590E+02 -0.58053690741E+02  0.16050246413E+03  0.17243949878E+03  0.00000000000E+00 0.  1.
          1    1    1    2  501    0  0.96777275452E+02 -0.35526875113E+02  0.16516007736E+02  0.10440679293E+03  0.00000000000E+00 0. -1.
<scales pt_clust_5="13000.00000" pt_clust_6="13000.00000" pt_clust_7="13000.00000" pt_clust_8="13000.00000" pt_clust_9="97.70626"></scales>
<clustering>
<clus scale="   80.680">  5  6 -1 -1</clus>
<clus scale="   87.803">  7  8 -1 -1</clus>
<clus scale="   94.480">  1  7  2 -1</clus>
<clus scale="   97.706">  2  9  1 -1</clus>
<clus scale="   97.706">  2  5  1 -1</clus>
</clustering>
</event>
<event>
 9    2  0.3764910E-005  0.1004603E+03  0.7546771E-02  0.1284122E+00
         -1   -1    0    0    0  501 -0.00000000000E+00  0.00000000000E+00  0.46113938926E+02  0.46113938926E+02  0.00000000000E+00 0.  1.
         21   -1    0    0  501  502  0.00000000000E+00 -0.00000000000E+00 -0.34366811711E+03  0.34366811711E+03  0.00000000000E+00 0.  1.
         24    2    1    2    0    0 -0.34082901593E+02  0.23387948493E+02 -0.66404710783E+02  0.11260984707E+03  0.81010812412E+02 0.  0.
         23    2    1    2    0    0  0.15042187312E+02 -0.49545610787E+02 -0.10980481211E+03  0.15158838252E+03  0.90779436021E+02 0.  0.
        -11    1    3    3    0    0 -0.52163053179E+02  0.67537269341E+01 -0.13537039231E+02  0.54312506622E+02  0.00000000000E+00 0.  1.
         12    1    3    3    0    0  0.18080151585E+02  0.16634221559E+02 -0.52867671552E+02  0.58297340450E+02  0.00000000000E+00 0. -1.
        -11    1    4    4    0    0  0.47991951034E+02 -0.47507030241E+02 -0.52824328271E+02  0.85735377434E+02  0.00000000000E+00 0. -1.
         11    1    4    4    0    0 -0.32949763722E+02 -0.20385805458E+01 -0.56980483839E+02  0.65853005084E+02  0.00000000000E+00 0.  1.
         -2    1    1    2    0  502  0.19040714281E+02  0.26157662294E+02 -0.12134465529E+03  0.12558382645E+03  0.00000000000E+00 0.  1.
<scales pt_clust_5="13000.00000" pt_clust_6="13000.00000" pt_clust_7="13000.00000" pt_clust_8="13000.00000" pt_clust_9="32.35386"></scales>
<clustering>
<clus scale="   32.354">  2  9  1 -1</clus>
<clus scale="   81.011">  5  6 -1 -1</clus>
<clus scale="   90.779">  7  8 -1 -1</clus>
<clus scale="   91.728">  1  5  2 -1</clus>
<clus scale="   32.354">  2  5  1 -1</clus>
</clustering>
</event>
<event>
 9    2  0.3764910E-005  0.9575945E+02  0.7546771E-02  0.1293747E+00
         -3   -1    0    0    0  501 -0.00000000000E+00  0.00000000000E+00  0.22751041111E+03  0.22751041111E+03  0.00000000000E+00 0.  1.
         21   -1    0    0  501  502  0.00000000000E+00 -0.00000000000E+00 -0.89207478799E+02  0.89207478799E+02  0.00000000000E+00 0.  1.
         23    2    1    2    0    0  0.13346431978E+02  0.15700630310E+02  0.81537447554E+02  0.12339615300E+03  0.90297387461E+02 0.  0.
         24    2    1    2    0    0 -0.43402301620E+02 -0.48807227095E+02 -0.17490062755E+02  0.10664250995E+03  0.82467068762E+02 0.  0.
        -11    1    4    4    0    0  0.18004594583E+02  0.96170258783E+01 -0.43486402385E+01  0.20870152964E+02  0.00000000000E+00 0.  1.
         12    1    4    4    0    0 -0.61406896203E+02 -0.58424252974E+02 -0.13141422516E+02  0.85772356984E+02  0.00000000000E+00 0. -1.
        -13    1    3    3    0    0  0.36227549213E+02  0.38793396943E+02  0.26144387538E+02  0.59168335857E+02  0.00000000000E+00 0.  1.
         13    1    3    3    0    0 -0.22881117235E+02 -0.23092766633E+02  0.55393060016E+02  0.64227817141E+02  0.00000000000E+00 0. -1.
         -4    1    1    2    0  502  0.30055869643E+02  0.33106596786E+02  0.74255547517E+02  0.86679226967E+02  0.00000000000E+00 0.  1.
<scales pt_clust_5="13000.00000" pt_clust_6="13000.00000" pt_clust_7="13000.00000" pt_clust_8="13000.00000" pt_clust_9="44.71470"></scales>
<clustering>
<clus scale="   44.715">  2  9  1 -1</clus>
<clus scale="   82.467">  5  6 -1 -1</clus>
<clus scale="   88.414">  2  5  1 -1</clus>
<clus scale="   90.297">  7  8 -1 -1</clus>
<clus scale="   44.715">  2  5  1 -1</clus>
</clustering>
</event>
<event>
 9    2  0.3764910E-005  0.1177406E+03  0.7546771E-02  0.1251372E+00
         21   -1    0    0  501  502  0.00000000000E+00  0.00000000000E+00  0.10621205856E+03  0.10621205856E+03  0.00000000000E+00 0.  1.
          2   -1    0    0  502    0 -0.00000000000E+00 -0.00000000000E+00 -0.35609320490E+03  0.35609320490E+03  0.00000000000E+00 0. -1.
         23    2    1    2    0    0  0.65127747925E+02  0.29908519077E+02 -0.19874473548E+03  0.23076764214E+03  0.92833677690E+02 0.  0.
         24    2    1    2    0    0 -0.46498225370E+02 -0.75375319170E+02  0.41981512945E+02  0.12625117037E+03  0.79582579049E+02 0.  0.
        -13    1    4    4    0    0 -0.39334467685E+02 -0.92457957594E+02  0.36951361637E+02  0.10705642156E+03  0.00000000000E+00 0.  1.
         14    1    4    4    0    0 -0.71637576850E+01  0.17082638424E+02  0.50301513077E+01  0.19194748809E+02  0.00000000000E+00 0. -1.
        -11    1    3    3    0    0  0.37536310842E+02 -0.17860660871E+02 -0.15466727020E+03  0.16015599368E+03  0.00000000000E+00 0.  1.
         11    1    3    3    0    0  0.27591437083E+02  0.47769179948E+02 -0.44077465278E+02  0.70611648462E+02  0.00000000000E+00 0. -1.
          1    1    1    2  501    0 -0.18629522555E+02  0.45466800093E+02 -0.93117923801E+02  0.10528645095E+03  0.00000000000E+00 0. -1.
<scales pt_clust_5="13000.00000" pt_clust_6="13000.00000" pt_clust_7="13000.00000" pt_clust_8="13000.00000" pt_clust_9="49.13544"></scales>
<clustering>
<clus scale="   49.135">  1  9  2 -1</clus>
<clus scale="   79.583">  5  6 -1 -1</clus>
<clus scale="   92.834">  7  8 -1 -1</clus>
<clus scale="  107.602">  1  5  2 -1</clus>
<clus scale="   49.135">  1  5  2 -1</clus>
</clustering>
</event>
<event>
 9    2  0.3764910E-005  0.3412307E+03  0.7546771E-02  0.1066647E+00
          2   -1    0    0  502    0 -0.00000000000E+00  0.00000000000E+00  0.53889332220E+03  0.53889332220E+03  0.00000000000E+00 0. -1.
         21   -1    0    0  501  502  0.00000000000E+00 -0.00000000000E+00 -0.10096654158E+04  0.10096654158E+04  0.00000000000E+00 0.  1.
         23    2    1    2    0    0 -0.32110593783E+03  0.69365532682E+02  0.44756966052E+03  0.56323415191E+03  0.94834110041E+02 0.  0.
         24    2    1    2    0    0  0.31388934357E+03 -0.44948416102E+02 -0.88332761261E+03  0.94203180472E+03  0.81298030629E+02 0.  0.
        -13    1    4    4    0    0  0.14521000346E+03 -0.61150714489E+02 -0.40447012644E+03  0.43407538305E+03  0.00000000000E+00 0.  1.
         14    1    4    4    0    0  0.16867934011E+03  0.16202298388E+02 -0.47885748616E+03  0.50795642166E+03  0.00000000000E+00 0. -1.
        -11    1    3    3    0    0 -0.10051398289E+03  0.63701499538E+02  0.18856869989E+03  0.22297779346E+03  0.00000000000E+00 0.  1.
         11    1    3    3    0    0 -0.22059195495E+03  0.56640331440E+01  0.25900096063E+03  0.34025635845E+03  0.00000000000E+00 0. -1.
          1    1    1    2  501    0  0.72165942627E+01 -0.24417116581E+02 -0.35014141554E+02  0.43292781426E+02  0.00000000000E+00 0. -1.
<scales pt_clust_5="13000.00000" pt_clust_6="13000.00000" pt_clust_7="13000.00000" pt_clust_8="13000.00000" pt_clust_9="25.46124"></scales>
<clustering>
<clus scale="   25.461">  2  9  1 -1</clus>
<clus scale="   81.298">  5  6 -1 -1</clus>
<clus scale="   94.834">  7  8 -1 -1</clus>
<clus scale="  337.719">  2  5  1 -1</clus>
<clus scale="   25.461">  2  5  1 -1</clus>
</clustering>
</event>
<event>
 9    2  0.3764910E-005  0.9511439E+02  0.7546771E-02  0.1299330E+00
         -1   -1    0    0    0  501 -0.00000000000E+00  0.00000000000E+00  0.58015034684E+02  0.58015034684E+02  0.00000000000E+00 0.  1.
         21   -1    0    0  501  502  0.00000000000E+00 -0.00000000000E+00 -0.31698490124E+03  0.31698490124E+03  0.00000000000E+00 0.  1.
         23    2    1    2    0    0 -0.14443623470E+02 -0.55326333562E+01 -0.55565543689E+02  0.11059484568E+03  0.94363456675E+02 0.  0.
         24    2    1    2    0    0 -0.33678268042E+02 -0.13741756609E+02 -0.47855409968E+02  0.10044569632E+03  0.80474443351E+02 0.  0.
        -13    1    4    4    0    0 -0.10939048645E+02  0.21466025182E+02  0.12361339134E+02  0.27078695086E+02  0.00000000000E+00 0.  1.
         14    1    4    4    0    0 -0.22739219397E+02 -0.35207781791E+02 -0.60216749102E+02  0.73367001232E+02  0.00000000000E+00 0. -1.
        -13    1    3    3    0    0 -0.54140684955E+02  0.70816127355E+00 -0.22819424286E+02  0.58757479392E+02  0.00000000000E+00 0.  1.
         13    1    3    3    0    0  0.39697061485E+02 -0.62407946298E+01 -0.32746119404E+02  0.51837366292E+02  0.00000000000E+00 0. -1.
         -2    1    1    2    0  502  0.48121891512E+02  0.19274389966E+02 -0.15554891290E+03  0.16395939392E+03  0.00000000000E+00 0.  1.
<scales pt_clust_5="13000.00000" pt_clust_6="13000.00000" pt_clust_7="13000.00000" pt_clust_8="13000.00000" pt_clust_9="51.83839"></scales>
<clustering>
<clus scale="   51.838">  2  9  1 -1</clus>
<clus scale="   80.474">  5  6 -1 -1</clus>
<clus scale="   81.354">  2  5  1 -1</clus>
<clus scale="   94.363">  7  8 -1 -1</clus>
<clus scale="   51.838">  2  5  1 -1</clus>
</clustering>
</event>
<event>
 9    2  0.3764910E-005  0.1313455E+03  0.7546771E-02  0.1228138E+00
         21   -1    0    0  501  502  0.00000000000E+00  0.00000000000E+00  0.59537720873E+02  0.59537720873E+02  0.00000000000E+00 0. -1.
          2   -1    0    0  502    0 -0.00000000000E+00 -0.00000000000E+00 -0.35997254215E+03  0.35997254215E+03  0.00000000000E+00 0. -1.
         23    2    1    2    0    0  0.77774207359E+02  0.60885088298E+02 -0.14919621171E+03  0.20153652691E+03  0.92745031044E+02 0.  0.
         24    2    1    2    0    0 -0.85581443303E+02 -0.27648343289E+02 -0.10843536495E+03  0.16322200644E+03  0.82429246574E+02 0.  0.
        -11    1    4    4    0    0 -0.20203079074E+02  0.19720470083E+02 -0.66501698191E+02  0.72246364660E+02  0.00000000000E+00 0.  1.
         12    1    4    4    0    0 -0.65378364229E+02 -0.47368813372E+02 -0.41933666755E+02  0.90975641779E+02  0.00000000000E+00 0. -1.
        -13    1    3    3    0    0  0.93408261281E+02  0.26387927340E+02 -0.98886344256E+02  0.13856383029E+03  0.00000000000E+00 0. -1.
         13    1    3    3    0    0 -0.15634053922E+02  0.34497160958E+02 -0.50309867458E+02  0.62972696622E+02  0.00000000000E+00 0.  1.
          1    1    1    2  501    0  0.78072359435E+01 -0.33236745009E+02 -0.42803244613E+02  0.54751729665E+02  0.00000000000E+00 0. -1.
<scales pt_clust_5="13000.00000" pt_clust_6="13000.00000" pt_clust_7="13000.00000" pt_clust_8="13000.00000" pt_clust_9="34.14140"></scales>
<clustering>
<clus scale="   34.141">  1  9  2 -1</clus>
<clus scale="   82.429">  5  6 -1 -1</clus>
<clus scale="   92.745">  7  8 -1 -1</clus>
<clus scale="  124.276">  1  5  2 -1</clus>
<clus scale="   34.141">  1  5  2 -1</clus>
</clustering>
</event>
<event>
 9    2  0.3764910E-005  0.1264639E+03  0.7546771E-02  0.1246447E+00
          2   -1    0    0  502    0 -0.00000000000E+00  0.00000000000E+00  0.46656511305E+03  0.46656511305E+03  0.00000000000E+00 0. -1.
         21   -1    0    0  501  502  0.00000000000E+00 -0.00000000000E+00 -0.83876738745E+02  0.83876738745E+02  0.00000000000E+00 0. -1.
         23    2    1    2    0    0  0.32305260927E+02 -0.61884685259E+00  0.34563028081E+02  0.10187347054E+03  0.90219666559E+02 0.  0.
         24    2    1    2    0    0  0.65370078607E+02  0.28635621131E+02  0.32744628730E+03  0.34487153910E+03  0.81376049573E+02 0.  0.
        -11    1    4    4    0    0  0.20788339119E+01 -0.22159338424E+02  0.35884602757E+02  0.42226325258E+02  0.00000000000E+00 0.  1.
         12    1    4    4    0    0  0.63291244695E+02  0.50794959555E+02  0.29156168454E+03  0.30264521384E+03  0.00000000000E+00 0. -1.
        -11    1    3    3    0    0  0.61188100646E+02 -0.13637722907E+02  0.31169761821E+02  0.70010893429E+02  0.00000000000E+00 0. -1.
         11    1    3    3    0    0 -0.28882839719E+02  0.13018876054E+02  0.33932662603E+01  0.31862577107E+02  0.00000000000E+00 0.  1.
          1    1    1    2  501    0 -0.97675339534E+02 -0.28016774279E+02  0.20679058922E+02  0.10369684215E+03  0.00000000000E+00 0. -1.
<scales pt_clust_5="13000.00000" pt_clust_6="13000.00000" pt_clust_7="13000.00000" pt_clust_8="13000.00000" pt_clust_9="96.80418"></scales>
<clustering>
<clus scale="   81.376">  5  6 -1 -1</clus>
<clus scale="   90.220">  7  8 -1 -1</clus>
<clus scale="   95.831">  1  7  2 -1</clus>
<clus scale="   96.804">  2  9  1 -1</clus>
<clus scale="   96.804">  2  5  1 -1</clus>
</clustering>
</event>
<event>
 9    2  0.3764910E-005  0.6092996E+03  0.7546771E-02  0.9886298E-01
         21   -1    0    0  501  502  0.00000000000E+00  0.00000000000E+00  0.27587443189E+03  0.27587443189E+03  0.00000000000E+00 0.  1.
         -1   -1    0    0    0  501 -0.00000000000E+00 -0.00000000000E+00 -0.12811929076E+04  0.12811929076E+04  0.00000000000E+00 0.  1.
         24    2    1    2    0    0 -0.11020628229E+03 -0.22724141568E+03 -0.20288725703E+03  0.33380166347E+03  0.80475001172E+02 0.  0.
         23    2    1    2    0    0 -0.22793174280E+03 -0.22139500267E+03 -0.45416409169E+03  0.56228008491E+03  0.94473515499E+02 0.  0.
        -13    1    3    3    0    0 -0.24868179360E+02 -0.13782248256E+03 -0.90525849332E+02  0.16675848536E+03  0.00000000000E+00 0.  1.
         14    1    3    3    0    0 -0.85338102932E+02 -0.89418933124E+02 -0.11236140770E+03  0.16704317811E+03  0.00000000000E+00 0. -1.
        -13    1    4    4    0    0 -0.66925145899E+02 -0.11891683161E+03 -0.23426323507E+03  0.27110782228E+03  0.00000000000E+00 0.  1.
         13    1    4    4    0    0 -0.16100659690E+03 -0.10247817106E+03 -0.21990085661E+03  0.29117226263E+03  0.00000000000E+00 0. -1.
         -2    1    1    2    0  502  0.33813802509E+03  0.44863641835E+03 -0.34826712696E+03  0.66098559107E+03  0.00000000000E+00 0.  1.
<scales pt_clust_5="13000.00000" pt_clust_6="13000.00000" pt_clust_7="13000.00000" pt_clust_8="13000.00000" pt_clust_9="561.79352"></scales>
<clustering>
<clus scale="   80.475">  5  6 -1 -1</clus>
<clus scale="   94.474">  7  8 -1 -1</clus>
<clus scale="  169.465">  5  7 -1 -1</clus>
<clus scale="  561.794">  1  9  2 -1</clus>
<clus scale="  561.794">  1  5  2 -1</clus>
</clustering>
</event>
<event>
 9    2  0.3764910E-005  0.9769469E+02  0.7546771E-02  0.1292404E+00
         -1   -1    0    0    0  501 -0.00000000000E+00  0.00000000000E+00  0.44733521561E+03  0.44733521561E+03  0.00000000000E+00 0.  1.
         21   -1    0    0  501  502  0.00000000000E+00 -0.00000000000E+00 -0.22742567428E+03  0.22742567428E+03  0.00000000000E+00 0. -1.
         23    2    1    2    0    0 -0.19486527277E+02  0.21815641582E+02  0.42401549874E+03  0.43508765027E+03  0.93040170248E+02 0.  0.
         24    2    1    2    0    0  0.13424788723E+02 -0.50778877259E+02 -0.16308241537E+03  0.18909118059E+03  0.80005506342E+02 0.  0.
        -13    1    4    4    0    0 -0.21355579727E+02 -0.20534886579E+00 -0.88929561554E+01  0.23134122477E+02  0.00000000000E+00 0.  1.
         14    1    4    4    0    0  0.34780368449E+02 -0.50573528393E+02 -0.15418945921E+03  0.16595705811E+03  0.00000000000E+00 0. -1.
        -11    1    3    3    0    0  0.34842149244E+02 -0.60054411426E+01  0.18877460040E+03  0.19205699790E+03  0.00000000000E+00 0.  1.
         11    1    3    3    0    0 -0.54328676521E+02  0.27821082724E+02  0.23524089835E+03  0.24303065237E+03  0.00000000000E+00 0. -1.
         -2    1    1    2    0  502  0.60617385541E+01  0.28963235677E+02 -0.41023542040E+02  0.50582059040E+02  0.00000000000E+00 0.  1.
<scales pt_clust_5="13000.00000" pt_clust_6="13000.00000" pt_clust_7="13000.00000" pt_clust_8="13000.00000" pt_clust_9="29.59077"></scales>
<clustering>
<clus scale="   29.591">  2  9  1 -1</clus>
<clus scale="   80.006">  5  6 -1 -1</clus>
<clus scale="   85.374">  2  5  1 -1</clus>
<clus scale="   93.040">  7  8 -1 -1</clus>
<clus scale="   29.591">  2  5  1 -1</clus>
</clustering>
</event>
<event>
 9    2  0.3764910E-005  0.9757296E+02  0.7546771E-02  0.1287476E+00
          2   -1    0    0  502    0 -0.00000000000E+00  0.00000000000E+00  0.99757492805E+03  0.99757492805E+03  0.00000000000E+00 0. -1.
         21   -1    0    0  501  502  0.00000000000E+00 -0.00000000000E+00 -0.18183309127E+02  0.18183309127E+02  0.00000000000E+00 0. -1.
         24    2    1    2    0    0 -0.38166278401E+02  0.89392494594E+01  0.60958109524E+03  0.61761468435E+03  0.91226156642E+02 0.  0.
         23    2    1    2    0    0  0.25377146913E+02  0.37565052146E+02  0.26746224446E+03  0.28500035944E+03  0.87372878734E+02 0.  0.
        -13    1    3    3    0    0 -0.55082821932E+02  0.23794714617E+02  0.24138098789E+03  0.24872693266E+03  0.00000000000E+00 0.  1.
         14    1    3    3    0    0  0.16916543531E+02 -0.14855465158E+02  0.36820010735E+03  0.36888775168E+03  0.00000000000E+00 0. -1.
        -11    1    4    4    0    0  0.41406384803E+02  0.12876165953E+00  0.21304968905E+03  0.21703611517E+03  0.00000000000E+00 0.  1.
         11    1    4    4    0    0 -0.16029237890E+02  0.37436290487E+02  0.54412555407E+02  0.67964244266E+02  0.00000000000E+00 0. -1.
          1    1    1    2  501    0  0.12789131488E+02 -0.46504301606E+02  0.10234827922E+03  0.11314319339E+03  0.00000000000E+00 0. -1.
<scales pt_clust_5="13000.00000" pt_clust_6="13000.00000" pt_clust_7="13000.00000" pt_clust_8="13000.00000" pt_clust_9="48.23082"></scales>
<clustering>
<clus scale="   48.231">  2  9  1 -1</clus>
<clus scale="   87.373">  7  8 -1 -1</clus>
<clus scale="   91.226">  5  6 -1 -1</clus>
<clus scale="   93.980">  2  7  1 -1</clus>
<clus scale="   48.231">  2  5  1 -1</clus>
</clustering>
</event>
<event>
 9    2  0.3764910E-005  0.2919301E+03  0.7546771E-02  0.1089770E+00
          2   -1    0    0  502    0 -0.00000000000E+00  0.00000000000E+00  0.28333794397E+03  0.28333794397E+03  0.00000000000E+00 0. -1.
         21   -1    0    0  501  502  0.00000000000E+00 -0.00000000000E+00 -0.41166795496E+03  0.41166795496E+03  0.00000000000E+00 0.  1.
         23    2    1    2    0    0 -0.14920246335E+03 -0.23210159337E+03  0.29007328936E+02  0.29223736115E+03  0.91808090071E+02 0.  0.
         24    2    1    2    0    0  0.20463468979E+03  0.19742023020E+03 -0.16222102541E+03  0.33719888730E+03  0.80853725658E+02 0.  0.
        -11    1    4    4    0    0  0.14176269159E+03  0.84766756337E+02 -0.74543512492E+02  0.18121478682E+03  0.00000000000E+00 0.  1.
         12    1    4    4    0    0  0.62871998198E+02  0.11265347386E+03 -0.87677512922E+02  0.15598410048E+03  0.00000000000E+00 0. -1.
        -11    1    3    3    0    0 -0.83216556184E+02 -0.64615743816E+02  0.37990613590E+02  0.11199766200E+03  0.00000000000E+00 0.  1.
         11    1    3    3    0    0 -0.65985907165E+02 -0.16748584956E+03 -0.89832846540E+01  0.18023969915E+03  0.00000000000E+00 0. -1.
          1    1    1    2  501    0 -0.55432226441E+02  0.34681363173E+02  0.48836854888E+01  0.65569650478E+02  0.00000000000E+00 0. -1.
<scales pt_clust_5="13000.00000" pt_clust_6="13000.00000" pt_clust_7="13000.00000" pt_clust_8="13000.00000" pt_clust_9="65.38756"></scales>
<clustering>
<clus scale="   65.388">  2  9  1 -1</clus>
<clus scale="   80.854">  5  6 -1 -1</clus>
<clus scale="   91.808">  7  8 -1 -1</clus>
<clus scale="  288.672">  2  5  1 -1</clus>
<clus scale="   65.388">  2  5  1 -1</clus>
</clustering>
</event>
<event>
 9    2  0.3764910E-005  0.1335215E+03  0.7546771E-02  0.1237254E+00
          4   -1    0    0  502    0 -0.00000000000E+00  0.00000000000E+00  0.14656797022E+03  0.14656797022E+03  0.00000000000E+00 0. -1.
         21   -1    0    0  501  502  0.00000000000E+00 -0.00000000000E+00 -0.28272035912E+03  0.28272035912E+03  0.00000000000E+00 0. -1.
         24    2    1    2    0    0 -0.21167749000E+02 -0.53145983089E+02  0.37162410280E+01  0.98153574389E+02  0.79672734369E+02 0.  0.
         23    2    1    2    0    0  0.51085132459E+02 -0.48482178264E+02  0.41570531943E+02  0.12103120317E+03  0.89220124677E+02 0.  0.
        -13    1    3    3    0    0 -0.20496109956E+02  0.14176819754E+02  0.16139239962E+02  0.29690870789E+02  0.00000000000E+00 0.  1.
         14    1    3    3    0    0 -0.67163904363E+00 -0.67322802843E+02 -0.12422998934E+02  0.68462703600E+02  0.00000000000E+00 0. -1.
        -13    1    4    4    0    0  0.71183987007E+02 -0.41228272216E+02  0.99402202581E+01  0.82859751477E+02  0.00000000000E+00 0.  1.
         13    1    4    4    0    0 -0.20098854548E+02 -0.72539060480E+01  0.31630311685E+02  0.38171451693E+02  0.00000000000E+00 0. -1.
          3    1    1    2  501    0 -0.29917383459E+02  0.10162816135E+03 -0.18143916187E+03  0.21010355179E+03  0.00000000000E+00 0. -1.
<scales pt_clust_5="13000.00000" pt_clust_6="13000.00000" pt_clust_7="13000.00000" pt_clust_8="13000.00000" pt_clust_9="99.33657"></scales>
<clustering>
<clus scale="   79.673">  5  6 -1 -1</clus>
<clus scale="   89.220">  7  8 -1 -1</clus>
<clus scale="   98.083">  1  5  2 -1</clus>
<clus scale="   99.337">  2  9  1 -1</clus>
<clus scale="   99.337">  2  5  1 -1</clus>
</clustering>
</event>
<event>
 9    2  0.3764910E-005  0.1131231E+03  0.7546771E-02  0.1259183E+00
          2   -1    0    0  502    0 -0.00000000000E+00  0.00000000000E+00  0.12228804326E+04  0.12228804326E+04  0.00000000000E+00 0. -1.
         21   -1    0    0  501  502  0.00000000000E+00 -0.00000000000E+00 -0.31682174184E+02  0.31682174184E+02  0.00000000000E+00 0.  1.
         24    2    1    2    0    0  0.47183428830E+02  0.39321597616E+02  0.89665264312E+03  0.90245761973E+03  0.81678203924E+02 0.  0.
         23    2    1    2    0    0 -0.28192752161E+02 -0.93796362501E+02  0.20084833427E+03  0.24207169082E+03  0.93091681813E+02 0.  0.
        -11    1    3    3    0    0  0.53512922688E+02  0.45734694938E+01  0.30066250062E+03  0.30542182109E+03  0.00000000000E+00 0.  1.
         12    1    3    3    0    0 -0.63294938583E+01  0.34748128122E+02  0.59599014250E+03  0.59703579864E+03  0.00000000000E+00 0. -1.
        -11    1    4    4    0    0 -0.91891710716E+01 -0.10975717086E+03  0.16841506207E+03  0.20123297581E+03  0.00000000000E+00 0.  1.
         11    1    4    4    0    0 -0.19003581090E+02  0.15960808363E+02  0.32433272201E+02  0.40838715008E+02  0.00000000000E+00 0. -1.
          1    1    1    2  501    0 -0.18990676668E+02  0.54474764886E+02  0.93697281021E+02  0.11003329624E+03  0.00000000000E+00 0. -1.
<scales pt_clust_5="13000.00000" pt_clust_6="13000.00000" pt_clust_7="13000.00000" pt_clust_8="13000.00000" pt_clust_9="57.69008"></scales>
<clustering>
<clus scale="   57.690">  2  9  1 -1</clus>
<clus scale="   81.678">  5  6 -1 -1</clus>
<clus scale="   93.092">  7  8 -1 -1</clus>
<clus scale="  103.933">  1  5  2 -1</clus>
<clus scale="   57.690">  2  5  1 -1</clus>
</clustering>
</event>
<event>
 9    2  0.3764910E-005  0.2001648E+03  0.7546771E-02  0.1150342E+00
          2   -1    0    0  502    0 -0.00000000000E+00  0.00000000000E+00  0.68675871384E+03  0.68675871384E+03  0.00000000000E+00 0. -1.
         21   -1    0    0  501  502  0.00000000000E+00 -0.00000000000E+00 -0.11522717251E+03  0.11522717251E+03  0.00000000000E+00 0.  1.
         24    2    1    2    0    0  0.17445000924E+03 -0.65249957143E+02  0.53251101509E+03  0.56998144707E+03  0.81366493002E+02 0.  0.
         23    2    1    2    0    0 -0.15285031009E+03  0.19868417264E+02  0.34595655814E+02  0.18155039441E+03  0.89474661271E+02 0.  0.
        -13    1    3    3    0    0  0.23462992152E+02  0.13017610178E+02  0.34331845663E+02  0.43573452951E+02  0.00000000000E+00 0.  1.
         14    1    3    3    0    0  0.15098701709E+03 -0.78267567321E+02  0.49817916943E+03  0.52640799412E+03  0.00000000000E+00 0. -1.
        -11    1    4    4    0    0 -0.13753056576E+03  0.40639488317E+02  0.67280346383E+01  0.14356702609E+03  0.00000000000E+00 0.  1.
         11    1    4    4    0    0 -0.15319744325E+02 -0.20771071052E+02  0.27867621176E+02  0.37983368318E+02  0.00000000000E+00 0. -1.
          1    1    1    2  501    0 -0.21599699156E+02  0.45381539879E+02  0.44248704226E+01  0.50454044869E+02  0.00000000000E+00 0. -1.
<scales pt_clust_5="13000.00000" pt_clust_6="13000.00000" pt_clust_7="13000.00000" pt_clust_8="13000.00000" pt_clust_9="50.25964"></scales>
<clustering>
<clus scale="   50.260">  2  9  1 -1</clus>
<clus scale="   81.366">  5  6 -1 -1</clus>
<clus scale="   89.475">  7  8 -1 -1</clus>
<clus scale="  196.674">  1  5  2 -1</clus>
<clus scale="   50.260">  2  5  1 -1</clus>
</clustering>
</event>
<event>
 9    2  0.4118528E-005  0.1248369E+03  0.7546771E-02  0.1238925E+00
         -1   -1    0    0    0  501 -0.00000000000E+00  0.00000000000E+00  0.38526901148E+03  0.38526901148E+03  0.00000000000E+00 0.  1.
         21   -1    0    0  501  502  0.00000000000E+00 -0.00000000000E+00 -0.37668744111E+03  0.37668744111E+03  0.00000000000E+00 0.  1.
         23    2    1    2    0    0 -0.86676682908E+02  0.33325941080E+02  0.29431378712E+03  0.32192774608E+03  0.91615515599E+02 0.  0.
         24    2    1    2    0    0  0.70080787427E+02  0.13859627508E+02  0.37447706446E+02  0.11300093339E+03  0.79142113871E+02 0.  0.
        -13    1    4    4    0    0  0.14393715915E+02  0.20480994362E+02  0.49655143235E+02  0.55608303675E+02  0.00000000000E+00 0.  1.
         14    1    4    4    0    0  0.55687071513E+02 -0.66213668543E+01 -0.12207436789E+02  0.57392629715E+02  0.00000000000E+00 0. -1.
        -13    1    3    3    0    0 -0.41649055844E+02  0.46929494221E+02  0.75761121562E+02  0.98370568875E+02  0.00000000000E+00 0. -1.
         13    1    3    3    0    0 -0.45027627064E+02 -0.13603553141E+02  0.21855266556E+03  0.22355717721E+03  0.00000000000E+00 0.  1.
         -2    1    1    2    0  502  0.16595895480E+02 -0.47185568588E+02 -0.32317992320E+03  0.32702777312E+03  0.00000000000E+00 0.  1.
<scales pt_clust_5="13000.00000" pt_clust_6="13000.00000" pt_clust_7="13000.00000" pt_clust_8="13000.00000" pt_clust_9="50.01901"></scales>
<clustering>
<clus scale="   50.019">  2  9  1 -1</clus>
<clus scale="   79.142">  5  6 -1 -1</clus>
<clus scale="   91.616">  7  8 -1 -1</clus>
<clus scale="  115.993">  2  5  1 -1</clus>
<clus scale="   50.019">  2  5  1 -1</clus>
</clustering>
</event>
<event>
 9    2  0.3764910E-005  0.1999482E+03  0.7546771E-02  0.1180886E+00
         21   -1    0    0  501  502  0.00000000000E+00  0.00000000000E+00  0.23357885551E+03  0.23357885551E+03  0.00000000000E+00 0.  1.
         -3   -1    0    0    0  501 -0.00000000000E+00 -0.00000000000E+00 -0.46494773622E+03  0.46494773622E+03  0.00000000000E+00 0.  1.
         24    2    1    2    0    0  0.52166542638E+02 -0.11183656869E+02  0.57505668459E+02  0.11326167275E+03  0.81699952614E+02 0.  0.
         23    2    1    2    0    0 -0.21760013484E+03 -0.30399921171E+02 -0.33280336948E+03  0.40911949996E+03  0.91360323017E+02 0.  0.
        -11    1    3    3    0    0  0.19055254405E+02 -0.30326307348E+02 -0.86501221969E+01  0.36845790151E+02  0.00000000000E+00 0.  1.
         12    1    3    3    0    0  0.33111288233E+02  0.19142650479E+02  0.66155790656E+02  0.76415882598E+02  0.00000000000E+00 0. -1.
        -11    1    4    4    0    0 -0.27674066512E+02  0.25872369658E+02 -0.35833214512E+02  0.52146454638E+02  0.00000000000E+00 0. -1.
         11    1    4    4    0    0 -0.18992606832E+03 -0.56272290829E+02 -0.29697015497E+03  0.35697304532E+03  0.00000000000E+00 0.  1.
         -4    1    1    2    0  502  0.16543359220E+03  0.41583578040E+02  0.43928820310E+02  0.17614541903E+03  0.00000000000E+00 0.  1.
<scales pt_clust_5="13000.00000" pt_clust_6="13000.00000" pt_clust_7="13000.00000" pt_clust_8="13000.00000" pt_clust_9="177.85547"></scales>
<clustering>
<clus scale="   81.700">  5  6 -1 -1</clus>
<clus scale="   91.360">  7  8 -1 -1</clus>
<clus scale="   97.577">  2  5  1 -1</clus>
<clus scale="  177.855">  1  9  2 -1</clus>
<clus scale="  177.855">  1  5  2 -1</clus>
</clustering>
</event>
<event>
 9    2  0.3764910E-005  0.1096150E+03  0.7546771E-02  0.1265813E+00
         21   -1    0    0  501  502  0.00000000000E+00  0.00000000000E+00  0.10337208914E+03  0.10337208914E+03  0.00000000000E+00 0.  1.
          2   -1    0    0  502    0 -0.00000000000E+00 -0.00000000000E+00 -0.36206084062E+03  0.36206084062E+03  0.00000000000E+00 0. -1.
         23    2    1    2    0    0 -0.18926670939E+02  0.44253237905E+02 -0.19298894413E+03  0.21903476393E+03  0.91732912929E+02 0.  0.
         24    2    1    2    0    0 -0.29097219662E+01 -0.85184105176E+02 -0.12484996885E+03  0.17122566051E+03  0.80410906225E+02 0.  0.
        -13    1    4    4    0    0  0.10761052459E+02 -0.50244200490E+02 -0.12648748859E+02  0.52917584795E+02  0.00000000000E+00 0.  1.
         14    1    4    4    0    0 -0.13670774425E+02 -0.34939904686E+02 -0.11220121999E+03  0.11830807572E+03  0.00000000000E+00 0. -1.
        -13    1    3    3    0    0 -0.73367965776E+01 -0.21521787405E+02 -0.11162830562E+02  0.25330311946E+02  0.00000000000E+00 0.  1.
         13    1    3    3    0    0 -0.11589874361E+02  0.65775025310E+02 -0.18182611357E+03  0.19370445199E+03  0.00000000000E+00 0. -1.
          1    1    1    2  501    0  0.21836392905E+02  0.40930867271E+02  0.59150161502E+02  0.75172505322E+02  0.00000000000E+00 0. -1.
<scales pt_clust_5="13000.00000" pt_clust_6="13000.00000" pt_clust_7="13000.00000" pt_clust_8="13000.00000" pt_clust_9="46.39142"></scales>
<clustering>
<clus scale="   46.391">  1  9  2 -1</clus>
<clus scale="   80.411">  5  6 -1 -1</clus>
<clus scale="   91.733">  7  8 -1 -1</clus>
<clus scale="  100.332">  1  5  2 -1</clus>
<clus scale="   46.391">  1  5  2 -1</clus>
</clustering>
</event>
<event>
 9    2  0.3764910E-005  0.2487578E+03  0.7546771E-02  0.1114682E+00
         21   -1    0    0  501  502  0.00000000000E+00  0.00000000000E+00  0.12441640185E+03  0.12441640185E+03  0.00000000000E+00 0.  1.
          2   -1    0    0  502    0 -0.00000000000E+00 -0.00000000000E+00 -0.84429740912E+03  0.84429740912E+03  0.00000000000E+00 0. -1.
         23    2    1    2    0    0 -0.85661445931E+02 -0.22482790879E+03 -0.34449034024E+03  0.42983327113E+03  0.90540458153E+02 0.  0.
         24    2    1    2    0    0  0.98990590949E+02  0.19175790105E+03 -0.83461512191E+02  0.24478204790E+03  0.79888655283E+02 0.  0.
        -13    1    4    4    0    0  0.52860746028E+02  0.16600980293E+03 -0.46546520953E+02  0.18033327966E+03  0.00000000000E+00 0.  1.
         14    1    4    4    0    0  0.46129844922E+02  0.25748098124E+02 -0.36914991238E+02  0.64448768239E+02  0.00000000000E+00 0. -1.
        -13    1    3    3    0    0 -0.97191705398E+02 -0.18278374768E+03 -0.24205871931E+03  0.31850988934E+03  0.00000000000E+00 0.  1.
         13    1    3    3    0    0  0.11530259467E+02 -0.42044161110E+02 -0.10243162093E+03  0.11132338179E+03  0.00000000000E+00 0. -1.
          1    1    1    2  501    0 -0.13329145018E+02  0.33070007732E+02 -0.29192915484E+03  0.29409849194E+03  0.00000000000E+00 0. -1.
<scales pt_clust_5="13000.00000" pt_clust_6="13000.00000" pt_clust_7="13000.00000" pt_clust_8="13000.00000" pt_clust_9="35.65519"></scales>
<clustering>
<clus scale="   35.655">  1  9  2 -1</clus>
<clus scale="   79.889">  5  6 -1 -1</clus>
<clus scale="   90.540">  7  8 -1 -1</clus>
<clus scale="  245.082">  1  5  2 -1</clus>
<clus scale="   35.655">  1  5  2 -1</clus>
</clustering>
</event>
<event>
 9    2  0.3764910E-005  0.1848520E+03  0.7546771E-02  0.1196009E+00
         21   -1    0    0  501  502  0.00000000000E+00  0.00000000000E+00  0.45596076994E+02  0.45596076994E+02  0.00000000000E+00 0. -1.
          2   -1    0    0  502    0 -0.00000000000E+00 -0.00000000000E+00 -0.10580128994E+04  0.10580128994E+04  0.00000000000E+00 0. -1.
         24    2    1    2    0    0 -0.35674997697E+02  0.12807480785E+02 -0.20961814755E+03  0.22747002887E+03  0.79787901505E+02 0.  0.
         23    2    1    2    0    0  0.17791213308E+03 -0.10904483891E+02 -0.36972566021E+03  0.42030206870E+03  0.90471709796E+02 0.  0.
        -11    1    3    3    0    0 -0.32181222124E+02  0.42388411783E+02 -0.93432314299E+02  0.10752676814E+03  0.00000000000E+00 0.  1.
         12    1    3    3    0    0 -0.34937755723E+01 -0.29580930999E+02 -0.11618583326E+03  0.11994326074E+03  0.00000000000E+00 0. -1.
        -13    1    4    4    0    0  0.92304273089E+02  0.48330863495E+01 -0.28183281443E+03  0.29660271887E+03  0.00000000000E+00 0. -1.
         13    1    4    4    0    0  0.85607859987E+02 -0.15737570240E+02 -0.87892845780E+02  0.12369934983E+03  0.00000000000E+00 0.  1.
          1    1    1    2  501    0 -0.14223713538E+03 -0.19029968940E+01 -0.43307301460E+03  0.45583687878E+03  0.00000000000E+00 0. -1.
<scales pt_clust_5="13000.00000" pt_clust_6="13000.00000" pt_clust_7="13000.00000" pt_clust_8="13000.00000" pt_clust_9="161.19909"></scales>
<clustering>
<clus scale="   79.788">  5  6 -1 -1</clus>
<clus scale="   88.334">  2  5  1 -1</clus>
<clus scale="   90.472">  7  8 -1 -1</clus>
<clus scale="  161.199">  1  9  2 -1</clus>
<clus scale="  161.199">  1  5  2 -1</clus>
</clustering>
</event>
<event>
 9    2  0.3764910E-005  0.2338353E+03  0.7546771E-02  0.1123995E+00
         21   -1    0    0  501  502  0.00000000000E+00  0.00000000000E+00  0.19620856443E+03  0.19620856443E+03  0.00000000000E+00 0. -1.
          2   -1    0    0  502    0 -0.00000000000E+00 -0.00000000000E+00 -0.13132376352E+04  0.13132376352E+04  0.00000000000E+00 0. -1.
         24    2    1    2    0    0  0.10693912386E+03  0.21960372239E+03 -0.10812845858E+04  0.11123393468E+04  0.91982041249E+02 0.  0.
         23    2    1    2    0    0  0.22737176212E+01 -0.15003303640E+03 -0.14484664182E+03  0.22778229542E+03  0.91592263086E+02 0.  0.
        -13    1    3    3    0    0 -0.47387138875E+01  0.19651835721E+02 -0.28562480996E+02  0.34992361698E+02  0.00000000000E+00 0.  1.
         14    1    3    3    0    0  0.11167783775E+03  0.19995188667E+03 -0.10527221048E+04  0.10773469851E+04  0.00000000000E+00 0. -1.
        -13    1    4    4    0    0  0.28436676352E+02 -0.87919849652E+02 -0.34806921692E+02  0.98742424127E+02  0.00000000000E+00 0. -1.
         13    1    4    4    0    0 -0.26162958731E+02 -0.62113186750E+02 -0.11003972013E+03  0.12903987130E+03  0.00000000000E+00 0.  1.
          1    1    1    2  501    0 -0.10921284148E+03 -0.69570685987E+02  0.10910215687E+03  0.16932455736E+03  0.00000000000E+00 0. -1.
<scales pt_clust_5="13000.00000" pt_clust_6="13000.00000" pt_clust_7="13000.00000" pt_clust_8="13000.00000" pt_clust_9="129.48948"></scales>
<clustering>
<clus scale="   91.592">  7  8 -1 -1</clus>
<clus scale="   91.982">  5  6 -1 -1</clus>
<clus scale="  129.489">  1  9  2 -1</clus>
<clus scale="  233.682">  1  7  2 -1</clus>
<clus scale="  129.489">  1  5  2 -1</clus>
</clustering>
</event>
<event>
 9    2  0.3764910E-005  0.9688736E+02  0.7546771E-02  0.1287377E+00
         -3   -1    0    0    0  501 -0.00000000000E+00  0.00000000000E+00  0.12690836206E+03  0.12690836206E+03  0.00000000000E+00 0.  1.
         21   -1    0    0  501  502  0.00000000000E+00 -0.00000000000E+00 -0.16776379134E+03  0.16776379134E+03  0.00000000000E+00 0.  1.
         24    2    1    2    0    0  0.16216001647E+02 -0.23161799169E+02  0.68155367701E+01  0.87141283262E+02  0.82144531510E+02 0.  0.
         23    2    1    2    0    0 -0.20581718019E+02  0.96161378461E+02 -0.34556115463E+02  0.13323418541E+03  0.82985572372E+02 0.  0.
        -11    1    3    3    0    0  0.23399975745E+02 -0.47944840651E+02 -0.12637490639E+02  0.54826752408E+02  0.00000000000E+00 0.  1.
         12    1    3    3    0    0 -0.71839740985E+01  0.24783041482E+02  0.19453027409E+02  0.32314530854E+02  0.00000000000E+00 0. -1.
        -11    1    4    4    0    0  0.25757925180E+02  0.11954203330E+02 -0.22770387259E+02  0.36398684355E+02  0.00000000000E+00 0. -1.
         11    1    4    4    0    0 -0.46339643199E+02  0.84207175131E+02 -0.11785728204E+02  0.96835501056E+02  0.00000000000E+00 0.  1.
         -4    1    1    2    0  502  0.43657163719E+01 -0.72999579291E+02 -0.13114850590E+02  0.74296684732E+02  0.00000000000E+00 0.  1.
<scales pt_clust_5="13000.00000" pt_clust_6="13000.00000" pt_clust_7="13000.00000" pt_clust_8="13000.00000" pt_clust_9="73.13001"></scales>
<clustering>
<clus scale="   73.130">  2  9  1 -1</clus>
<clus scale="   82.145">  5  6 -1 -1</clus>
<clus scale="   82.986">  7  8 -1 -1</clus>
<clus scale="   96.168">  1  5  2 -1</clus>
<clus scale="   73.130">  2  5  1 -1</clus>
</clustering>
</event>
<event>
 9    2  0.3764910E-005  0.1793202E+03  0.7546771E-02  0.1169262E+00
         21   -1    0    0  501  502  0.00000000000E+00  0.00000000000E+00  0.14322271447E+03  0.14322271447E+03  0.00000000000E+00 0.  1.
          2   -1    0    0  502    0 -0.00000000000E+00 -0.00000000000E+00 -0.52429744304E+03  0.52429744304E+03  0.00000000000E+00 0. -1.
         24    2    1    2    0    0 -0.26435893334E+00  0.18581466410E+03 -0.15983961141E+03  0.25931600439E+03  0.84669531008E+02 0.  0.
         23    2    1    2    0    0 -0.11554713929E+02 -0.99690765836E+02  0.32935063743E+02  0.13957895475E+03  0.91245854588E+02 0.  0.
        -13    1    3    3    0    0 -0.24554432949E+02  0.46876364358E+02 -0.10595442401E+02  0.53968297292E+02  0.00000000000E+00 0.  1.
         14    1    3    3    0    0  0.24290074016E+02  0.13893829974E+03 -0.14924416901E+03  0.20534770710E+03  0.00000000000E+00 0. -1.
        -13    1    4    4    0    0  0.27549311047E+02 -0.18064313315E+02  0.36282772744E+02  0.49007382635E+02  0.00000000000E+00 0.  1.
         13    1    4    4    0    0 -0.39104024976E+02 -0.81626452521E+02 -0.33477090014E+01  0.90571572119E+02  0.00000000000E+00 0. -1.
          1    1    1    2  501    0  0.11819072863E+02 -0.86123898262E+02 -0.25417018090E+03  0.26862519836E+03  0.00000000000E+00 0. -1.
<scales pt_clust_5="13000.00000" pt_clust_6="13000.00000" pt_clust_7="13000.00000" pt_clust_8="13000.00000" pt_clust_9="86.93114"></scales>
<clustering>
<clus scale="   84.670">  5  6 -1 -1</clus>
<clus scale="   86.931">  1  9  2 -1</clus>
<clus scale="   91.246">  7  8 -1 -1</clus>
<clus scale="  176.065">  2  5  1 -1</clus>
<clus scale="   86.931">  1  5  2 -1</clus>
</clustering>
</event>
<event>
 9    2  0.3764910E-005  0.1011379E+03  0.7546771E-02  0.1282253E+00
         21   -1    0    0  501  502  0.00000000000E+00  0.00000000000E+00  0.16956569123E+03  0.16956569123E+03  0.00000000000E+00 0.  1.
         -1   -1    0    0    0  501 -0.00000000000E+00 -0.00000000000E+00 -0.39541645683E+03  0.39541645683E+03  0.00000000000E+00 0.  1.
         23    2    1    2    0    0 -0.32561055838E+02 -0.28537261162E+02 -0.30619459647E+03  0.32244991121E+03  0.91346684128E+02 0.  0.
         24    2    1    2    0    0  0.61624137296E+02 -0.11812591380E+02 -0.41004091476E+02  0.11139074242E+03  0.82398363856E+02 0.  0.
        -13    1    4    4    0    0  0.61173150958E+02 -0.22479845867E+02 -0.60652193146E+02  0.89029132320E+02  0.00000000000E+00 0.  1.
         14    1    4    4    0    0  0.45098633803E+00  0.10667254487E+02  0.19648101670E+02  0.22361610098E+02  0.00000000000E+00 0. -1.
        -13    1    3    3    0    0  0.32200997264E+02 -0.86870407230E+01 -0.10115325552E+03  0.10650985871E+03  0.00000000000E+00 0. -1.
         13    1    3    3    0    0 -0.64762053102E+02 -0.19850220439E+02 -0.20504134095E+03  0.21594005250E+03  0.00000000000E+00 0.  1.
         -2    1    1    2    0  502 -0.29063081458E+02  0.40349852543E+02  0.12134792234E+03  0.13114149443E+03  0.00000000000E+00 0.  1.
<scales pt_clust_5="13000.00000" pt_clust_6="13000.00000" pt_clust_7="13000.00000" pt_clust_8="13000.00000" pt_clust_9="49.72699"></scales>
<clustering>
<clus scale="   49.727">  1  9  2 -1</clus>
<clus scale="   82.398">  5  6 -1 -1</clus>
<clus scale="   91.347">  7  8 -1 -1</clus>
<clus scale="   93.135">  1  5  2 -1</clus>
<clus scale="   49.727">  1  5  2 -1</clus>
</clustering>
</event>
<event>
 9    2  0.3764910E-005  0.1002182E+03  0.7546771E-02  0.1285012E+00
          2   -1    0    0  502    0 -0.00000000000E+00  0.00000000000E+00  0.24114046854E+03  0.24114046854E+03  0.00000000000E+00 0. -1.
         21   -1    0    0  501  502  0.00000000000E+00 -0.00000000000E+00 -0.51445882735E+02  0.51445882735E+02  0.00000000000E+00 0.  1.
         24    2    1    2    0    0  0.37517716927E+02 -0.28880656646E+02  0.74764144081E+02  0.11884379184E+03  0.79325268407E+02 0.  0.
         23    2    1    2    0    0 -0.14316568326E+02  0.42736475242E+02  0.74672691679E+02  0.12525582471E+03  0.89897943780E+02 0.  0.
        -11    1    3    3    0    0  0.54158911583E+02 -0.44080690217E+02  0.57335798324E+02  0.90353133445E+02  0.00000000000E+00 0.  1.
         12    1    3    3    0    0 -0.16641194656E+02  0.15200033571E+02  0.17428345757E+02  0.28490658398E+02  0.00000000000E+00 0. -1.
        -11    1    4    4    0    0 -0.35262408311E+02 -0.12073785603E+02  0.11429191560E+02  0.38985127400E+02  0.00000000000E+00 0.  1.
         11    1    4    4    0    0  0.20945839986E+02  0.54810260845E+02  0.63243500119E+02  0.86270697307E+02  0.00000000000E+00 0. -1.
          1    1    1    2  501    0 -0.23201148601E+02 -0.13855818596E+02  0.40257750042E+02  0.48486734720E+02  0.00000000000E+00 0. -1.
<scales pt_clust_5="13000.00000" pt_clust_6="13000.00000" pt_clust_7="13000.00000" pt_clust_8="13000.00000" pt_clust_9="27.02365"></scales>
<clustering>
<clus scale="   27.024">  2  9  1 -1</clus>
<clus scale="   79.325">  5  6 -1 -1</clus>
<clus scale="   89.898">  7  8 -1 -1</clus>
<clus scale="   90.854">  1  5  2 -1</clus>
<clus scale="   27.024">  2  5  1 -1</clus>
</clustering>
</event>
<event>
 9    2  0.3764910E-005  0.2719329E+03  0.7546771E-02  0.1100694E+00
         21   -1    0    0  501  502  0.00000000000E+00  0.00000000000E+00  0.24395906744E+03  0.24395906744E+03  0.00000000000E+00 0.  1.
          2   -1    0    0  502    0 -0.00000000000E+00 -0.00000000000E+00 -0.74749122994E+03  0.74749122994E+03  0.00000000000E+00 0. -1.
         23    2    1    2    0    0  0.18271286436E+02 -0.23588015940E+03 -0.33948480188E+03  0.42386297326E+03  0.91850965646E+02 0.  0.
         24    2    1    2    0    0  0.89111996328E+02  0.33732358261E+03 -0.15969991300E+02  0.35842507887E+03  0.80531666215E+02 0.  0.
        -13    1    4    4    0    0  0.38023983996E+02  0.24262455708E+03 -0.38236280467E+02  0.24854478912E+03  0.00000000000E+00 0.  1.
         14    1    4    4    0    0  0.51088012333E+02  0.94699025535E+02  0.22266289167E+02  0.10988028975E+03  0.00000000000E+00 0. -1.
        -13    1    3    3    0    0  0.43995319375E+02 -0.10755906791E+03 -0.20851588467E+03  0.23871199253E+03  0.00000000000E+00 0.  1.
         13    1    3    3    0    0 -0.25724032939E+02 -0.12832109150E+03 -0.13096891720E+03  0.18515098074E+03  0.00000000000E+00 0. -1.
          1    1    1    2  501    0 -0.10738328276E+03 -0.10144342321E+03 -0.14807736933E+03  0.20916224525E+03  0.00000000000E+00 0. -1.
<scales pt_clust_5="13000.00000" pt_clust_6="13000.00000" pt_clust_7="13000.00000" pt_clust_8="13000.00000" pt_clust_9="147.72258"></scales>
<clustering>
<clus scale="   80.532">  5  6 -1 -1</clus>
<clus scale="   91.851">  7  8 -1 -1</clus>
<clus scale="  147.723">  1  9  2 -1</clus>
<clus scale="  268.321">  1  5  2 -1</clus>
<clus scale="  147.723">  1  5  2 -1</clus>
</clustering>
</event>
<event>
 9    2  0.3764910E-005  0.9808430E+02  0.7546771E-02  0.1289598E+00
          2   -1    0    0  502    0 -0.00000000000E+00  0.00000000000E+00  0.84332125286E+03  0.84332125286E+03  0.00000000000E+00 0. -1.
         21   -1    0    0  501  502  0.00000000000E+00 -0.00000000000E+00 -0.19649330362E+02  0.19649330362E+02  0.00000000000E+00 0.  1.
         23    2    1    2    0    0  0.15395165369E+02  0.22899832913E+02  0.29718821394E+03  0.31251589216E+03  0.92649527151E+02 0.  0.
         24    2    1    2    0    0  0.36538084032E+02 -0.40975951712E+02  0.25996021746E+03  0.27831763043E+03  0.82869346224E+02 0.  0.
        -13    1    4    4    0    0  0.49977841367E+02 -0.38830484760E+02  0.10385404602E+03  0.12161929966E+03  0.00000000000E+00 0.  1.
         14    1    4    4    0    0 -0.13439757335E+02 -0.21454669517E+01  0.15610617144E+03  0.15669833077E+03  0.00000000000E+00 0. -1.
        -13    1    3    3    0    0  0.31655362114E+02  0.53413756567E+02  0.19255847948E+03  0.20232117873E+03  0.00000000000E+00 0.  1.
         13    1    3    3    0    0 -0.16260196745E+02 -0.30513923654E+02  0.10462973446E+03  0.11019471343E+03  0.00000000000E+00 0. -1.
          1    1    1    2  501    0 -0.51933249401E+02  0.18076118798E+02  0.26652349110E+03  0.27213706064E+03  0.00000000000E+00 0. -1.
<scales pt_clust_5="13000.00000" pt_clust_6="13000.00000" pt_clust_7="13000.00000" pt_clust_8="13000.00000" pt_clust_9="54.98919"></scales>
<clustering>
<clus scale="   54.989">  2  9  1 -1</clus>
<clus scale="   82.869">  5  6 -1 -1</clus>
<clus scale="   88.904">  2  5  1 -1</clus>
<clus scale="   92.650">  7  8 -1 -1</clus>
<clus scale="   54.989">  2  5  1 -1</clus>
</clustering>
</event>
<event>
 9    2  0.3764910E-005  0.2376122E+03  0.7546771E-02  0.1122093E+00
          2   -1    0    0  502    0 -0.00000000000E+00  0.00000000000E+00  0.14475991668E+04  0.14475991668E+04  0.00000000000E+00 0. -1.
         21   -1    0    0  501  502  0.00000000000E+00 -0.00000000000E+00 -0.59346627397E+02  0.59346627397E+02  0.00000000000E+00 0.  1.
         24    2    1    2    0    0  0.20030650631E+03 -0.79950798841E+02  0.10321020805E+04  0.10575227121E+04  0.81269645808E+02 0.  0.
         23    2    1    2    0    0 -0.20616532678E+03  0.10342971041E+03  0.30980453498E+03  0.39713991338E+03  0.92408949504E+02 0.  0.
        -13    1    3    3    0    0  0.16344027939E+03 -0.90344569130E+02  0.92784888906E+03  0.94645571848E+03  0.00000000000E+00 0.  1.
         14    1    3    3    0    0  0.36866226912E+02  0.10393770288E+02  0.10425319140E+03  0.11106699359E+03  0.00000000000E+00 0. -1.
        -11    1    4    4    0    0 -0.14428710312E+03  0.11154789352E+03  0.25844358926E+03  0.31631438397E+03  0.00000000000E+00 0.  1.
         11    1    4    4    0    0 -0.61878223665E+02 -0.81181831075E+01  0.51360945717E+02  0.80825529419E+02  0.00000000000E+00 0. -1.
          1    1    1    2  501    0  0.58588204768E+01 -0.23478911573E+02  0.46345923941E+02  0.52283168725E+02  0.00000000000E+00 0. -1.
<scales pt_clust_5="13000.00000" pt_clust_6="13000.00000" pt_clust_7="13000.00000" pt_clust_8="13000.00000" pt_clust_9="24.19886"></scales>
<clustering>
<clus scale="   24.199">  2  9  1 -1</clus>
<clus scale="   81.270">  5  6 -1 -1</clus>
<clus scale="   92.409">  7  8 -1 -1</clus>
<clus scale="  233.506">  1  5  2 -1</clus>
<clus scale="   24.199">  2  5  1 -1</clus>
</clustering>
</event>
<event>
 9    2  0.3764910E-005  0.1039521E+03  0.7546771E-02  0.1272245E+00
          2   -1    0    0  502    0 -0.00000000000E+00  0.00000000000E+00  0.39751827713E+03  0.39751827713E+03  0.00000000000E+00 0. -1.
         21   -1    0    0  501  502  0.00000000000E+00 -0.00000000000E+00 -0.42327674397E+02  0.42327674397E+02  0.00000000000E+00 0.  1.
         24    2    1    2    0    0  0.62364695192E+02  0.16373125074E+02  0.24339846199E+03  0.26729166014E+03  0.89691615258E+02 0.  0.
         23    2    1    2    0    0 -0.29685667690E+02 -0.16285247065E+02  0.98180608073E+02  0.13715372102E+03  0.89583833641E+02 0.  0.
        -11    1    3    3    0    0 -0.74456504724E+01  0.34186460181E+02  0.11325695110E+03  0.11853813202E+03  0.00000000000E+00 0.  1.
         12    1    3    3    0    0  0.69810345665E+02 -0.17813335107E+02  0.13014151089E+03  0.14875352811E+03  0.00000000000E+00 0. -1.
        -11    1    4    4    0    0 -0.48526405829E+02 -0.35645438100E+02  0.38031537421E+02  0.71216621365E+02  0.00000000000E+00 0.  1.
         11    1    4    4    0    0  0.18840738139E+02  0.19360191036E+02  0.60149070651E+02  0.65937099654E+02  0.00000000000E+00 0. -1.
          1    1    1    2  501    0 -0.32679027503E+02 -0.87878009134E-01  0.13611532670E+02  0.35400570372E+02  0.00000000000E+00 0. -1.
<scales pt_clust_5="13000.00000" pt_clust_6="13000.00000" pt_clust_7="13000.00000" pt_clust_8="13000.00000" pt_clust_9="32.67915"></scales>
<clustering>
<clus scale="   32.679">  2  9  1 -1</clus>
<clus scale="   89.584">  7  8 -1 -1</clus>
<clus scale="   89.692">  5  6 -1 -1</clus>
<clus scale="  103.859">  2  7  1 -1</clus>
<clus scale="   32.679">  2  5  1 -1</clus>
</clustering>
</event>
<event>
 9    2  0.3764910E-005  0.1348526E+03  0.7546771E-02  0.1222576E+00
          2   -1    0    0  502    0 -0.00000000000E+00  0.00000000000E+00  0.16528702446E+03  0.16528702446E+03  0.00000000000E+00 0. -1.
         21   -1    0    0  501  502  0.00000000000E+00 -0.00000000000E+00 -0.25676343281E+03  0.25676343281E+03  0.00000000000E+00 0. -1.
         23    2    1    2    0    0  0.48469888700E+02  0.80764165600E+02  0.84824646786E+02  0.15522844606E+03  0.89601725482E+02 0.  0.
         24    2    1    2    0    0 -0.75651899350E+02 -0.10102449755E+03 -0.91263401970E+02  0.17527560107E+03  0.80395079526E+02 0.  0.
        -13    1    4    4    0    0  0.33295707552E+01 -0.51242632549E+02 -0.54654560901E+02  0.74993429441E+02  0.00000000000E+00 0.  1.
         14    1    4    4    0    0 -0.78981470105E+02 -0.49781865000E+02 -0.36608841069E+02  0.10028217163E+03  0.00000000000E+00 0. -1.
        -13    1    3    3    0    0  0.23297328068E+02  0.88768282565E+02  0.33853206096E+02  0.97819287708E+02  0.00000000000E+00 0. -1.
         13    1    3    3    0    0  0.25172560631E+02 -0.80041169654E+01  0.50971440689E+02  0.57409158355E+02  0.00000000000E+00 0.  1.
          1    1    1    2  501    0  0.27182010651E+02  0.20260331949E+02 -0.85037653161E+02  0.91546410136E+02  0.00000000000E+00 0. -1.
<scales pt_clust_5="13000.00000" pt_clust_6="13000.00000" pt_clust_7="13000.00000" pt_clust_8="13000.00000" pt_clust_9="33.90196"></scales>
<clustering>
<clus scale="   33.902">  2  9  1 -1</clus>
<clus scale="   80.395">  5  6 -1 -1</clus>
<clus scale="   89.602">  7  8 -1 -1</clus>
<clus scale="  128.919">  2  5  1 -1</clus>
<clus scale="   33.902">  2  5  1 -1</clus>
</clustering>
</event>
<event>
 9    2  0.3764910E-005  0.1219348E+03  0.7546771E-02  0.1251469E+00
         -1   -1    0    0    0  501 -0.00000000000E+00  0.00000000000E+00  0.90114235302E+03  0.90114235302E+03  0.00000000000E+00 0.  1.
         21   -1    0    0  501  502  0.00000000000E+00 -0.00000000000E+00 -0.23241461679E+02  0.23241461679E+02  0.00000000000E+00 0.  1.
         24    2    1    2    0    0 -0.46812499913E+02  0.38906737930E+02  0.48388772520E+03  0.49315131575E+03  0.73114603307E+02 0.  0.
         23    2    1    2    0    0  0.71321700106E+02 -0.25620657950E+02  0.21973468978E+03  0.25473828336E+03  0.10423557980E+03 0.  0.
        -11    1    3    3    0    0 -0.55130983614E+02  0.52369655757E+02  0.43943986451E+03  0.44597017918E+03  0.00000000000E+00 0.  1.
         12    1    3    3    0    0  0.83184837010E+01 -0.13462917827E+02  0.44447860693E+02  0.47181136566E+02  0.00000000000E+00 0. -1.
        -11    1    4    4    0    0 -0.11702887838E+02  0.22493141503E+02  0.89163627988E+02  0.92698713877E+02  0.00000000000E+00 0. -1.
         11    1    4    4    0    0  0.83024587945E+02 -0.48113799452E+02  0.13057106180E+03  0.16203956949E+03  0.00000000000E+00 0.  1.
         -2    1    1    2    0  502 -0.24509200193E+02 -0.13286079980E+02  0.17427847636E+03  0.17649421559E+03  0.00000000000E+00 0.  1.
<scales pt_clust_5="13000.00000" pt_clust_6="13000.00000" pt_clust_7="13000.00000" pt_clust_8="13000.00000" pt_clust_9="27.87869"></scales>
<clustering>
<clus scale="   27.879">  2  9  1 -1</clus>
<clus scale="   73.115">  5  6 -1 -1</clus>
<clus scale="   96.689">  1  5  2 -1</clus>
<clus scale="  104.236">  7  8 -1 -1</clus>
<clus scale="   27.879">  2  5  1 -1</clus>
</clustering>
</event>
<event>
 9    2  0.3764910E-005  0.9124604E+02  0.7546771E-02  0.1304066E+00
         21   -1    0    0  501  502  0.00000000000E+00  0.00000000000E+00  0.86092815454E+02  0.86092815454E+02  0.00000000000E+00 0.  1.
          2   -1    0    0  502    0 -0.00000000000E+00 -0.00000000000E+00 -0.16105274087E+03  0.16105274087E+03  0.00000000000E+00 0. -1.
         24    2    1    2    0    0  0.20052133291E+01  0.26446262875E+02 -0.92306834331E+02  0.12603617283E+03  0.81615804215E+02 0.  0.
         23    2    1    2    0    0  0.18840098430E+02 -0.62161181188E+01  0.13039104221E+02  0.91743706919E+02  0.88618847245E+02 0.  0.
        -11    1    3    3    0    0  0.41503579015E+02  0.18895941622E+02 -0.49330001910E+02  0.67179258475E+02  0.00000000000E+00 0.  1.
         12    1    3    3    0    0 -0.39498365685E+02  0.75503212525E+01 -0.42976832421E+02  0.58856914358E+02  0.00000000000E+00 0. -1.
        -11    1    4    4    0    0 -0.23983846499E+01  0.39143087150E+02  0.14024526318E+02  0.41648779802E+02  0.00000000000E+00 0. -1.
         11    1    4    4    0    0  0.21238483080E+02 -0.45359205269E+02 -0.98542209745E+00  0.50094927117E+02  0.00000000000E+00 0.  1.
          1    1    1    2  501    0 -0.20845311759E+02 -0.20230144756E+02  0.43078046955E+01  0.29365676571E+02  0.00000000000E+00 0. -1.
<scales pt_clust_5="13000.00000" pt_clust_6="13000.00000" pt_clust_7="13000.00000" pt_clust_8="13000.00000" pt_clust_9="29.04799"></scales>
<clustering>
<clus scale="   29.048">  1  9  2 -1</clus>
<clus scale="   81.616">  5  6 -1 -1</clus>
<clus scale="   84.461">  2  5  1 -1</clus>
<clus scale="   88.619">  7  8 -1 -1</clus>
<clus scale="   29.048">  1  5  2 -1</clus>
</clustering>
</event>
<event>
 9    2  0.3764910E-005  0.1317310E+03  0.7546771E-02  0.1227920E+00
         21   -1    0    0  501  502  0.00000000000E+00  0.00000000000E+00  0.16012349518E+02  0.16012349518E+02  0.00000000000E+00 0. -1.
          2   -1    0    0  502    0 -0.00000000000E+00 -0.00000000000E+00 -0.16578986519E+04  0.16578986519E+04  0.00000000000E+00 0. -1.
         24    2    1    2    0    0  0.64812514485E+02 -0.81174331613E+02 -0.80697439450E+03  0.81753183148E+03  0.79753921240E+02 0.  0.
         23    2    1    2    0    0 -0.84591758241E+02  0.28186879673E+02 -0.46889560828E+03  0.48601877773E+03  0.91656396883E+02 0.  0.
        -13    1    3    3    0    0 -0.18968554632E+02 -0.14705567943E+02 -0.14341693533E+03  0.14541140647E+03  0.00000000000E+00 0.  1.
         14    1    3    3    0    0  0.83781069117E+02 -0.66468763670E+02 -0.66355745917E+03  0.67212042501E+03  0.00000000000E+00 0. -1.
        -11    1    4    4    0    0 -0.43279897715E+02  0.61048930415E+02 -0.28973778029E+03  0.29924589016E+03  0.00000000000E+00 0.  1.
         11    1    4    4    0    0 -0.41311860526E+02 -0.32862050741E+02 -0.17915782799E+03  0.18677288756E+03  0.00000000000E+00 0. -1.
          1    1    1    2  501    0  0.19779243757E+02  0.52987451940E+02 -0.36601629957E+03  0.37036039218E+03  0.00000000000E+00 0. -1.
<scales pt_clust_5="13000.00000" pt_clust_6="13000.00000" pt_clust_7="13000.00000" pt_clust_8="13000.00000" pt_clust_9="56.55875"></scales>
<clustering>
<clus scale="   56.559">  1  9  2 -1</clus>
<clus scale="   79.754">  5  6 -1 -1</clus>
<clus scale="   91.656">  7  8 -1 -1</clus>
<clus scale="  123.745">  2  5  1 -1</clus>
<clus scale="   56.559">  1  5  2 -1</clus>
</clustering>
</event>
<event>
 9    2  0.3764910E-005  0.1195030E+03  0.7546771E-02  0.1251302E+00
          2   -1    0    0  502    0 -0.00000000000E+00  0.00000000000E+00  0.33598210135E+03  0.33598210135E+03  0.00000000000E+00 0. -1.
         21   -1    0    0  501  502  0.00000000000E+00 -0.00000000000E+00 -0.10151269579E+03  0.10151269579E+03  0.00000000000E+00 0. -1.
         23    2    1    2    0    0  0.70639293928E+02  0.18795613675E+02  0.22797441457E+03  0.25971254438E+03  0.10067316955E+03 0.  0.
         24    2    1    2    0    0 -0.11806120701E+02 -0.60268116749E+02 -0.15753201876E+02  0.10244107632E+03  0.80463534382E+02 0.  0.
        -13    1    4    4    0    0 -0.37411946853E+02 -0.30713728361E+01  0.10782758417E+01  0.37553292495E+02  0.00000000000E+00 0.  1.
         14    1    4    4    0    0  0.25605826152E+02 -0.57196743912E+02 -0.16831477717E+02  0.64887783821E+02  0.00000000000E+00 0. -1.
        -13    1    3    3    0    0 -0.54356394887E+01  0.33971547626E+02  0.25315343224E+02  0.42713918426E+02  0.00000000000E+00 0.  1.
         13    1    3    3    0    0  0.76074933416E+02 -0.15175933951E+02  0.20265907135E+03  0.21699862596E+03  0.00000000000E+00 0. -1.
          1    1    1    2  501    0 -0.58833173226E+02  0.41472503074E+02  0.22248192856E+02  0.75341176447E+02  0.00000000000E+00 0. -1.
<scales pt_clust_5="13000.00000" pt_clust_6="13000.00000" pt_clust_7="13000.00000" pt_clust_8="13000.00000" pt_clust_9="71.98132"></scales>
<clustering>
<clus scale="   71.981">  2  9  1 -1</clus>
<clus scale="   80.464">  5  6 -1 -1</clus>
<clus scale="  100.673">  7  8 -1 -1</clus>
<clus scale="  103.055">  2  5  1 -1</clus>
<clus scale="   71.981">  2  5  1 -1</clus>
</clustering>
</event>
<event>
 9    2  0.3764910E-005  0.1198332E+03  0.7546771E-02  0.1246343E+00
         21   -1    0    0  501  502  0.00000000000E+00  0.00000000000E+00  0.66390135967E+03  0.66390135967E+03  0.00000000000E+00 0.  1.
         -1   -1    0    0    0  501 -0.00000000000E+00 -0.00000000000E+00 -0.13200880638E+03  0.13200880638E+03  0.00000000000E+00 0.  1.
         23    2    1    2    0    0 -0.95182902453E+02 -0.32723572614E+02  0.23790876526E+03  0.27319058393E+03  0.88892617439E+02 0.  0.
         24    2    1    2    0    0  0.36060796745E+02  0.39604969454E+02  0.39448364647E+03  0.40591633495E+03  0.79257737663E+02 0.  0.
        -13    1    4    4    0    0  0.58208420461E+02  0.16749676548E+02  0.30461876752E+03  0.31058230053E+03  0.00000000000E+00 0.  1.
         14    1    4    4    0    0 -0.22147623716E+02  0.22855292906E+02  0.89864878957E+02  0.95334034427E+02  0.00000000000E+00 0. -1.
        -11    1    3    3    0    0 -0.93674895222E+02  0.72242665627E+01  0.17574163930E+03  0.19927945154E+03  0.00000000000E+00 0.  1.
         11    1    3    3    0    0 -0.15080072313E+01 -0.39947839177E+02  0.62167125957E+02  0.73911132385E+02  0.00000000000E+00 0. -1.
         -2    1    1    2    0  502  0.59122105708E+02 -0.68813968397E+01 -0.10049985844E+03  0.11680324718E+03  0.00000000000E+00 0.  1.
<scales pt_clust_5="13000.00000" pt_clust_6="13000.00000" pt_clust_7="13000.00000" pt_clust_8="13000.00000" pt_clust_9="59.52126"></scales>
<clustering>
<clus scale="   59.521">  1  9  2 -1</clus>
<clus scale="   79.258">  5  6 -1 -1</clus>
<clus scale="   88.893">  7  8 -1 -1</clus>
<clus scale="  112.871">  1  5  2 -1</clus>
<clus scale="   59.521">  1  5  2 -1</clus>
</clustering>
</event>
<event>
 9    2  0.3764910E-005  0.2079924E+03  0.7546771E-02  0.1158252E+00
         21   -1    0    0  501  502  0.00000000000E+00  0.00000000000E+00  0.86904488267E+02  0.86904488267E+02  0.00000000000E+00 0. -1.
          2   -1    0    0  502    0 -0.00000000000E+00 -0.00000000000E+00 -0.15133234349E+04  0.15133234349E+04  0.00000000000E+00 0. -1.
         23    2    1    2    0    0  0.11288814108E+03 -0.23293287353E+02 -0.38646488032E+02  0.15058657754E+03  0.88862009128E+02 0.  0.
         24    2    1    2    0    0  0.60113407759E+02  0.15691102584E+03 -0.82442536126E+03  0.84537055531E+03  0.82094504615E+02 0.  0.
        -13    1    4    4    0    0  0.10471197575E+02  0.10348344117E+03 -0.61196995208E+03  0.62074607596E+03  0.00000000000E+00 0.  1.
         14    1    4    4    0    0  0.49642210184E+02  0.53427584669E+02 -0.21245540918E+03  0.22462447935E+03  0.00000000000E+00 0. -1.
        -11    1    3    3    0    0  0.15935471464E+02 -0.31907170259E+02  0.15856525998E+02  0.39031220599E+02  0.00000000000E+00 0. -1.
         11    1    3    3    0    0  0.96952669614E+02  0.86138829058E+01 -0.54503014030E+02  0.11155535694E+03  0.00000000000E+00 0.  1.
          1    1    1    2  501    0 -0.17300154884E+03 -0.13361773848E+03 -0.56334709734E+03  0.60427079031E+03  0.00000000000E+00 0. -1.
<scales pt_clust_5="13000.00000" pt_clust_6="13000.00000" pt_clust_7="13000.00000" pt_clust_8="13000.00000" pt_clust_9="191.10553"></scales>
<clustering>
<clus scale="   82.095">  5  6 -1 -1</clus>
<clus scale="   88.862">  7  8 -1 -1</clus>
<clus scale="  145.543">  2  7  1 -1</clus>
<clus scale="  191.106">  1  9  2 -1</clus>
<clus scale="  191.106">  1  5  2 -1</clus>
</clustering>
</event>
<event>
 9    2  0.3764910E-005  0.1082751E+03  0.7546771E-02  0.1266800E+00
         21   -1    0    0  501  502  0.00000000000E+00  0.00000000000E+00  0.26765126410E+03  0.26765126410E+03  0.00000000000E+00 0.  1.
         -3   -1    0    0    0  501 -0.00000000000E+00 -0.00000000000E+00 -0.14556578455E+03  0.14556578455E+03  0.00000000000E+00 0.  1.
         23    2    1    2    0    0 -0.44938368229E+02 -0.41690201959E+02 -0.10396923419E+03  0.15059540782E+03  0.90065783302E+02 0.  0.
         24    2    1    2    0    0  0.24622651947E+02  0.50112159211E+02  0.12853665967E+03  0.16265450342E+03  0.82567009851E+02 0.  0.
        -11    1    4    4    0    0 -0.27611889210E+02  0.23609916375E+01  0.48132336932E+02  0.55540188745E+02  0.00000000000E+00 0.  1.
         12    1    4    4    0    0  0.52234541158E+02  0.47751167573E+02  0.80404322737E+02  0.10711431468E+03  0.00000000000E+00 0. -1.
        -13    1    3    3    0    0  0.67470800204E+00 -0.37835349273E+02 -0.97219856536E+02  0.10432482634E+03  0.00000000000E+00 0.  1.
         13    1    3    3    0    0 -0.45613076231E+02 -0.38548526864E+01 -0.67493776520E+01  0.46270581488E+02  0.00000000000E+00 0. -1.
         -4    1    1    2    0  502  0.20315716282E+02 -0.84219572516E+01  0.97518054070E+02  0.99967137408E+02  0.00000000000E+00 0.  1.
<scales pt_clust_5="13000.00000" pt_clust_6="13000.00000" pt_clust_7="13000.00000" pt_clust_8="13000.00000" pt_clust_9="21.99222"></scales>
<clustering>
<clus scale="   21.992">  1  9  2 -1</clus>
<clus scale="   82.567">  5  6 -1 -1</clus>
<clus scale="   90.066">  7  8 -1 -1</clus>
<clus scale="  102.122">  1  5  2 -1</clus>
<clus scale="   21.992">  1  5  2 -1</clus>
</clustering>
</event>
<event>
 9    2  0.3764910E-005  0.9834327E+02  0.7546771E-02  0.1286106E+00
         -1   -1    0    0    0  501 -0.00000000000E+00  0.00000000000E+00  0.15181781544E+03  0.15181781544E+03  0.00000000000E+00 0.  1.
         21   -1    0    0  501  502  0.00000000000E+00 -0.00000000000E+00 -0.11415642792E+03  0.11415642792E+03  0.00000000000E+00 0. -1.
         24    2    1    2    0    0  0.95668037561E+01 -0.43556554875E+02  0.31466408897E+01  0.92296441698E+02  0.80746731169E+02 0.  0.
         23    2    1    2    0    0  0.11774960302E+02  0.55901754351E+02 -0.27880038790E+02  0.10658842775E+03  0.85557819851E+02 0.  0.
        -11    1    3    3    0    0  0.23287951723E+02 -0.38093965793E+02  0.35297612236E+02  0.56915730293E+02  0.00000000000E+00 0.  1.
         12    1    3    3    0    0 -0.13721147967E+02 -0.54625890822E+01 -0.32150971346E+02  0.35380711404E+02  0.00000000000E+00 0. -1.
        -11    1    4    4    0    0  0.46002833394E+02  0.12772888799E+02 -0.14965854795E+02  0.50033830338E+02  0.00000000000E+00 0. -1.
         11    1    4    4    0    0 -0.34227873092E+02  0.43128865552E+02 -0.12914183995E+02  0.56554597412E+02  0.00000000000E+00 0.  1.
         -2    1    1    2    0  502 -0.21341764059E+02 -0.12345199476E+02  0.62394785427E+02  0.67089373910E+02  0.00000000000E+00 0.  1.
<scales pt_clust_5="13000.00000" pt_clust_6="13000.00000" pt_clust_7="13000.00000" pt_clust_8="13000.00000" pt_clust_9="24.65513"></scales>
<clustering>
<clus scale="   24.655">  2  9  1 -1</clus>
<clus scale="   80.747">  5  6 -1 -1</clus>
<clus scale="   85.558">  7  8 -1 -1</clus>
<clus scale="   94.188">  1  5  2 -1</clus>
<clus scale="   24.655">  2  5  1 -1</clus>
</clustering>
</event>
<event>
 9    2  0.3764910E-005  0.1233535E+03  0.7546771E-02  0.1239070E+00
         -1   -1    0    0    0  501 -0.00000000000E+00  0.00000000000E+00  0.67536821069E+02  0.67536821069E+02  0.00000000000E+00 0.  1.
         21   -1    0    0  501  502  0.00000000000E+00 -0.00000000000E+00 -0.83754444306E+03  0.83754444306E+03  0.00000000000E+00 0.  1.
         23    2    1    2    0    0 -0.76391837637E+02  0.98667333855E+02 -0.68646814145E+02  0.16589554464E+03  0.85076383397E+02 0.  0.
         24    2    1    2    0    0  0.29943017569E+02 -0.38735281905E+02 -0.11700292032E+03  0.14992899746E+03  0.79950075371E+02 0.  0.
        -11    1    4    4    0    0 -0.14490640822E+02  0.14827775360E+02 -0.11994202872E+02  0.23952087510E+02  0.00000000000E+00 0.  1.
         12    1    4    4    0    0  0.44433658390E+02 -0.53563057265E+02 -0.10500871744E+03  0.12597690995E+03  0.00000000000E+00 0. -1.
        -13    1    3    3    0    0 -0.49995123843E+02  0.80414849799E+02 -0.52454097450E+01  0.94834459980E+02  0.00000000000E+00 0.  1.
         13    1    3    3    0    0 -0.26396713794E+02  0.18252484056E+02 -0.63401404400E+02  0.71061084661E+02  0.00000000000E+00 0. -1.
         -2    1    1    2    0  502  0.46448820068E+02 -0.59932051951E+02 -0.58435788753E+03  0.58925672203E+03  0.00000000000E+00 0.  1.
<scales pt_clust_5="13000.00000" pt_clust_6="13000.00000" pt_clust_7="13000.00000" pt_clust_8="13000.00000" pt_clust_9="75.82443"></scales>
<clustering>
<clus scale="   75.824">  2  9  1 -1</clus>
<clus scale="   79.950">  5  6 -1 -1</clus>
<clus scale="   85.076">  7  8 -1 -1</clus>
<clus scale="  119.875">  2  5  1 -1</clus>
<clus scale="   75.824">  2  5  1 -1</clus>
</clustering>
</event>
<event>
 9    2  0.3764910E-005  0.1011163E+03  0.7546771E-02  0.1283438E+00
          2   -1    0    0  502    0 -0.00000000000E+00  0.00000000000E+00  0.12779158703E+03  0.12779158703E+03  0.00000000000E+00 0. -1.
         21   -1    0    0  501  502  0.00000000000E+00 -0.00000000000E+00 -0.33749845135E+03  0.33749845135E+03  0.00000000000E+00 0.  1.
         23    2    1    2    0    0  0.38631155542E+02  0.21876956061E+02  0.89048336185E+02  0.13375336853E+03  0.89383387895E+02 0.  0.
         24    2    1    2    0    0 -0.69630438556E+02 -0.26286781477E+02 -0.19065107044E+03  0.21898932404E+03  0.77904432046E+02 0.  0.
        -11    1    4    4    0    0 -0.72028974523E+02 -0.11329810401E+00 -0.17281678675E+03  0.18722667489E+03  0.00000000000E+00 0.  1.
         12    1    4    4    0    0  0.23985359670E+01 -0.26173483373E+02 -0.17834283684E+02  0.31762649152E+02  0.00000000000E+00 0. -1.
        -13    1    3    3    0    0  0.37663304420E+02 -0.19063987416E+02  0.80260262153E+01  0.42969491653E+02  0.00000000000E+00 0. -1.
         13    1    3    3    0    0  0.96785112177E+00  0.40940943478E+02  0.81022309970E+02  0.90783876881E+02  0.00000000000E+00 0.  1.
          1    1    1    2  501    0  0.30999283013E+02  0.44098254151E+01 -0.10810413007E+03  0.11254734580E+03  0.00000000000E+00 0. -1.
<scales pt_clust_5="13000.00000" pt_clust_6="13000.00000" pt_clust_7="13000.00000" pt_clust_8="13000.00000" pt_clust_9="31.31137"></scales>
<clustering>
<clus scale="   31.311">  2  9  1 -1</clus>
<clus scale="   77.904">  5  6 -1 -1</clus>
<clus scale="   89.383">  7  8 -1 -1</clus>
<clus scale="   91.127">  2  5  1 -1</clus>
<clus scale="   31.311">  2  5  1 -1</clus>
</clustering>
</event>
<event>
 9    2  0.3764910E-005  0.1096809E+03  0.7546771E-02  0.1267125E+00
         21   -1    0    0  501  502  0.00000000000E+00  0.00000000000E+00  0.18731696950E+03  0.18731696950E+03  0.00000000000E+00 0. -1.
          2   -1    0    0  502    0 -0.00000000000E+00 -0.00000000000E+00 -0.15549446405E+03  0.15549446405E+03  0.00000000000E+00 0. -1.
         24    2    1    2    0    0  0.17051141963E+02  0.18682680420E+02 -0.52410842525E+02  0.11878180796E+03  0.10354920327E+03 0.  0.
         23    2    1    2    0    0 -0.48278831166E+02 -0.17825849952E+02 -0.27643766222E+02  0.10787287196E+03  0.90685016561E+02 0.  0.
        -11    1    3    3    0    0  0.56184236666E+02  0.17890119632E+02 -0.78699775222E+01  0.59486648724E+02  0.00000000000E+00 0.  1.
         12    1    3    3    0    0 -0.39133094703E+02  0.79256078793E+00 -0.44540865003E+02  0.59295159236E+02  0.00000000000E+00 0. -1.
        -11    1    4    4    0    0 -0.31398740750E+02 -0.43913148867E+01 -0.60652744668E+02  0.68439170092E+02  0.00000000000E+00 0. -1.
         11    1    4    4    0    0 -0.16880090415E+02 -0.13434535065E+02  0.33008978447E+02  0.39433701867E+02  0.00000000000E+00 0.  1.
          1    1    1    2  501    0  0.31227689203E+02 -0.85683046826E+00  0.11187711420E+03  0.11615675363E+03  0.00000000000E+00 0. -1.
<scales pt_clust_5="13000.00000" pt_clust_6="13000.00000" pt_clust_7="13000.00000" pt_clust_8="13000.00000" pt_clust_9="31.23944"></scales>
<clustering>
<clus scale="   31.239">  1  9  2 -1</clus>
<clus scale="   90.685">  7  8 -1 -1</clus>
<clus scale="   97.628">  1  7  2 -1</clus>
<clus scale="  103.549">  5  6 -1 -1</clus>
<clus scale="   31.239">  1  5  2 -1</clus>
</clustering>
</event>
<event>
 9    2  0.3764910E-005  0.1583260E+03  0.7546771E-02  0.1207800E+00
          2   -1    0    0  502    0 -0.00000000000E+00  0.00000000000E+00  0.62589215226E+03  0.62589215226E+03  0.00000000000E+00 0. -1.
         21   -1    0    0  501  502  0.00000000000E+00 -0.00000000000E+00 -0.95066339172E+02  0.95066339172E+02  0.00000000000E+00 0.  1.
         23    2    1    2    0    0 -0.52535193967E+02 -0.24457417797E+02  0.72407346765E+01  0.10915444731E+03  0.92217965919E+02 0.  0.
         24    2    1    2    0    0  0.14744262523E+03 -0.40725223747E+02  0.17864369161E+03  0.24815482084E+03  0.79179384744E+02 0.  0.
        -11    1    4    4    0    0  0.73731162077E+02  0.14538812612E+02  0.51344245850E+02  0.91015893751E+02  0.00000000000E+00 0.  1.
         12    1    4    4    0    0  0.73711463153E+02 -0.55264036359E+02  0.12729944576E+03  0.15713892708E+03  0.00000000000E+00 0. -1.
        -13    1    3    3    0    0 -0.35020090693E+02 -0.57732212507E+02 -0.91383718302E+01  0.68139011974E+02  0.00000000000E+00 0.  1.
         13    1    3    3    0    0 -0.17515103274E+02  0.33274794710E+02  0.16379106507E+02  0.41015435334E+02  0.00000000000E+00 0. -1.
          1    1    1    2  501    0 -0.94907431264E+02  0.65182641543E+02  0.34494138680E+03  0.36364922329E+03  0.00000000000E+00 0. -1.
<scales pt_clust_5="13000.00000" pt_clust_6="13000.00000" pt_clust_7="13000.00000" pt_clust_8="13000.00000" pt_clust_9="137.10496"></scales>
<clustering>
<clus scale="   79.179">  5  6 -1 -1</clus>
<clus scale="   92.218">  7  8 -1 -1</clus>
<clus scale="  108.914">  1  7  2 -1</clus>
<clus scale="  137.105">  2  9  1 -1</clus>
<clus scale="  137.105">  2  5  1 -1</clus>
</clustering>
</event>
<event>
 9    2  0.3764910E-005  0.1053230E+03  0.7546771E-02  0.1269849E+00
         21   -1    0    0  501  502  0.00000000000E+00  0.00000000000E+00  0.33630614085E+03  0.33630614085E+03  0.00000000000E+00 0.  1.
         -3   -1    0    0    0  501 -0.00000000000E+00 -0.00000000000E+00 -0.13608975022E+03  0.13608975022E+03  0.00000000000E+00 0.  1.
         23    2    1    2    0    0  0.17791097307E+01  0.60993303519E+02 -0.81120987438E+02  0.13206066233E+03  0.84475177568E+02 0.  0.
         24    2    1    2    0    0  0.55148954763E+02 -0.72833712998E+02  0.13659831329E+03  0.18435318909E+03  0.83551434300E+02 0.  0.
        -11    1    4    4    0    0  0.74240243237E+02 -0.62920371160E+02  0.87990380759E+02  0.13119791892E+03  0.00000000000E+00 0.  1.
         12    1    4    4    0    0 -0.19091288475E+02 -0.99133418379E+01  0.48607932526E+02  0.53155270166E+02  0.00000000000E+00 0. -1.
        -11    1    3    3    0    0  0.32371169839E+02  0.33508524425E+01 -0.50253854955E+02  0.59871285160E+02  0.00000000000E+00 0.  1.
         11    1    3    3    0    0 -0.30592060108E+02  0.57642451077E+02 -0.30867132483E+02  0.72189377165E+02  0.00000000000E+00 0. -1.
         -4    1    1    2    0  502 -0.56928064493E+02  0.11840409478E+02  0.14473906478E+03  0.15598203967E+03  0.00000000000E+00 0.  1.
<scales pt_clust_5="13000.00000" pt_clust_6="13000.00000" pt_clust_7="13000.00000" pt_clust_8="13000.00000" pt_clust_9="58.14637"></scales>
<clustering>
<clus scale="   58.146">  1  9  2 -1</clus>
<clus scale="   83.551">  5  6 -1 -1</clus>
<clus scale="   84.475">  7  8 -1 -1</clus>
<clus scale="  104.584">  1  5  2 -1</clus>
<clus scale="   58.146">  1  5  2 -1</clus>
</clustering>
</event>
<event>
 9    2  0.3764910E-005  0.9543908E+02  0.7546771E-02  0.1296341E+00
          2   -1    0    0  502    0 -0.00000000000E+00  0.00000000000E+00  0.46712207124E+03  0.46712207124E+03  0.00000000000E+00 0. -1.
         21   -1    0    0  501  502  0.00000000000E+00 -0.00000000000E+00 -0.61391938872E+02  0.61391938872E+02  0.00000000000E+00 0.  1.
         23    2    1    2    0    0 -0.30472076875E+02 -0.97781145535E+01  0.21100423603E+03  0.23212517154E+03  0.91297035257E+02 0.  0.
         24    2    1    2    0    0  0.13559993195E+02 -0.21712188033E+02 -0.13182475787E+02  0.85430195869E+02  0.80431636647E+02 0.  0.
        -13    1    4    4    0    0  0.19114330220E+02 -0.73181197681E+01 -0.45349598599E+02  0.49754382619E+02  0.00000000000E+00 0.  1.
         14    1    4    4    0    0 -0.55543370247E+01 -0.14394068265E+02  0.32167122812E+02  0.35675813250E+02  0.00000000000E+00 0. -1.
        -11    1    3    3    0    0 -0.35934961397E+02  0.23031032418E+02  0.18512700623E+03  0.18998357387E+03  0.00000000000E+00 0.  1.
         11    1    3    3    0    0  0.54628845217E+01 -0.32809146971E+02  0.25877229809E+02  0.42141597678E+02  0.00000000000E+00 0. -1.
          1    1    1    2  501    0  0.16912083681E+02  0.31490302587E+02  0.20790837212E+03  0.21095864270E+03  0.00000000000E+00 0. -1.
<scales pt_clust_5="13000.00000" pt_clust_6="13000.00000" pt_clust_7="13000.00000" pt_clust_8="13000.00000" pt_clust_9="35.74436"></scales>
<clustering>
<clus scale="   35.744">  2  9  1 -1</clus>
<clus scale="   80.432">  5  6 -1 -1</clus>
<clus scale="   85.104">  2  5  1 -1</clus>
<clus scale="   91.297">  7  8 -1 -1</clus>
<clus scale="   35.744">  2  5  1 -1</clus>
</clustering>
</event>
<event>
 9    2  0.3764910E-005  0.1106110E+03  0.7546771E-02  0.1263644E+00
         21   -1    0    0  501  502  0.00000000000E+00  0.00000000000E+00  0.48497283068E+02  0.48497283068E+02  0.00000000000E+00 0. -1.
          4   -1    0    0  502    0 -0.00000000000E+00 -0.00000000000E+00 -0.74741128312E+03  0.74741128312E+03  0.00000000000E+00 0. -1.
         23    2    1    2    0    0 -0.82199996931E+01  0.45261837658E+02 -0.22661497279E+03  0.24892954892E+03  0.92170342799E+02 0.  0.
         24    2    1    2    0    0  0.49793550198E+02 -0.98398780237E+02 -0.10279062045E+03  0.17136171539E+03  0.81469063168E+02 0.  0.
        -13    1    4    4    0    0 -0.10876363242E+01 -0.36909745210E+02 -0.80392583109E+02  0.88467393220E+02  0.00000000000E+00 0.  1.
         14    1    4    4    0    0  0.50881186522E+02 -0.61489035027E+02 -0.22398037343E+02  0.82894322165E+02  0.00000000000E+00 0. -1.
        -13    1    3    3    0    0  0.20559239383E+02  0.62102746898E+02 -0.18075559429E+03  0.19222907783E+03  0.00000000000E+00 0. -1.
         13    1    3    3    0    0 -0.28779239076E+02 -0.16840909240E+02 -0.45859378503E+02  0.56700471096E+02  0.00000000000E+00 0.  1.
          3    1    1    2  501    0 -0.41573550505E+02  0.53136942579E+02 -0.36950840681E+03  0.37561730188E+03  0.00000000000E+00 0. -1.
<scales pt_clust_5="13000.00000" pt_clust_6="13000.00000" pt_clust_7="13000.00000" pt_clust_8="13000.00000" pt_clust_9="67.46777"></scales>
<clustering>
<clus scale="   67.468">  1  9  2 -1</clus>
<clus scale="   81.469">  5  6 -1 -1</clus>
<clus scale="   92.170">  7  8 -1 -1</clus>
<clus scale="  101.866">  1  5  2 -1</clus>
<clus scale="   67.468">  1  5  2 -1</clus>
</clustering>
</event>
<event>
 9    2  0.3764910E-005  0.9802762E+02  0.7546771E-02  0.1289683E+00
          2   -1    0    0  502    0 -0.00000000000E+00  0.00000000000E+00  0.13858218575E+03  0.13858218575E+03  0.00000000000E+00 0. -1.
         21   -1    0    0  501  502  0.00000000000E+00 -0.00000000000E+00 -0.92286089550E+02  0.92286089550E+02  0.00000000000E+00 0.  1.
         23    2    1    2    0    0  0.37270805010E+02  0.26772081429E+02  0.61126611739E+02  0.11843891760E+03  0.90473517064E+02 0.  0.
         24    2    1    2    0    0 -0.18199341942E+02 -0.19299780023E+02  0.36392412127E+01  0.84848786530E+02  0.80513197321E+02 0.  0.
        -13    1    4    4    0    0 -0.49822211010E+02 -0.50604425455E+01  0.14700561869E+01  0.50100118302E+02  0.00000000000E+00 0.  1.
         14    1    4    4    0    0  0.31622869068E+02 -0.14239337478E+02  0.21691850258E+01  0.34748668228E+02  0.00000000000E+00 0. -1.
        -11    1    3    3    0    0  0.53426581997E+02  0.93988995906E+01  0.73760357554E+02  0.91560522737E+02  0.00000000000E+00 0. -1.
         11    1    3    3    0    0 -0.16155776987E+02  0.17373181838E+02 -0.12633745815E+02  0.26878394866E+02  0.00000000000E+00 0.  1.
          1    1    1    2  501    0 -0.19071463069E+02 -0.74723014057E+01 -0.18469756747E+02  0.27580571172E+02  0.00000000000E+00 0. -1.
<scales pt_clust_5="13000.00000" pt_clust_6="13000.00000" pt_clust_7="13000.00000" pt_clust_8="13000.00000" pt_clust_9="20.48307"></scales>
<clustering>
<clus scale="   20.483">  2  9  1 -1</clus>
<clus scale="   80.513">  5  6 -1 -1</clus>
<clus scale="   88.918">  2  5  1 -1</clus>
<clus scale="   90.474">  7  8 -1 -1</clus>
<clus scale="   20.483">  2  5  1 -1</clus>
</clustering>
</event>
<event>
 9    2  0.3764910E-005  0.8754455E+02  0.7546771E-02  0.1311956E+00
          2   -1    0    0  502    0 -0.00000000000E+00  0.00000000000E+00  0.32198314194E+03  0.32198314194E+03  0.00000000000E+00 0. -1.
         21   -1    0    0  501  502  0.00000000000E+00 -0.00000000000E+00 -0.76972079564E+02  0.76972079564E+02  0.00000000000E+00 0. -1.
         23    2    1    2    0    0 -0.52180601674E+01 -0.12267908464E+02  0.14189908968E+03  0.16657427103E+03  0.86220104299E+02 0.  0.
         24    2    1    2    0    0  0.25156645080E+01 -0.46560654831E+02  0.13576733546E+03  0.16504243609E+03  0.81437173239E+02 0.  0.
        -13    1    4    4    0    0  0.31422774782E+02 -0.18020386054E+01  0.88088435133E+02  0.93542559952E+02  0.00000000000E+00 0.  1.
         14    1    4    4    0    0 -0.28907110274E+02 -0.44758616226E+02  0.47678900327E+02  0.71499876135E+02  0.00000000000E+00 0. -1.
        -13    1    3    3    0    0  0.26461133961E+02  0.26311253192E+02  0.61927889733E+02  0.72301709398E+02  0.00000000000E+00 0. -1.
         13    1    3    3    0    0 -0.31679194129E+02 -0.38579161656E+02  0.79971199951E+02  0.94272561631E+02  0.00000000000E+00 0.  1.
          1    1    1    2  501    0  0.27023956593E+01  0.58828563296E+02 -0.32655362772E+02  0.67338514385E+02  0.00000000000E+00 0. -1.
<scales pt_clust_5="13000.00000" pt_clust_6="13000.00000" pt_clust_7="13000.00000" pt_clust_8="13000.00000" pt_clust_9="58.89060"></scales>
<clustering>
<clus scale="   58.891">  2  9  1 -1</clus>
<clus scale="   81.437">  5  6 -1 -1</clus>
<clus scale="   82.838">  2  5  1 -1</clus>
<clus scale="   86.220">  7  8 -1 -1</clus>
<clus scale="   58.891">  2  5  1 -1</clus>
</clustering>
</event>
<event>
 9    2  0.3764910E-005  0.9396105E+02  0.7546771E-02  0.1297332E+00
         21   -1    0    0  501  502  0.00000000000E+00  0.00000000000E+00  0.20744050770E+03  0.20744050770E+03  0.00000000000E+00 0. -1.
         -1   -1    0    0    0  501 -0.00000000000E+00 -0.00000000000E+00 -0.12317272773E+03  0.12317272773E+03  0.00000000000E+00 0.  1.
         23    2    1    2    0    0  0.93013563425E+01 -0.11892343712E+02 -0.75307078561E+02  0.11980338252E+03  0.91944283746E+02 0.  0.
         24    2    1    2    0    0 -0.26389092440E+02  0.25277119737E+02  0.63993164435E+02  0.11279453165E+03  0.85394170136E+02 0.  0.
        -11    1    4    4    0    0 -0.19949015352E+02  0.73156829508E+01 -0.18469389873E+02  0.28153166658E+02  0.00000000000E+00 0.  1.
         12    1    4    4    0    0 -0.64400770875E+01  0.17961436786E+02  0.82462554308E+02  0.84641364990E+02  0.00000000000E+00 0. -1.
        -11    1    3    3    0    0 -0.10643245146E+02  0.29405029536E+02  0.41652708212E+00  0.31274717010E+02  0.00000000000E+00 0. -1.
         11    1    3    3    0    0  0.19944601489E+02 -0.41297373248E+02 -0.75723605643E+02  0.88528665512E+02  0.00000000000E+00 0.  1.
         -2    1    1    2    0  502  0.17087736097E+02 -0.13384776025E+02  0.95581694101E+02  0.98015321258E+02  0.00000000000E+00 0.  1.
<scales pt_clust_5="13000.00000" pt_clust_6="13000.00000" pt_clust_7="13000.00000" pt_clust_8="13000.00000" pt_clust_9="21.70583"></scales>
<clustering>
<clus scale="   21.706">  1  9  2 -1</clus>
<clus scale="   85.394">  5  6 -1 -1</clus>
<clus scale="   87.562">  1  5  2 -1</clus>
<clus scale="   91.944">  7  8 -1 -1</clus>
<clus scale="   21.706">  1  5  2 -1</clus>
</clustering>
</event>
<event>
 9    2  0.3764910E-005  0.1326124E+03  0.7546771E-02  0.1226416E+00
          2   -1    0    0  502    0 -0.00000000000E+00  0.00000000000E+00  0.76115725689E+03  0.76115725689E+03  0.00000000000E+00 0. -1.
         21   -1    0    0  501  502  0.00000000000E+00 -0.00000000000E+00 -0.51423617926E+02  0.51423617926E+02  0.00000000000E+00 0. -1.
         23    2    1    2    0    0 -0.39191176924E+02  0.95624426021E+02  0.59361552615E+03  0.60938202746E+03  0.91033418587E+02 0.  0.
         24    2    1    2    0    0  0.63156435905E+02 -0.47120625549E+02  0.70564218469E+02  0.13247325377E+03  0.79754406079E+02 0.  0.
        -11    1    4    4    0    0  0.13575300846E+02 -0.55794531620E+02  0.19172807524E+02  0.60538542270E+02  0.00000000000E+00 0.  1.
         12    1    4    4    0    0  0.49581135059E+02  0.86739060713E+01  0.51391410945E+02  0.71934711504E+02  0.00000000000E+00 0. -1.
        -13    1    3    3    0    0 -0.43986164763E+02  0.46685913365E+01  0.14428713112E+03  0.15091505771E+03  0.00000000000E+00 0.  1.
         13    1    3    3    0    0  0.47949878388E+01  0.90955834684E+02  0.44932839503E+03  0.45846696975E+03  0.00000000000E+00 0. -1.
          1    1    1    2  501    0 -0.23965258981E+02 -0.48503800472E+02  0.45553894347E+02  0.70725593588E+02  0.00000000000E+00 0. -1.
<scales pt_clust_5="13000.00000" pt_clust_6="13000.00000" pt_clust_7="13000.00000" pt_clust_8="13000.00000" pt_clust_9="54.10132"></scales>
<clustering>
<clus scale="   54.101">  2  9  1 -1</clus>
<clus scale="   79.754">  5  6 -1 -1</clus>
<clus scale="   91.033">  7  8 -1 -1</clus>
<clus scale="  125.139">  2  5  1 -1</clus>
<clus scale="   54.101">  2  5  1 -1</clus>
</clustering>
</event>
<event>
 9    2  0.3764910E-005  0.1613398E+03  0.7546771E-02  0.1188735E+00
          2   -1    0    0  502    0 -0.00000000000E+00  0.00000000000E+00  0.35292082560E+03  0.35292082560E+03  0.00000000000E+00 0. -1.
         21   -1    0    0  501  502  0.00000000000E+00 -0.00000000000E+00 -0.82959074573E+02  0.82959074573E+02  0.00000000000E+00 0.  1.
         23    2    1    2    0    0  0.80856048754E+02  0.11773182212E+03  0.15697817563E+03  0.23075619056E+03  0.90596850368E+02 0.  0.
         24    2    1    2    0    0 -0.62855088031E+02 -0.10714171131E+03  0.10904770209E+03  0.18387103607E+03  0.80542213660E+02 0.  0.
        -13    1    4    4    0    0 -0.76423712290E+02 -0.92783243458E+02  0.67487670575E+02  0.13785463266E+03  0.00000000000E+00 0.  1.
         14    1    4    4    0    0  0.13568624259E+02 -0.14358467854E+02  0.41560031513E+02  0.46016403410E+02  0.00000000000E+00 0. -1.
        -11    1    3    3    0    0  0.48954657632E+02  0.47873368952E+02  0.16152885920E+02  0.70351500924E+02  0.00000000000E+00 0.  1.
         11    1    3    3    0    0  0.31901391122E+02  0.69858453169E+02  0.14082528971E+03  0.16040468964E+03  0.00000000000E+00 0. -1.
          1    1    1    2  501    0 -0.18000960723E+02 -0.10590110809E+02  0.39358733045E+01  0.21252673540E+02  0.00000000000E+00 0. -1.
<scales pt_clust_5="13000.00000" pt_clust_6="13000.00000" pt_clust_7="13000.00000" pt_clust_8="13000.00000" pt_clust_9="20.88504"></scales>
<clustering>
<clus scale="   20.885">  2  9  1 -1</clus>
<clus scale="   80.542">  5  6 -1 -1</clus>
<clus scale="   90.597">  7  8 -1 -1</clus>
<clus scale="  155.916">  2  5  1 -1</clus>
<clus scale="   20.885">  2  5  1 -1</clus>
</clustering>
</event>
<event>
 9    2  0.3764910E-005  0.9326575E+02  0.7546771E-02  0.1301946E+00
          2   -1    0    0  502    0 -0.00000000000E+00  0.00000000000E+00  0.32065728219E+03  0.32065728219E+03  0.00000000000E+00 0. -1.
         21   -1    0    0  501  502  0.00000000000E+00 -0.00000000000E+00 -0.47565852174E+02  0.47565852174E+02  0.00000000000E+00 0. -1.
         24    2    1    2    0    0 -0.40197241330E+01  0.28306304323E+02  0.14011980603E+03  0.16397748798E+03  0.80234976638E+02 0.  0.
         23    2    1    2    0    0 -0.15144913354E+02  0.90933244239E+01  0.38483711595E+02  0.10083393937E+03  0.91511913542E+02 0.  0.
        -11    1    3    3    0    0 -0.37400033552E+02  0.34598196337E+02  0.77717430812E+02  0.92928987681E+02  0.00000000000E+00 0.  1.
         12    1    3    3    0    0  0.33380309419E+02 -0.62918920138E+01  0.62402375218E+02  0.71048500300E+02  0.00000000000E+00 0. -1.
        -13    1    4    4    0    0  0.21719831604E+02  0.98012307615E+01 -0.20393570702E+02  0.31364198305E+02  0.00000000000E+00 0. -1.
         13    1    4    4    0    0 -0.36864744958E+02 -0.70790633758E+00  0.58877282297E+02  0.69469741060E+02  0.00000000000E+00 0.  1.
          1    1    1    2  501    0  0.19164637487E+02 -0.37399628747E+02  0.94487912394E+02  0.10341170702E+03  0.00000000000E+00 0. -1.
<scales pt_clust_5="13000.00000" pt_clust_6="13000.00000" pt_clust_7="13000.00000" pt_clust_8="13000.00000" pt_clust_9="42.02401"></scales>
<clustering>
<clus scale="   42.024">  2  9  1 -1</clus>
<clus scale="   80.235">  5  6 -1 -1</clus>
<clus scale="   82.230">  1  5  2 -1</clus>
<clus scale="   91.512">  7  8 -1 -1</clus>
<clus scale="   42.024">  2  5  1 -1</clus>
</clustering>
</event>
<event>
 9    2  0.3764910E-005  0.9425859E+02  0.7546771E-02  0.1295268E+00
         -1   -1    0    0    0  501 -0.00000000000E+00  0.00000000000E+00  0.29357926317E+03  0.29357926317E+03  0.00000000000E+00 0.  1.
         21   -1    0    0  501  502  0.00000000000E+00 -0.00000000000E+00 -0.82849557598E+02  0.82849557598E+02  0.00000000000E+00 0. -1.
         23    2    1    2    0    0  0.26413133871E+02  0.13699185346E+01  0.22196993354E+03  0.24157413770E+03  0.91585382510E+02 0.  0.
         24    2    1    2    0    0  0.55266052903E+01 -0.25064235937E+01 -0.35779737990E+02  0.94560438651E+02  0.87319307040E+02 0.  0.
        -11    1    4    4    0    0  0.18633614230E+01  0.22646401218E+02  0.21881273381E+02  0.31545550061E+02  0.00000000000E+00 0.  1.
         12    1    4    4    0    0  0.36632438673E+01 -0.25152824811E+02 -0.57661011371E+02  0.63014888589E+02  0.00000000000E+00 0. -1.
        -13    1    3    3    0    0 -0.15517077732E+02  0.34628486505E+02  0.12716754361E+03  0.13270831145E+03  0.00000000000E+00 0.  1.
         13    1    3    3    0    0  0.41930211603E+02 -0.33258567970E+02  0.94802389933E+02  0.10886582625E+03  0.00000000000E+00 0. -1.
         -2    1    1    2    0  502 -0.31939739161E+02  0.11365050592E+01  0.24539510023E+02  0.40294244423E+02  0.00000000000E+00 0.  1.
<scales pt_clust_5="13000.00000" pt_clust_6="13000.00000" pt_clust_7="13000.00000" pt_clust_8="13000.00000" pt_clust_9="31.95997"></scales>
<clustering>
<clus scale="   31.960">  2  9  1 -1</clus>
<clus scale="   87.319">  5  6 -1 -1</clus>
<clus scale="   90.119">  2  5  1 -1</clus>
<clus scale="   91.585">  7  8 -1 -1</clus>
<clus scale="   31.960">  2  5  1 -1</clus>
</clustering>
</event>
<event>
 9    2  0.3764910E-005  0.1303299E+03  0.7546771E-02  0.1247036E+00
         21   -1    0    0  501  502  0.00000000000E+00  0.00000000000E+00  0.70714311598E+03  0.70714311598E+03  0.00000000000E+00 0.  1.
         -1   -1    0    0    0  501 -0.00000000000E+00 -0.00000000000E+00 -0.55676843058E+02  0.55676843058E+02  0.00000000000E+00 0.  1.
         24    2    1    2    0    0  0.26044672036E+02 -0.13497641511E+02  0.17264999981E+03  0.19311788749E+03  0.81400152125E+02 0.  0.
         23    2    1    2    0    0  0.69476419490E+02  0.18127265245E+02  0.43848001867E+02  0.12434478876E+03  0.91560955729E+02 0.  0.
        -11    1    3    3    0    0  0.41180576129E+02 -0.39079781691E+02  0.11096694931E+03  0.12464643207E+03  0.00000000000E+00 0.  1.
         12    1    3    3    0    0 -0.15135904093E+02  0.25582140180E+02  0.61683050494E+02  0.68471455419E+02  0.00000000000E+00 0. -1.
        -13    1    4    4    0    0  0.86424209599E+02 -0.53192105797E+01  0.26235989740E+02  0.90475218505E+02  0.00000000000E+00 0.  1.
         13    1    4    4    0    0 -0.16947790109E+02  0.23446475824E+02  0.17612012127E+02  0.33869570256E+02  0.00000000000E+00 0. -1.
         -2    1    1    2    0  502 -0.95521091526E+02 -0.46296237333E+01  0.43496827125E+03  0.44535728279E+03  0.00000000000E+00 0.  1.
<scales pt_clust_5="13000.00000" pt_clust_6="13000.00000" pt_clust_7="13000.00000" pt_clust_8="13000.00000" pt_clust_9="92.74959"></scales>
<clustering>
<clus scale="   81.400">  5  6 -1 -1</clus>
<clus scale="   86.525">  2  5  1 -1</clus>
<clus scale="   91.561">  7  8 -1 -1</clus>
<clus scale="   92.750">  1  9  2 -1</clus>
<clus scale="   92.750">  1  5  2 -1</clus>
</clustering>
</event>
<event>
 9    2  0.3764910E-005  0.1820894E+03  0.7546771E-02  0.1167101E+00
         -1   -1    0    0    0  501 -0.00000000000E+00  0.00000000000E+00  0.98757601093E+03  0.98757601093E+03  0.00000000000E+00 0.  1.
         21   -1    0    0  501  502  0.00000000000E+00 -0.00000000000E+00 -0.28368130837E+03  0.28368130837E+03  0.00000000000E+00 0.  1.
         23    2    1    2    0    0  0.67721045558E+02  0.14955754955E+03  0.89486717879E+03  0.91433813199E+03  0.90957964411E+02 0.  0.
         24    2    1    2    0    0 -0.14732236773E+02 -0.11837986803E+03  0.12873370474E+02  0.14400373249E+03  0.79627378139E+02 0.  0.
        -11    1    4    4    0    0  0.31193210433E+01 -0.11567139711E+03  0.29547640401E+02  0.11942640129E+03  0.00000000000E+00 0.  1.
         12    1    4    4    0    0 -0.17851557817E+02 -0.27084709212E+01 -0.16674269927E+02  0.24577331198E+02  0.00000000000E+00 0. -1.
        -11    1    3    3    0    0  0.37895596685E+01  0.11078713093E+03  0.59891552271E+03  0.60908780359E+03  0.00000000000E+00 0.  1.
         11    1    3    3    0    0  0.63931485889E+02  0.38770418619E+02  0.29595165608E+03  0.30525032840E+03  0.00000000000E+00 0. -1.
         -2    1    1    2    0  502 -0.52988808784E+02 -0.31177681524E+02 -0.20384584670E+03  0.21291545482E+03  0.00000000000E+00 0.  1.
<scales pt_clust_5="13000.00000" pt_clust_6="13000.00000" pt_clust_7="13000.00000" pt_clust_8="13000.00000" pt_clust_9="61.48058"></scales>
<clustering>
<clus scale="   61.481">  2  9  1 -1</clus>
<clus scale="   79.627">  5  6 -1 -1</clus>
<clus scale="   90.958">  7  8 -1 -1</clus>
<clus scale="  176.702">  2  5  1 -1</clus>
<clus scale="   61.481">  2  5  1 -1</clus>
</clustering>
</event>
<event>
 9    2  0.3764910E-005  0.9499060E+02  0.7546771E-02  0.1298388E+00
         21   -1    0    0  501  502  0.00000000000E+00  0.00000000000E+00  0.95592928142E+02  0.95592928142E+02  0.00000000000E+00 0.  1.
         -3   -1    0    0    0  501 -0.00000000000E+00 -0.00000000000E+00 -0.14857880648E+03  0.14857880648E+03  0.00000000000E+00 0.  1.
         23    2    1    2    0    0 -0.25020139477E+02  0.13657079918E+02 -0.87629687917E+02  0.13058307536E+03  0.92522722376E+02 0.  0.
         24    2    1    2    0    0  0.80910165998E+01  0.30496068239E+01  0.13690053419E+02  0.81890576021E+02  0.80273807852E+02 0.  0.
        -11    1    4    4    0    0 -0.20449120706E+02  0.43675787685E+01  0.38655795277E+02  0.43948979402E+02  0.00000000000E+00 0.  1.
         12    1    4    4    0    0  0.28540137306E+02 -0.13179719447E+01 -0.24965741858E+02  0.37941596620E+02  0.00000000000E+00 0. -1.
        -11    1    3    3    0    0 -0.64648273382E+01  0.51580004235E+02 -0.63100575062E+02  0.81755571080E+02  0.00000000000E+00 0.  1.
         11    1    3    3    0    0 -0.18555312139E+02 -0.37922924316E+02 -0.24529112855E+02  0.48827504285E+02  0.00000000000E+00 0. -1.
         -4    1    1    2    0  502  0.16929122878E+02 -0.16706686742E+02  0.20953756164E+02  0.31698083233E+02  0.00000000000E+00 0.  1.
<scales pt_clust_5="13000.00000" pt_clust_6="13000.00000" pt_clust_7="13000.00000" pt_clust_8="13000.00000" pt_clust_9="23.78463"></scales>
<clustering>
<clus scale="   23.785">  1  9  2 -1</clus>
<clus scale="   80.274">  5  6 -1 -1</clus>
<clus scale="   83.106">  1  5  2 -1</clus>
<clus scale="   92.523">  7  8 -1 -1</clus>
<clus scale="   23.785">  1  5  2 -1</clus>
</clustering>
</event>
<event>
 9    2  0.3764910E-005  0.1513143E+03  0.7546771E-02  0.1209301E+00
         21   -1    0    0  501  502  0.00000000000E+00  0.00000000000E+00  0.30470241595E+03  0.30470241595E+03  0.00000000000E+00 0.  1.
          2   -1    0    0  502    0 -0.00000000000E+00 -0.00000000000E+00 -0.33502232833E+03  0.33502232833E+03  0.00000000000E+00 0. -1.
         24    2    1    2    0    0 -0.88234664633E+02  0.23715561886E+02 -0.24474172377E+03  0.27293998278E+03  0.79056555234E+02 0.  0.
         23    2    1    2    0    0 -0.55489060272E+00 -0.11644077511E+03  0.50133665952E+02  0.15828501326E+03  0.94773408451E+02 0.  0.
        -11    1    3    3    0    0  0.55999447380E+01  0.19222818621E+02 -0.15902682268E+02  0.25568954615E+02  0.00000000000E+00 0.  1.
         12    1    3    3    0    0 -0.93834609371E+02  0.44927432647E+01 -0.22883904150E+03  0.24737102816E+03  0.00000000000E+00 0. -1.
        -11    1    4    4    0    0  0.20570799717E+02  0.83598772359E+01  0.15424569934E+02  0.27036321977E+02  0.00000000000E+00 0. -1.
         11    1    4    4    0    0 -0.21125690319E+02 -0.12480065234E+03  0.34709096017E+02  0.13124869128E+03  0.00000000000E+00 0.  1.
          1    1    1    2  501    0  0.88789555236E+02  0.92725213223E+02  0.16428814544E+03  0.20849974824E+03  0.00000000000E+00 0. -1.
<scales pt_clust_5="13000.00000" pt_clust_6="13000.00000" pt_clust_7="13000.00000" pt_clust_8="13000.00000" pt_clust_9="117.95771"></scales>
<clustering>
<clus scale="   79.057">  5  6 -1 -1</clus>
<clus scale="   94.773">  7  8 -1 -1</clus>
<clus scale="  120.821">  2  5  1 -1</clus>
<clus scale="  117.958">  1  9  2 -1</clus>
<clus scale="  117.958">  1  5  2 -1</clus>
</clustering>
</event>
<event>
 9    2  0.3764910E-005  0.1112070E+03  0.7546771E-02  0.1262887E+00
         21   -1    0    0  501  502  0.00000000000E+00  0.00000000000E+00  0.14018372462E+03  0.14018372462E+03  0.00000000000E+00 0. -1.
          4   -1    0    0  502    0 -0.00000000000E+00 -0.00000000000E+00 -0.21041662611E+03  0.21041662611E+03  0.00000000000E+00 0. -1.
         23    2    1    2    0    0 -0.61428799714E+02  0.12742465526E+02 -0.12414259670E+03  0.16660398569E+03  0.91704066824E+02 0.  0.
         24    2    1    2    0    0  0.67118471580E+02  0.13835185971E+02  0.90203543287E+02  0.13865336852E+03  0.79948582108E+02 0.  0.
        -13    1    4    4    0    0 -0.75601257058E+01  0.26733044242E+02  0.13727477668E+02  0.30987978286E+02  0.00000000000E+00 0.  1.
         14    1    4    4    0    0  0.74678597286E+02 -0.12897858271E+02  0.76476065619E+02  0.10766539023E+03  0.00000000000E+00 0. -1.
        -13    1    3    3    0    0  0.14758641359E+02 -0.21769467267E+02 -0.20049269502E+02  0.33071141610E+02  0.00000000000E+00 0.  1.
         13    1    3    3    0    0 -0.76187441073E+02  0.34511932792E+02 -0.10409332719E+03  0.13353284408E+03  0.00000000000E+00 0. -1.
          3    1    1    2  501    0 -0.56896718661E+01 -0.26577651497E+02 -0.36293848079E+02  0.45342996520E+02  0.00000000000E+00 0. -1.
<scales pt_clust_5="13000.00000" pt_clust_6="13000.00000" pt_clust_7="13000.00000" pt_clust_8="13000.00000" pt_clust_9="27.17986"></scales>
<clustering>
<clus scale="   27.180">  1  9  2 -1</clus>
<clus scale="   79.949">  5  6 -1 -1</clus>
<clus scale="   91.704">  7  8 -1 -1</clus>
<clus scale="  101.731">  1  5  2 -1</clus>
<clus scale="   27.180">  1  5  2 -1</clus>
</clustering>
</event>
<event>
 9    2  0.3764910E-005  0.1203506E+03  0.7546771E-02  0.1245135E+00
         21   -1    0    0  501  502  0.00000000000E+00  0.00000000000E+00  0.13701885422E+03  0.13701885422E+03  0.00000000000E+00 0.  1.
          2   -1    0    0  502    0 -0.00000000000E+00 -0.00000000000E+00 -0.40613652203E+03  0.40613652203E+03  0.00000000000E+00 0. -1.
         23    2    1    2    0    0 -0.71110127402E+02 -0.32942919198E+02 -0.31397662609E+03  0.33543885421E+03  0.88295056719E+02 0.  0.
         24    2    1    2    0    0  0.72774380093E+02  0.81477760747E+02 -0.86211547237E+01  0.13547717633E+03  0.79655540326E+02 0.  0.
        -11    1    4    4    0    0  0.82191432880E+02  0.51445356145E+02  0.12215693111E+02  0.97730647527E+02  0.00000000000E+00 0.  1.
         12    1    4    4    0    0 -0.94170527876E+01  0.30032404601E+02 -0.20836847835E+02  0.37746528808E+02  0.00000000000E+00 0. -1.
        -13    1    3    3    0    0  0.20162154769E+02 -0.13049079248E+02 -0.79163930597E+02  0.82726772340E+02  0.00000000000E+00 0.  1.
         13    1    3    3    0    0 -0.91272282171E+02 -0.19893839950E+02 -0.23481269549E+03  0.25271208187E+03  0.00000000000E+00 0. -1.
          1    1    1    2  501    0 -0.16642526906E+01 -0.48534841548E+02  0.53480113006E+02  0.72239345707E+02  0.00000000000E+00 0. -1.
<scales pt_clust_5="13000.00000" pt_clust_6="13000.00000" pt_clust_7="13000.00000" pt_clust_8="13000.00000" pt_clust_9="48.56337"></scales>
<clustering>
<clus scale="   48.563">  1  9  2 -1</clus>
<clus scale="   79.656">  5  6 -1 -1</clus>
<clus scale="   88.295">  7  8 -1 -1</clus>
<clus scale="  114.163">  1  5  2 -1</clus>
<clus scale="   48.563">  1  5  2 -1</clus>
</clustering>
</event>
<event>
 9    2  0.3764910E-005  0.1067031E+03  0.7546771E-02  0.1271858E+00
         21   -1    0    0  501  502  0.00000000000E+00  0.00000000000E+00  0.75620105782E+02  0.75620105782E+02  0.00000000000E+00 0. -1.
          2   -1    0    0  502    0 -0.00000000000E+00 -0.00000000000E+00 -0.65013563465E+03  0.65013563465E+03  0.00000000000E+00 0. -1.
         24    2    1    2    0    0 -0.49727245423E+02 -0.37642307804E+02 -0.50333265827E+03  0.51344416020E+03  0.79946222504E+02 0.  0.
         23    2    1    2    0    0 -0.42334755123E+02  0.33048865283E+02 -0.24972086076E+02  0.10920024106E+03  0.91742185373E+02 0.  0.
        -11    1    3    3    0    0  0.18707294927E+02 -0.21884971941E+02 -0.10077249367E+03  0.10480462948E+03  0.00000000000E+00 0.  1.
         12    1    3    3    0    0 -0.68434540350E+02 -0.15757335863E+02 -0.40256016460E+03  0.40863953072E+03  0.00000000000E+00 0. -1.
        -13    1    4    4    0    0 -0.41025109814E+00  0.55932054529E+02 -0.25411087923E+02  0.61435221325E+02  0.00000000000E+00 0.  1.
         13    1    4    4    0    0 -0.41924504024E+02 -0.22883189246E+02  0.43900184723E+00  0.47765019736E+02  0.00000000000E+00 0. -1.
          1    1    1    2  501    0  0.92062000546E+02  0.45934425211E+01 -0.46210784523E+02  0.10311133917E+03  0.00000000000E+00 0. -1.
<scales pt_clust_5="13000.00000" pt_clust_6="13000.00000" pt_clust_7="13000.00000" pt_clust_8="13000.00000" pt_clust_9="92.17652"></scales>
<clustering>
<clus scale="   79.946">  5  6 -1 -1</clus>
<clus scale="   91.742">  7  8 -1 -1</clus>
<clus scale="   92.177">  1  9  2 -1</clus>
<clus scale="   96.749">  2  5  1 -1</clus>
<clus scale="   92.177">  1  5  2 -1</clus>
</clustering>
</event>
<event>
 9    2  0.3764910E-005  0.2643220E+03  0.7546771E-02  0.1105105E+00
         21   -1    0    0  501  502  0.00000000000E+00  0.00000000000E+00  0.54997821389E+03  0.54997821389E+03  0.00000000000E+00 0. -1.
          2   -1    0    0  502    0 -0.00000000000E+00 -0.00000000000E+00 -0.47305945205E+03  0.47305945205E+03  0.00000000000E+00 0. -1.
         24    2    1    2    0    0  0.21258486853E+03  0.12100180104E+03 -0.25818160895E+03  0.36466477689E+03  0.80553672269E+02 0.  0.
         23    2    1    2    0    0 -0.12599973601E+03 -0.30590168574E+03  0.28981931118E+03  0.44924296079E+03  0.91499890049E+02 0.  0.
        -11    1    3    3    0    0  0.43428677874E+02 -0.60951119470E+01 -0.28089029569E+02  0.52078729186E+02  0.00000000000E+00 0.  1.
         12    1    3    3    0    0  0.16915619066E+03  0.12709691299E+03 -0.23009257938E+03  0.31258604770E+03  0.00000000000E+00 0. -1.
        -13    1    4    4    0    0 -0.70505672572E+02 -0.65414416054E+02  0.73357335632E+02  0.12096030086E+03  0.00000000000E+00 0.  1.
         13    1    4    4    0    0 -0.55494063433E+02 -0.24048726968E+03  0.21646197555E+03  0.32828265994E+03  0.00000000000E+00 0. -1.
          1    1    1    2  501    0 -0.86585132527E+02  0.18489988469E+03  0.45281059620E+02  0.20912992826E+03  0.00000000000E+00 0. -1.
<scales pt_clust_5="13000.00000" pt_clust_6="13000.00000" pt_clust_7="13000.00000" pt_clust_8="13000.00000" pt_clust_9="204.16893"></scales>
<clustering>
<clus scale="   80.554">  5  6 -1 -1</clus>
<clus scale="   91.500">  7  8 -1 -1</clus>
<clus scale="  204.169">  1  9  2 -1</clus>
<clus scale="  260.735">  2  5  1 -1</clus>
<clus scale="  204.169">  1  5  2 -1</clus>
</clustering>
</event>
<event>
 9    2  0.3764910E-005  0.1113597E+03  0.7546771E-02  0.1262257E+00
          2   -1    0    0  502    0 -0.00000000000E+00  0.00000000000E+00  0.40779996619E+03  0.40779996619E+03  0.00000000000E+00 0. -1.
         21   -1    0    0  501  502  0.00000000000E+00 -0.00000000000E+00 -0.45062043430E+02  0.45062043430E+02  0.00000000000E+00 0.  1.
         24    2    1    2    0    0 -0.35964263693E+02  0.59113706781E+02  0.27173168235E+03  0.29195665155E+03  0.81318636229E+02 0.  0.
         23    2    1    2    0    0  0.34658355734E+02 -0.29718940519E+02  0.65239901834E+02  0.12179446595E+03  0.92158722303E+02 0.  0.
        -13    1    3    3    0    0 -0.30254995312E+02 -0.73780920058E+01  0.14934229844E+03  0.15255465607E+03  0.00000000000E+00 0.  1.
         14    1    3    3    0    0 -0.57092683805E+01  0.66491798787E+02  0.12238938390E+03  0.13940199548E+03  0.00000000000E+00 0. -1.
        -11    1    4    4    0    0  0.42713795015E+02  0.97259943046E+01 -0.15217160941E+01  0.43833535902E+02  0.00000000000E+00 0.  1.
         11    1    4    4    0    0 -0.80554392816E+01 -0.39444934823E+02  0.66761617928E+02  0.77960930046E+02  0.00000000000E+00 0. -1.
          1    1    1    2  501    0  0.13059079588E+01 -0.29394766263E+02  0.25766338583E+02  0.39110892130E+02  0.00000000000E+00 0. -1.
<scales pt_clust_5="13000.00000" pt_clust_6="13000.00000" pt_clust_7="13000.00000" pt_clust_8="13000.00000" pt_clust_9="29.42376"></scales>
<clustering>
<clus scale="   29.424">  2  9  1 -1</clus>
<clus scale="   81.319">  5  6 -1 -1</clus>
<clus scale="   92.159">  7  8 -1 -1</clus>
<clus scale="  102.569">  1  5  2 -1</clus>
<clus scale="   29.424">  2  5  1 -1</clus>
</clustering>
</event>
<event>
 9    2  0.3764910E-005  0.1257967E+03  0.7546771E-02  0.1254480E+00
          2   -1    0    0  502    0 -0.00000000000E+00  0.00000000000E+00  0.88495056176E+03  0.88495056176E+03  0.00000000000E+00 0. -1.
         21   -1    0    0  501  502  0.00000000000E+00 -0.00000000000E+00 -0.24764842493E+02  0.24764842493E+02  0.00000000000E+00 0. -1.
         24    2    1    2    0    0  0.13958388689E+02 -0.12560726583E+02  0.20303689963E+03  0.21932336734E+03  0.80784580094E+02 0.  0.
         23    2    1    2    0    0 -0.69703265409E+02 -0.50413639246E+02  0.36761266643E+03  0.38888839508E+03  0.93247150477E+02 0.  0.
        -11    1    3    3    0    0 -0.92082581207E+01 -0.37307980342E+02  0.15994301813E+03  0.16449451803E+03  0.00000000000E+00 0.  1.
         12    1    3    3    0    0  0.23166646809E+02  0.24747253760E+02  0.43093881504E+02  0.54828849305E+02  0.00000000000E+00 0. -1.
        -11    1    4    4    0    0  0.10587976104E+02  0.17719453817E+02  0.79458894317E+02  0.82096285956E+02  0.00000000000E+00 0.  1.
         11    1    4    4    0    0 -0.80291241513E+02 -0.68133093063E+02  0.28815377212E+03  0.30679210912E+03  0.00000000000E+00 0. -1.
          1    1    1    2  501    0  0.55744876720E+02  0.62974365828E+02  0.28953615321E+03  0.30150364184E+03  0.00000000000E+00 0. -1.
<scales pt_clust_5="13000.00000" pt_clust_6="13000.00000" pt_clust_7="13000.00000" pt_clust_8="13000.00000" pt_clust_9="84.43809"></scales>
<clustering>
<clus scale="   80.785">  5  6 -1 -1</clus>
<clus scale="   82.938">  1  5  2 -1</clus>
<clus scale="   84.438">  2  9  1 -1</clus>
<clus scale="   93.247">  7  8 -1 -1</clus>
<clus scale="   84.438">  2  5  1 -1</clus>
</clustering>
</event>
<event>
 9    2  0.3764910E-005  0.8997736E+02  0.7546771E-02  0.1305727E+00
          2   -1    0    0  502    0 -0.00000000000E+00  0.00000000000E+00  0.39272780702E+03  0.39272780702E+03  0.00000000000E+00 0. -1.
         21   -1    0    0  501  502  0.00000000000E+00 -0.00000000000E+00 -0.51795549821E+02  0.51795549821E+02  0.00000000000E+00 0. -1.
         24    2    1    2    0    0 -0.16459909887E+02  0.11498102782E+02  0.27327376941E+03  0.28591409770E+03  0.81640573351E+02 0.  0.
         23    2    1    2    0    0  0.50631466410E+02 -0.33763791906E+01  0.71792717963E+02  0.12324332173E+03  0.86369998677E+02 0.  0.
        -11    1    3    3    0    0 -0.34040570060E+02  0.91406397716E+01  0.46008671729E+02  0.57957825871E+02  0.00000000000E+00 0.  1.
         12    1    3    3    0    0  0.17580660173E+02  0.23574630102E+01  0.22726509768E+03  0.22795627183E+03  0.00000000000E+00 0. -1.
        -11    1    4    4    0    0 -0.19617543339E+02 -0.11929961913E+02  0.38977594751E+02  0.45237427982E+02  0.00000000000E+00 0.  1.
         11    1    4    4    0    0  0.70249009749E+02  0.85535827221E+01  0.32815123213E+02  0.78005893749E+02  0.00000000000E+00 0. -1.
          1    1    1    2  501    0 -0.34171556524E+02 -0.81217235912E+01 -0.41342301757E+01  0.35365937404E+02  0.00000000000E+00 0. -1.
<scales pt_clust_5="13000.00000" pt_clust_6="13000.00000" pt_clust_7="13000.00000" pt_clust_8="13000.00000" pt_clust_9="35.12346"></scales>
<clustering>
<clus scale="   35.123">  2  9  1 -1</clus>
<clus scale="   81.641">  5  6 -1 -1</clus>
<clus scale="   85.448">  1  5  2 -1</clus>
<clus scale="   86.370">  7  8 -1 -1</clus>
<clus scale="   35.123">  2  5  1 -1</clus>
</clustering>
</event>
<event>
 9    2  0.3764910E-005  0.1024649E+03  0.7546771E-02  0.1279528E+00
         21   -1    0    0  501  502  0.00000000000E+00  0.00000000000E+00  0.21653212720E+02  0.21653212720E+02  0.00000000000E+00 0. -1.
          2   -1    0    0  502    0 -0.00000000000E+00 -0.00000000000E+00 -0.13626267805E+04  0.13626267805E+04  0.00000000000E+00 0. -1.
         24    2    1    2    0    0  0.41928350641E+02 -0.30174149770E+02 -0.90958443228E+03  0.91474841566E+03  0.82172736371E+02 0.  0.
         23    2    1    2    0    0 -0.42622889828E+01  0.10518758085E+02 -0.10206649436E+03  0.13747967109E+03  0.91401746775E+02 0.  0.
        -13    1    3    3    0    0  0.28245842421E+02  0.77324326507E+01 -0.10099103725E+03  0.10515135630E+03  0.00000000000E+00 0.  1.
         14    1    3    3    0    0  0.13682508220E+02 -0.37906582421E+02 -0.80859339504E+03  0.80959705935E+03  0.00000000000E+00 0. -1.
        -13    1    4    4    0    0 -0.16327767520E+01 -0.39913148111E+02 -0.58184523642E+02  0.70577362826E+02  0.00000000000E+00 0. -1.
         13    1    4    4    0    0 -0.26295122309E+01  0.50431906196E+02 -0.43881970721E+02  0.66902308268E+02  0.00000000000E+00 0.  1.
          1    1    1    2  501    0 -0.37666061658E+02  0.19655391685E+02 -0.32932264115E+03  0.33205190648E+03  0.00000000000E+00 0. -1.
<scales pt_clust_5="13000.00000" pt_clust_6="13000.00000" pt_clust_7="13000.00000" pt_clust_8="13000.00000" pt_clust_9="42.48610"></scales>
<clustering>
<clus scale="   42.486">  1  9  2 -1</clus>
<clus scale="   82.173">  5  6 -1 -1</clus>
<clus scale="   91.402">  7  8 -1 -1</clus>
<clus scale="   94.325">  2  5  1 -1</clus>
<clus scale="   42.486">  1  5  2 -1</clus>
</clustering>
</event>
<event>
 9    2  0.3764910E-005  0.1203859E+03  0.7546771E-02  0.1246508E+00
         21   -1    0    0  501  502  0.00000000000E+00  0.00000000000E+00  0.88784933219E+02  0.88784933219E+02  0.00000000000E+00 0.  1.
          2   -1    0    0  502    0 -0.00000000000E+00 -0.00000000000E+00 -0.31967890551E+03  0.31967890551E+03  0.00000000000E+00 0. -1.
         24    2    1    2    0    0 -0.50384681235E+02  0.48826691770E+02 -0.13926961155E+03  0.17434277199E+03  0.77953290559E+02 0.  0.
         23    2    1    2    0    0  0.22410665279E+02 -0.11117428746E+03 -0.76084851613E+02  0.16404079420E+03  0.90876385304E+02 0.  0.
        -13    1    3    3    0    0 -0.66913289077E+02  0.54075531916E+02 -0.12570300385E+03  0.15232464208E+03  0.00000000000E+00 0.  1.
         14    1    3    3    0    0  0.16528607842E+02 -0.52488401460E+01 -0.13566607702E+02  0.22018129907E+02  0.00000000000E+00 0. -1.
        -13    1    4    4    0    0  0.16205896106E+02 -0.13328051949E+02  0.18379653748E+02  0.27894080183E+02  0.00000000000E+00 0.  1.
         13    1    4    4    0    0  0.62047691723E+01 -0.97846235508E+02 -0.94464505361E+02  0.13614671401E+03  0.00000000000E+00 0. -1.
          1    1    1    2  501    0  0.27974015956E+02  0.62347595687E+02 -0.15539509128E+02  0.70080272550E+02  0.00000000000E+00 0. -1.
<scales pt_clust_5="13000.00000" pt_clust_6="13000.00000" pt_clust_7="13000.00000" pt_clust_8="13000.00000" pt_clust_9="68.33570"></scales>
<clustering>
<clus scale="   68.336">  1  9  2 -1</clus>
<clus scale="   77.953">  5  6 -1 -1</clus>
<clus scale="   90.876">  7  8 -1 -1</clus>
<clus scale="  110.955">  2  5  1 -1</clus>
<clus scale="   68.336">  1  5  2 -1</clus>
</clustering>
</event>
<event>
 9    2  0.3764910E-005  0.4284571E+03  0.7546771E-02  0.1072937E+00
         -1   -1    0    0    0  501 -0.00000000000E+00  0.00000000000E+00  0.11969357298E+04  0.11969357298E+04  0.00000000000E+00 0.  1.
         21   -1    0    0  501  502  0.00000000000E+00 -0.00000000000E+00 -0.26687064870E+03  0.26687064870E+03  0.00000000000E+00 0.  1.
         23    2    1    2    0    0 -0.84621622020E+02 -0.63008696115E+02  0.41882458363E+03  0.44273635142E+03  0.97316649775E+02 0.  0.
         24    2    1    2    0    0 -0.34601798886E+03 -0.92534683776E+02  0.41319436950E+03  0.55282088328E+03  0.81180205031E+02 0.  0.
        -13    1    4    4    0    0 -0.31201270837E+03 -0.67262522246E+02  0.39180889481E+03  0.50536163995E+03  0.00000000000E+00 0.  1.
         14    1    4    4    0    0 -0.34005280490E+02 -0.25272161530E+02  0.21385474690E+02  0.47459243328E+02  0.00000000000E+00 0. -1.
        -11    1    3    3    0    0 -0.39432834272E+02 -0.79466242452E+02  0.20165795223E+03  0.22030833349E+03  0.00000000000E+00 0. -1.
         11    1    3    3    0    0 -0.45188787748E+02  0.16457546337E+02  0.21716663140E+03  0.22242801793E+03  0.00000000000E+00 0.  1.
         -2    1    1    2    0  502  0.43063961088E+03  0.15554337989E+03  0.98046128005E+02  0.46824914383E+03  0.00000000000E+00 0.  1.
<scales pt_clust_5="13000.00000" pt_clust_6="13000.00000" pt_clust_7="13000.00000" pt_clust_8="13000.00000" pt_clust_9="420.69612"></scales>
<clustering>
<clus scale="   81.180">  5  6 -1 -1</clus>
<clus scale="   97.317">  7  8 -1 -1</clus>
<clus scale="  143.532">  1  7  2 -1</clus>
<clus scale="  420.696">  2  9  1 -1</clus>
<clus scale="  420.696">  2  5  1 -1</clus>
</clustering>
</event>
<event>
 9    2  0.3764910E-005  0.9534126E+02  0.7546771E-02  0.1295387E+00
         21   -1    0    0  501  502  0.00000000000E+00  0.00000000000E+00  0.18505488631E+03  0.18505488631E+03  0.00000000000E+00 0.  1.
          2   -1    0    0  502    0 -0.00000000000E+00 -0.00000000000E+00 -0.14121359424E+03  0.14121359424E+03  0.00000000000E+00 0. -1.
         23    2    1    2    0    0  0.19858400625E+02  0.17582115986E+02 -0.10013093540E+03  0.13761152039E+03  0.90593815685E+02 0.  0.
         24    2    1    2    0    0 -0.35973277432E+02 -0.33479414932E+02  0.94301830049E+02  0.13407159812E+03  0.81654212136E+02 0.  0.
        -11    1    4    4    0    0 -0.16951667707E+02 -0.53210732421E+02  0.90581620551E+02  0.10641320907E+03  0.00000000000E+00 0.  1.
         12    1    4    4    0    0 -0.19021609725E+02  0.19731317489E+02  0.37202094971E+01  0.27658389054E+02  0.00000000000E+00 0. -1.
        -13    1    3    3    0    0  0.22346690707E+02 -0.11709988175E+02  0.72735563242E+01  0.26256485489E+02  0.00000000000E+00 0.  1.
         13    1    3    3    0    0 -0.24882900825E+01  0.29292104161E+02 -0.10740449173E+03  0.11135503490E+03  0.00000000000E+00 0. -1.
          1    1    1    2  501    0  0.16114876807E+02  0.15897298947E+02  0.49670397427E+02  0.54585362038E+02  0.00000000000E+00 0. -1.
<scales pt_clust_5="13000.00000" pt_clust_6="13000.00000" pt_clust_7="13000.00000" pt_clust_8="13000.00000" pt_clust_9="22.63655"></scales>
<clustering>
<clus scale="   22.637">  1  9  2 -1</clus>
<clus scale="   81.654">  5  6 -1 -1</clus>
<clus scale="   86.891">  1  5  2 -1</clus>
<clus scale="   90.594">  7  8 -1 -1</clus>
<clus scale="   22.637">  1  5  2 -1</clus>
</clustering>
</event>
<event>
 9    2  0.3764910E-005  0.1019187E+03  0.7546771E-02  0.1280953E+00
         21   -1    0    0  501  502  0.00000000000E+00  0.00000000000E+00  0.44750654215E+02  0.44750654215E+02  0.00000000000E+00 0.  1.
          2   -1    0    0  502    0 -0.00000000000E+00 -0.00000000000E+00 -0.48031701755E+03  0.48031701755E+03  0.00000000000E+00 0. -1.
         24    2    1    2    0    0 -0.46204820026E+02 -0.29916416087E+02 -0.31101591235E+03  0.32535711980E+03  0.78079961116E+02 0.  0.
         23    2    1    2    0    0  0.25409938661E+02  0.36952721632E+02 -0.14101195108E+03  0.17227120665E+03  0.88214679471E+02 0.  0.
        -13    1    3    3    0    0 -0.54395150522E+02 -0.15551427176E+02 -0.11031462464E+03  0.12397578674E+03  0.00000000000E+00 0.  1.
         14    1    3    3    0    0  0.81903304962E+01 -0.14364988911E+02 -0.20070128771E+03  0.20138133306E+03  0.00000000000E+00 0. -1.
        -13    1    4    4    0    0  0.43742463273E+02  0.29486319647E+01 -0.12113862577E+03  0.12882804111E+03  0.00000000000E+00 0. -1.
         13    1    4    4    0    0 -0.18332524611E+02  0.34004089668E+02 -0.19873325306E+02  0.43443165532E+02  0.00000000000E+00 0.  1.
          1    1    1    2  501    0  0.20794881365E+02 -0.70363055455E+01  0.16461500083E+02  0.27439345322E+02  0.00000000000E+00 0. -1.
<scales pt_clust_5="13000.00000" pt_clust_6="13000.00000" pt_clust_7="13000.00000" pt_clust_8="13000.00000" pt_clust_9="21.95306"></scales>
<clustering>
<clus scale="   21.953">  1  9  2 -1</clus>
<clus scale="   78.080">  5  6 -1 -1</clus>
<clus scale="   88.215">  7  8 -1 -1</clus>
<clus scale="   93.285">  2  5  1 -1</clus>
<clus scale="   21.953">  1  5  2 -1</clus>
</clustering>
</event>
<event>
 9    2  0.3764910E-005  0.9797460E+02  0.7546771E-02  0.1290300E+00
          2   -1    0    0  502    0 -0.00000000000E+00  0.00000000000E+00  0.75254804671E+03  0.75254804671E+03  0.00000000000E+00 0. -1.
         21   -1    0    0  501  502  0.00000000000E+00 -0.00000000000E+00 -0.16875136041E+02  0.16875136041E+02  0.00000000000E+00 0.  1.
         23    2    1    2    0    0 -0.12864370351E+02 -0.24868599929E+02  0.37073575390E+03  0.38277050476E+03  0.91018244368E+02 0.  0.
         24    2    1    2    0    0  0.29113554124E+01  0.51144858463E+02  0.23179041887E+03  0.25057344342E+03  0.80224558137E+02 0.  0.
        -11    1    4    4    0    0 -0.31056903016E+02 -0.16086165784E+01  0.58128785174E+02  0.65924764225E+02  0.00000000000E+00 0.  1.
         12    1    4    4    0    0  0.33968258428E+02  0.52753475041E+02  0.17366163369E+03  0.18464867919E+03  0.00000000000E+00 0. -1.
        -11    1    3    3    0    0 -0.24880624456E+02 -0.55005181399E+02  0.19742462929E+03  0.20644878228E+03  0.00000000000E+00 0. -1.
         11    1    3    3    0    0  0.12016254106E+02  0.30136581469E+02  0.17331112461E+03  0.17632172248E+03  0.00000000000E+00 0.  1.
          1    1    1    2  501    0  0.99530149384E+01 -0.26276258534E+02  0.13314673790E+03  0.13607923457E+03  0.00000000000E+00 0. -1.
<scales pt_clust_5="13000.00000" pt_clust_6="13000.00000" pt_clust_7="13000.00000" pt_clust_8="13000.00000" pt_clust_9="28.09813"></scales>
<clustering>
<clus scale="   28.098">  2  9  1 -1</clus>
<clus scale="   80.225">  5  6 -1 -1</clus>
<clus scale="   88.038">  2  5  1 -1</clus>
<clus scale="   91.018">  7  8 -1 -1</clus>
<clus scale="   28.098">  2  5  1 -1</clus>
</clustering>
</event>
<event>
 9    2  0.3764910E-005  0.3593404E+03  0.7546771E-02  0.1058845E+00
         21   -1    0    0  501  502  0.00000000000E+00  0.00000000000E+00  0.11294401626E+03  0.11294401626E+03  0.00000000000E+00 0.  1.
          2   -1    0    0  502    0 -0.00000000000E+00 -0.00000000000E+00 -0.96945979056E+03  0.96945979056E+03  0.00000000000E+00 0. -1.
         24    2    1    2    0    0  0.15475599073E+02  0.20236467053E+03 -0.26690009857E+03  0.34512839886E+03  0.81774048661E+02 0.  0.
         23    2    1    2    0    0  0.65417680578E+02  0.79745570342E+02 -0.11498603021E+03  0.17924027368E+03  0.90920072818E+02 0.  0.
        -13    1    3    3    0    0  0.10404846245E+02  0.20886474102E+03 -0.24731385589E+03  0.32387788468E+03  0.00000000000E+00 0.  1.
         14    1    3    3    0    0  0.50707528287E+01 -0.65000704893E+01 -0.19586242678E+02  0.21250514178E+02  0.00000000000E+00 0. -1.
        -13    1    4    4    0    0 -0.23082903310E+02  0.21518773520E+02 -0.26762545873E+02  0.41377673939E+02  0.00000000000E+00 0. -1.
         13    1    4    4    0    0  0.88500583888E+02  0.58226796822E+02 -0.88223484342E+02  0.13786259974E+03  0.00000000000E+00 0.  1.
          1    1    1    2  501    0 -0.80893279651E+02 -0.28211024088E+03 -0.47462964551E+03  0.55803513429E+03  0.00000000000E+00 0. -1.
<scales pt_clust_5="13000.00000" pt_clust_6="13000.00000" pt_clust_7="13000.00000" pt_clust_8="13000.00000" pt_clust_9="293.47913"></scales>
<clustering>
<clus scale="   81.774">  5  6 -1 -1</clus>
<clus scale="   90.920">  7  8 -1 -1</clus>
<clus scale="  116.346">  5  7 -1 -1</clus>
<clus scale="  293.479">  1  9  2 -1</clus>
<clus scale="  293.479">  1  5  2 -1</clus>
</clustering>
</event>
<event>
 9    2  0.3764910E-005  0.1230623E+03  0.7546771E-02  0.1239533E+00
          2   -1    0    0  502    0 -0.00000000000E+00  0.00000000000E+00  0.94526503318E+03  0.94526503318E+03  0.00000000000E+00 0. -1.
         21   -1    0    0  501  502  0.00000000000E+00 -0.00000000000E+00 -0.29359974057E+02  0.29359974057E+02  0.00000000000E+00 0.  1.
         24    2    1    2    0    0 -0.85815911582E+02 -0.45030381851E+02  0.54571165515E+03  0.56024509784E+03  0.81738932681E+02 0.  0.
         23    2    1    2    0    0  0.34490279943E+02  0.75917067942E+02  0.29248004387E+03  0.31625919712E+03  0.86731326989E+02 0.  0.
        -11    1    3    3    0    0 -0.56882355386E+02  0.14297289826E+02  0.20633837693E+03  0.21451233215E+03  0.00000000000E+00 0.  1.
         12    1    3    3    0    0 -0.28933556196E+02 -0.59327671677E+02  0.33937327822E+03  0.34573276568E+03  0.00000000000E+00 0. -1.
        -13    1    4    4    0    0 -0.26218751778E+02  0.35552505610E+02  0.14763077946E+03  0.15409818508E+03  0.00000000000E+00 0.  1.
         13    1    4    4    0    0  0.60709031721E+02  0.40364562332E+02  0.14484926441E+03  0.16216101203E+03  0.00000000000E+00 0. -1.
          1    1    1    2  501    0  0.51325631639E+02 -0.30886686091E+02  0.77713360100E+02  0.98120712283E+02  0.00000000000E+00 0. -1.
<scales pt_clust_5="13000.00000" pt_clust_6="13000.00000" pt_clust_7="13000.00000" pt_clust_8="13000.00000" pt_clust_9="59.90249"></scales>
<clustering>
<clus scale="   59.902">  2  9  1 -1</clus>
<clus scale="   81.739">  5  6 -1 -1</clus>
<clus scale="   86.731">  7  8 -1 -1</clus>
<clus scale="  119.596">  1  5  2 -1</clus>
<clus scale="   59.902">  2  5  1 -1</clus>
</clustering>
</event>
<event>
 9    2  0.3764910E-005  0.9902101E+02  0.7546771E-02  0.1288610E+00
         21   -1    0    0  501  502  0.00000000000E+00  0.00000000000E+00  0.27781387581E+03  0.27781387581E+03  0.00000000000E+00 0. -1.
          2   -1    0    0  502    0 -0.00000000000E+00 -0.00000000000E+00 -0.22657656657E+03  0.22657656657E+03  0.00000000000E+00 0. -1.
         23    2    1    2    0    0 -0.28093740038E+02  0.31183582388E+02 -0.19382356950E+03  0.21846634611E+03  0.91642207780E+02 0.  0.
         24    2    1    2    0    0  0.13420973501E+02  0.61134319182E+01  0.72257171813E+02  0.10853334545E+03  0.79629715660E+02 0.  0.
        -11    1    4    4    0    0  0.24411630511E+02 -0.15922563953E+02 -0.30478930435E+01  0.29304358021E+02  0.00000000000E+00 0.  1.
         12    1    4    4    0    0 -0.10990657010E+02  0.22035995871E+02  0.75305064856E+02  0.79228987426E+02  0.00000000000E+00 0. -1.
        -13    1    3    3    0    0 -0.17566581586E+02  0.63840051834E+02 -0.13511545436E+03  0.15046701637E+03  0.00000000000E+00 0. -1.
         13    1    3    3    0    0 -0.10527158452E+02 -0.32656469446E+02 -0.58708115140E+02  0.67999329740E+02  0.00000000000E+00 0.  1.
          1    1    1    2  501    0  0.14672766537E+02 -0.37297014306E+02  0.17280370692E+03  0.17739075083E+03  0.00000000000E+00 0. -1.
<scales pt_clust_5="13000.00000" pt_clust_6="13000.00000" pt_clust_7="13000.00000" pt_clust_8="13000.00000" pt_clust_9="40.07939"></scales>
<clustering>
<clus scale="   40.079">  1  9  2 -1</clus>
<clus scale="   79.630">  5  6 -1 -1</clus>
<clus scale="   88.021">  1  5  2 -1</clus>
<clus scale="   91.642">  7  8 -1 -1</clus>
<clus scale="   40.079">  1  5  2 -1</clus>
</clustering>
</event>
<event>
 9    2  0.3764910E-005  0.1748831E+03  0.7546771E-02  0.1174383E+00
         21   -1    0    0  501  502  0.00000000000E+00  0.00000000000E+00  0.24439672080E+03  0.24439672080E+03  0.00000000000E+00 0.  1.
         -1   -1    0    0    0  501 -0.00000000000E+00 -0.00000000000E+00 -0.27693045679E+03  0.27693045679E+03  0.00000000000E+00 0.  1.
         23    2    1    2    0    0 -0.10901232233E+03 -0.11527971586E+03 -0.16413023424E+03  0.24613346406E+03  0.92031782743E+02 0.  0.
         24    2    1    2    0    0  0.11308891993E+03  0.66147432815E+02  0.22117418728E+02  0.15512594626E+03  0.80064301120E+02 0.  0.
        -13    1    4    4    0    0  0.34867044402E+02  0.59073976971E+02 -0.11747837044E+02  0.69594951080E+02  0.00000000000E+00 0.  1.
         14    1    4    4    0    0  0.78221875524E+02  0.70734558435E+01  0.33865255772E+02  0.85530995181E+02  0.00000000000E+00 0. -1.
        -11    1    3    3    0    0 -0.21915464296E+02 -0.74614390177E+02 -0.35320056466E+02  0.85411364498E+02  0.00000000000E+00 0.  1.
         11    1    3    3    0    0 -0.87096858031E+02 -0.40665325678E+02 -0.12881017777E+03  0.16072209957E+03  0.00000000000E+00 0. -1.
         -2    1    1    2    0  502 -0.40765975999E+01  0.49132283040E+02  0.10947907951E+03  0.12006776727E+03  0.00000000000E+00 0.  1.
<scales pt_clust_5="13000.00000" pt_clust_6="13000.00000" pt_clust_7="13000.00000" pt_clust_8="13000.00000" pt_clust_9="49.30111"></scales>
<clustering>
<clus scale="   49.301">  1  9  2 -1</clus>
<clus scale="   80.064">  5  6 -1 -1</clus>
<clus scale="   92.032">  7  8 -1 -1</clus>
<clus scale="  168.892">  1  5  2 -1</clus>
<clus scale="   49.301">  1  5  2 -1</clus>
</clustering>
</event>
<event>
 9    2  0.3764910E-005  0.1006673E+03  0.7546771E-02  0.1291404E+00
         21   -1    0    0  501  502  0.00000000000E+00  0.00000000000E+00  0.49878087701E+02  0.49878087701E+02  0.00000000000E+00 0. -1.
         -1   -1    0    0    0  501 -0.00000000000E+00 -0.00000000000E+00 -0.21346654454E+03  0.21346654454E+03  0.00000000000E+00 0.  1.
         23    2    1    2    0    0 -0.28430440052E+02  0.12104313736E+01 -0.93374019734E+02  0.13899630237E+03  0.98952056301E+02 0.  0.
         24    2    1    2    0    0  0.77859281431E+01  0.10207345389E+02 -0.47781226502E+02  0.91793600011E+02  0.77318877514E+02 0.  0.
        -13    1    4    4    0    0  0.35674970344E+02 -0.63476671938E+01 -0.28054481690E+01  0.36343732985E+02  0.00000000000E+00 0.  1.
         14    1    4    4    0    0 -0.27889042201E+02  0.16555012583E+02 -0.44975778333E+02  0.55449867025E+02  0.00000000000E+00 0. -1.
        -11    1    3    3    0    0  0.17284308459E+02 -0.35912756464E+02 -0.57757305570E+02  0.70173924947E+02  0.00000000000E+00 0. -1.
         11    1    3    3    0    0 -0.45714748510E+02  0.37123187838E+02 -0.35616714164E+02  0.68822377425E+02  0.00000000000E+00 0.  1.
         -2    1    1    2    0  502  0.20644511909E+02 -0.11417776763E+02 -0.22433210603E+02  0.32554729857E+02  0.00000000000E+00 0.  1.
<scales pt_clust_5="13000.00000" pt_clust_6="13000.00000" pt_clust_7="13000.00000" pt_clust_8="13000.00000" pt_clust_9="23.59157"></scales>
<clustering>
<clus scale="   23.592">  1  9  2 -1</clus>
<clus scale="   77.319">  5  6 -1 -1</clus>
<clus scale="   79.502">  1  5  2 -1</clus>
<clus scale="   98.952">  7  8 -1 -1</clus>
<clus scale="   23.592">  1  5  2 -1</clus>
</clustering>
</event>
<event>
 9    2  0.3764910E-005  0.3638950E+03  0.7546771E-02  0.1057076E+00
          2   -1    0    0  502    0 -0.00000000000E+00  0.00000000000E+00  0.14040390074E+04  0.14040390074E+04  0.00000000000E+00 0. -1.
         21   -1    0    0  501  502  0.00000000000E+00 -0.00000000000E+00 -0.14120677771E+03  0.14120677771E+03  0.00000000000E+00 0. -1.
         23    2    1    2    0    0 -0.29128441440E+03 -0.18823265313E+03  0.91455627185E+03  0.98153159035E+03  0.81932574077E+02 0.  0.
         24    2    1    2    0    0  0.34135788087E+03  0.16278607583E+03  0.31148533841E+03  0.49656935118E+03  0.80830038797E+02 0.  0.
        -11    1    4    4    0    0  0.38577818056E+02  0.32037813631E+02  0.77055320998E+02  0.91935803919E+02  0.00000000000E+00 0.  1.
         12    1    4    4    0    0  0.30278006282E+03  0.13074826220E+03  0.23443001741E+03  0.40463354726E+03  0.00000000000E+00 0. -1.
        -11    1    3    3    0    0 -0.13552898429E+03 -0.11487769627E+03  0.37071311010E+03  0.41108782600E+03  0.00000000000E+00 0. -1.
         11    1    3    3    0    0 -0.15575543011E+03 -0.73354956857E+02  0.54384316175E+03  0.57044376435E+03  0.00000000000E+00 0.  1.
          1    1    1    2  501    0 -0.50073466469E+02  0.25446577294E+02  0.36790619404E+02  0.67144843557E+02  0.00000000000E+00 0. -1.
<scales pt_clust_5="13000.00000" pt_clust_6="13000.00000" pt_clust_7="13000.00000" pt_clust_8="13000.00000" pt_clust_9="56.16832"></scales>
<clustering>
<clus scale="   56.168">  2  9  1 -1</clus>
<clus scale="   80.830">  5  6 -1 -1</clus>
<clus scale="   81.933">  7  8 -1 -1</clus>
<clus scale="  363.648">  2  5  1 -1</clus>
<clus scale="   56.168">  2  5  1 -1</clus>
</clustering>
</event>
<event>
 9    2  0.3764910E-005  0.1363851E+03  0.7546771E-02  0.1236989E+00
         21   -1    0    0  501  502  0.00000000000E+00  0.00000000000E+00  0.56180049171E+03  0.56180049171E+03  0.00000000000E+00 0.  1.
         -1   -1    0    0    0  501 -0.00000000000E+00 -0.00000000000E+00 -0.13562837528E+03  0.13562837528E+03  0.00000000000E+00 0.  1.
         23    2    1    2    0    0  0.16268909799E+01 -0.13928523628E+02  0.45426042423E+02  0.10308174305E+03  0.91464035967E+02 0.  0.
         24    2    1    2    0    0 -0.11048773175E+03  0.34576888809E+02 -0.50534995593E+02  0.14906025164E+03  0.79133259329E+02 0.  0.
        -13    1    4    4    0    0 -0.19529993044E+02  0.12503297990E+02  0.20977396795E+02  0.31269861932E+02  0.00000000000E+00 0.  1.
         14    1    4    4    0    0 -0.90957738707E+02  0.22073590819E+02 -0.71512392389E+02  0.11779038971E+03  0.00000000000E+00 0. -1.
        -13    1    3    3    0    0  0.20898383719E+02  0.33071358007E+02  0.31995582074E+02  0.50538840853E+02  0.00000000000E+00 0. -1.
         13    1    3    3    0    0 -0.19271492739E+02 -0.46999881636E+02  0.13430460350E+02  0.52542902198E+02  0.00000000000E+00 0.  1.
         -2    1    1    2    0  502  0.10886084077E+03 -0.20648365180E+02  0.43128106961E+03  0.44528687230E+03  0.00000000000E+00 0.  1.
<scales pt_clust_5="13000.00000" pt_clust_6="13000.00000" pt_clust_7="13000.00000" pt_clust_8="13000.00000" pt_clust_9="111.08026"></scales>
<clustering>
<clus scale="   79.133">  5  6 -1 -1</clus>
<clus scale="   91.464">  7  8 -1 -1</clus>
<clus scale="   92.533">  2  7  1 -1</clus>
<clus scale="  111.080">  1  9  2 -1</clus>
<clus scale="  111.080">  1  5  2 -1</clus>
</clustering>
</event>
<event>
 9    2  0.3764910E-005  0.1159151E+03  0.7546771E-02  0.1251660E+00
         21   -1    0    0  501  502  0.00000000000E+00  0.00000000000E+00  0.12270863588E+03  0.12270863588E+03  0.00000000000E+00 0.  1.
         -3   -1    0    0    0  501 -0.00000000000E+00 -0.00000000000E+00 -0.20742424300E+03  0.20742424300E+03  0.00000000000E+00 0.  1.
         23    2    1    2    0    0  0.96793499677E+01  0.81110722878E+02 -0.10219805622E+03  0.16078985068E+03  0.93468145407E+02 0.  0.
         24    2    1    2    0    0  0.25400145279E+02 -0.50055699192E+02 -0.22941232762E+02  0.10746363309E+03  0.88720864930E+02 0.  0.
        -13    1    4    4    0    0  0.36090267976E+02  0.14981629501E+02 -0.85116085499E+01  0.39992551121E+02  0.00000000000E+00 0.  1.
         14    1    4    4    0    0 -0.10690122697E+02 -0.65037328693E+02 -0.14429624212E+02  0.67471081966E+02  0.00000000000E+00 0. -1.
        -11    1    3    3    0    0  0.31049225283E+02  0.76668116148E+02 -0.10998277589E+03  0.13761637046E+03  0.00000000000E+00 0.  1.
         11    1    3    3    0    0 -0.21369875316E+02  0.44426067298E+01  0.77847196696E+01  0.23173480229E+02  0.00000000000E+00 0. -1.
         -4    1    1    2    0  502 -0.35079495247E+02 -0.31055023686E+02  0.40423681867E+02  0.61879395105E+02  0.00000000000E+00 0.  1.
<scales pt_clust_5="13000.00000" pt_clust_6="13000.00000" pt_clust_7="13000.00000" pt_clust_8="13000.00000" pt_clust_9="46.85067"></scales>
<clustering>
<clus scale="   46.851">  1  9  2 -1</clus>
<clus scale="   88.721">  5  6 -1 -1</clus>
<clus scale="   93.468">  7  8 -1 -1</clus>
<clus scale="  112.122">  1  5  2 -1</clus>
<clus scale="   46.851">  1  5  2 -1</clus>
</clustering>
</event>
<event>
 9    2  0.3764910E-005  0.1128745E+03  0.7546771E-02  0.1259233E+00
         21   -1    0    0  501  502  0.00000000000E+00  0.00000000000E+00  0.10068786866E+03  0.10068786866E+03  0.00000000000E+00 0. -1.
         -1   -1    0    0    0  501 -0.00000000000E+00 -0.00000000000E+00 -0.24353156099E+03  0.24353156099E+03  0.00000000000E+00 0.  1.
         23    2    1    2    0    0 -0.59548690548E+02 -0.27527615808E+02 -0.12385187575E+03  0.16729215489E+03  0.91343099263E+02 0.  0.
         24    2    1    2    0    0  0.68668996350E+02  0.83193689595E+01 -0.66112691152E+02  0.12523091565E+03  0.80791406366E+02 0.  0.
        -11    1    4    4    0    0  0.23720710670E+01  0.24445894686E+02  0.66877092016E+01  0.25454939452E+02  0.00000000000E+00 0.  1.
         12    1    4    4    0    0  0.66296925283E+02 -0.16126525726E+02 -0.72800400353E+02  0.99775976194E+02  0.00000000000E+00 0. -1.
        -13    1    3    3    0    0 -0.14637324524E+02 -0.46960040285E+02 -0.10291588913E+03  0.11406654588E+03  0.00000000000E+00 0.  1.
         13    1    3    3    0    0 -0.44911366024E+02  0.19432424477E+02 -0.20935986621E+02  0.53225609015E+02  0.00000000000E+00 0. -1.
         -2    1    1    2    0  502 -0.91203058022E+01  0.19208246849E+02  0.47120874570E+02  0.51696359110E+02  0.00000000000E+00 0.  1.
<scales pt_clust_5="13000.00000" pt_clust_6="13000.00000" pt_clust_7="13000.00000" pt_clust_8="13000.00000" pt_clust_9="21.26351"></scales>
<clustering>
<clus scale="   21.264">  1  9  2 -1</clus>
<clus scale="   80.791">  5  6 -1 -1</clus>
<clus scale="   91.343">  7  8 -1 -1</clus>
<clus scale="  104.520">  1  5  2 -1</clus>
<clus scale="   21.264">  1  5  2 -1</clus>
</clustering>
</event>
<event>
 9    2  0.3764910E-005  0.9123836E+02  0.7546771E-02  0.1304697E+00
         21   -1    0    0  501  502  0.00000000000E+00  0.00000000000E+00  0.14261613790E+03  0.14261613790E+03  0.00000000000E+00 0.  1.
          2   -1    0    0  502    0 -0.00000000000E+00 -0.00000000000E+00 -0.11325280934E+03  0.11325280934E+03  0.00000000000E+00 0. -1.
         24    2    1    2    0    0  0.59038290935E+01 -0.90412304679E+01 -0.49583304493E+02  0.97684396758E+02  0.83469385041E+02 0.  0.
         23    2    1    2    0    0  0.15066815183E+02 -0.24307906090E+02  0.67993912056E+02  0.11729573872E+03  0.91198876236E+02 0.  0.
        -13    1    3    3    0    0 -0.30419893023E+02  0.14603993549E+02 -0.27232100704E+01  0.33853543274E+02  0.00000000000E+00 0.  1.
         14    1    3    3    0    0  0.36323722116E+02 -0.23645224017E+02 -0.46860094423E+02  0.63830853484E+02  0.00000000000E+00 0. -1.
        -11    1    4    4    0    0  0.46901369915E+02 -0.37610080741E+02  0.35041281931E+02  0.69585545284E+02  0.00000000000E+00 0.  1.
         11    1    4    4    0    0 -0.31834554732E+02  0.13302174650E+02  0.32952630125E+02  0.47710193435E+02  0.00000000000E+00 0. -1.
          1    1    1    2  501    0 -0.20970644276E+02  0.33349136558E+02  0.10952721000E+02  0.40888811768E+02  0.00000000000E+00 0. -1.
<scales pt_clust_5="13000.00000" pt_clust_6="13000.00000" pt_clust_7="13000.00000" pt_clust_8="13000.00000" pt_clust_9="39.39458"></scales>
<clustering>
<clus scale="   39.395">  1  9  2 -1</clus>
<clus scale="   83.469">  5  6 -1 -1</clus>
<clus scale="   83.513">  2  5  1 -1</clus>
<clus scale="   91.199">  7  8 -1 -1</clus>
<clus scale="   39.395">  1  5  2 -1</clus>
</clustering>
</event>
<event>
 9    2  0.3764910E-005  0.2554547E+03  0.7546771E-02  0.1130186E+00
          2   -1    0    0  502    0 -0.00000000000E+00  0.00000000000E+00  0.10474880255E+04  0.10474880255E+04  0.00000000000E+00 0. -1.
         21   -1    0    0  501  502  0.00000000000E+00 -0.00000000000E+00 -0.31791850185E+03  0.31791850185E+03  0.00000000000E+00 0. -1.
         23    2    1    2    0    0  0.11900546257E+03  0.34692329286E+02  0.35445591216E+03  0.38639655896E+03  0.91090335786E+02 0.  0.
         24    2    1    2    0    0  0.44388160328E+02 -0.22015247931E+03  0.59962283604E+03  0.64509780158E+03  0.78525188191E+02 0.  0.
        -11    1    4    4    0    0  0.36244745262E+02 -0.10789968558E+03  0.40058921542E+03  0.41644656706E+03  0.00000000000E+00 0.  1.
         12    1    4    4    0    0  0.81434150655E+01 -0.11225279374E+03  0.19903362062E+03  0.22865123452E+03  0.00000000000E+00 0. -1.
        -13    1    3    3    0    0  0.77117980440E+02  0.60455792911E+02  0.28436572323E+03  0.30077558138E+03  0.00000000000E+00 0. -1.
         13    1    3    3    0    0  0.41887482134E+02 -0.25763463626E+02  0.70090188932E+02  0.85620977581E+02  0.00000000000E+00 0.  1.
          1    1    1    2  501    0 -0.16339362290E+03  0.18546015003E+03 -0.22450922454E+03  0.33391216683E+03  0.00000000000E+00 0. -1.
<scales pt_clust_5="13000.00000" pt_clust_6="13000.00000" pt_clust_7="13000.00000" pt_clust_8="13000.00000" pt_clust_9="243.08622"></scales>
<clustering>
<clus scale="   78.525">  5  6 -1 -1</clus>
<clus scale="   91.090">  7  8 -1 -1</clus>
<clus scale="  153.829">  1  7  2 -1</clus>
<clus scale="  243.086">  2  9  1 -1</clus>
<clus scale="  243.086">  2  5  1 -1</clus>
</clustering>
</event>
<event>
 9    2  0.3764910E-005  0.1278183E+03  0.7546771E-02  0.1232800E+00
         -1   -1    0    0    0  501 -0.00000000000E+00  0.00000000000E+00  0.25374587241E+03  0.25374587241E+03  0.00000000000E+00 0.  1.
         21   -1    0    0  501  502  0.00000000000E+00 -0.00000000000E+00 -0.20475539488E+03  0.20475539488E+03  0.00000000000E+00 0.  1.
         24    2    1    2    0    0  0.90799799624E+02  0.39887852107E+01  0.18753036323E+03  0.22430792020E+03  0.82981274475E+02 0.  0.
         23    2    1    2    0    0 -0.83737187370E+02  0.39863210697E+02 -0.13853736974E+03  0.18977625530E+03  0.90672113382E+02 0.  0.
        -11    1    3    3    0    0  0.37515441111E+02  0.36989579058E+02  0.47685235023E+02  0.71059967068E+02  0.00000000000E+00 0.  1.
         12    1    3    3    0    0  0.53284358514E+02 -0.33000793847E+02  0.13984512821E+03  0.15324795314E+03  0.00000000000E+00 0. -1.
        -13    1    4    4    0    0 -0.29633810873E+02  0.94312797280E+01  0.67155203903E+01  0.31815247890E+02  0.00000000000E+00 0. -1.
         13    1    4    4    0    0 -0.54103376497E+02  0.30431930969E+02 -0.14525289013E+03  0.15796100741E+03  0.00000000000E+00 0.  1.
         -2    1    1    2    0  502 -0.70626122540E+01 -0.43851995908E+02 -0.25159685031E-02  0.44417091792E+02  0.00000000000E+00 0.  1.
<scales pt_clust_5="13000.00000" pt_clust_6="13000.00000" pt_clust_7="13000.00000" pt_clust_8="13000.00000" pt_clust_9="44.41709"></scales>
<clustering>
<clus scale="   44.417">  2  9  1 -1</clus>
<clus scale="   82.981">  5  6 -1 -1</clus>
<clus scale="   90.672">  7  8 -1 -1</clus>
<clus scale="  122.483">  1  5  2 -1</clus>
<clus scale="   44.417">  2  5  1 -1</clus>
</clustering>
</event>
<event>
 9    2  0.3764910E-005  0.9403693E+02  0.7546771E-02  0.1298042E+00
         -1   -1    0    0    0  501 -0.00000000000E+00  0.00000000000E+00  0.74228156525E+02  0.74228156525E+02  0.00000000000E+00 0.  1.
         21   -1    0    0  501  502  0.00000000000E+00 -0.00000000000E+00 -0.25022689321E+03  0.25022689321E+03  0.00000000000E+00 0. -1.
         23    2    1    2    0    0  0.17694629953E+02  0.75972893458E+01 -0.11462548869E+02  0.92276416667E+02  0.89513844246E+02 0.  0.
         24    2    1    2    0    0 -0.25246014335E+02 -0.34967016497E+02 -0.33182420594E+02  0.97791366061E+02  0.81252844609E+02 0.  0.
        -11    1    4    4    0    0  0.26195576766E+02  0.37741934245E+01 -0.28870876876E+01  0.26623073703E+02  0.00000000000E+00 0.  1.
         12    1    4    4    0    0 -0.51441591101E+02 -0.38741209921E+02 -0.30295332907E+02  0.71168292358E+02  0.00000000000E+00 0. -1.
        -11    1    3    3    0    0  0.24774278637E+02  0.46141658437E+02 -0.63854670971E+01  0.52759754694E+02  0.00000000000E+00 0.  1.
         11    1    3    3    0    0 -0.70796486841E+01 -0.38544369092E+02 -0.50770817716E+01  0.39516661973E+02  0.00000000000E+00 0. -1.
         -2    1    1    2    0  502  0.75513843825E+01  0.27369727151E+02 -0.13135376722E+03  0.13438726701E+03  0.00000000000E+00 0.  1.
<scales pt_clust_5="13000.00000" pt_clust_6="13000.00000" pt_clust_7="13000.00000" pt_clust_8="13000.00000" pt_clust_9="28.39235"></scales>
<clustering>
<clus scale="   28.392">  2  9  1 -1</clus>
<clus scale="   81.253">  5  6 -1 -1</clus>
<clus scale="   86.210">  2  5  1 -1</clus>
<clus scale="   89.514">  7  8 -1 -1</clus>
<clus scale="   28.392">  2  5  1 -1</clus>
</clustering>
</event>
<event>
 9    2  0.3764910E-005  0.2615311E+03  0.7546771E-02  0.1144302E+00
          2   -1    0    0  502    0 -0.00000000000E+00  0.00000000000E+00  0.68081921280E+03  0.68081921280E+03  0.00000000000E+00 0. -1.
         21   -1    0    0  501  502  0.00000000000E+00 -0.00000000000E+00 -0.28721841586E+03  0.28721841586E+03  0.00000000000E+00 0. -1.
         23    2    1    2    0    0  0.39179938930E+02 -0.19344521432E+02  0.28673164896E+03  0.30427067657E+03  0.91958294809E+02 0.  0.
         24    2    1    2    0    0  0.24076479755E+03  0.13517720015E+02 -0.14004437455E+03  0.29044498018E+03  0.81212333890E+02 0.  0.
        -13    1    4    4    0    0  0.12735907395E+03  0.46265982210E+02 -0.62566259530E+02  0.14924949467E+03  0.00000000000E+00 0.  1.
         14    1    4    4    0    0  0.11340572360E+03 -0.32748262196E+02 -0.77478115022E+02  0.14119548551E+03  0.00000000000E+00 0. -1.
        -11    1    3    3    0    0  0.15806112892E+02 -0.43714786053E+02  0.25036706355E+03  0.25464579760E+03  0.00000000000E+00 0. -1.
         11    1    3    3    0    0  0.23373826038E+02  0.24370264621E+02  0.36364585411E+02  0.49624878976E+02  0.00000000000E+00 0.  1.
          1    1    1    2  501    0 -0.27994473648E+03  0.58268014174E+01  0.24691352254E+03  0.37332197190E+03  0.00000000000E+00 0. -1.
<scales pt_clust_5="13000.00000" pt_clust_6="13000.00000" pt_clust_7="13000.00000" pt_clust_8="13000.00000" pt_clust_9="248.60241"></scales>
<clustering>
<clus scale="   81.212">  5  6 -1 -1</clus>
<clus scale="   91.958">  7  8 -1 -1</clus>
<clus scale="  101.812">  1  7  2 -1</clus>
<clus scale="  248.602">  2  9  1 -1</clus>
<clus scale="  248.602">  2  5  1 -1</clus>
</clustering>
</event>
<event>
 9    2  0.3764910E-005  0.1018482E+03  0.7546771E-02  0.1283567E+00
         21   -1    0    0  501  502  0.00000000000E+00  0.00000000000E+00  0.18122061156E+03  0.18122061156E+03  0.00000000000E+00 0. -1.
          4   -1    0    0  502    0 -0.00000000000E+00 -0.00000000000E+00 -0.14593346761E+03  0.14593346761E+03  0.00000000000E+00 0. -1.
         23    2    1    2    0    0  0.51690644824E+02 -0.17069923235E+02 -0.81283928392E+02  0.13625101186E+03  0.94836470704E+02 0.  0.
         24    2    1    2    0    0  0.11690530000E+02  0.14572324359E+02  0.41960492127E+02  0.92973756068E+02  0.80835730274E+02 0.  0.
        -11    1    4    4    0    0 -0.80666996045E+01 -0.31601827153E+02  0.14013522235E+02  0.35498252455E+02  0.00000000000E+00 0.  1.
         12    1    4    4    0    0  0.19757229604E+02  0.46174151511E+02  0.27946969892E+02  0.57475503613E+02  0.00000000000E+00 0. -1.
        -11    1    3    3    0    0  0.56050123360E+02 -0.42147273277E+02 -0.85360004165E+02  0.11047325144E+03  0.00000000000E+00 0. -1.
         11    1    3    3    0    0 -0.43594785363E+01  0.25077350042E+02  0.40760757725E+01  0.25777760414E+02  0.00000000000E+00 0.  1.
          3    1    1    2  501    0 -0.63381174824E+02  0.24975988761E+01  0.74610580208E+02  0.97929311247E+02  0.00000000000E+00 0. -1.
<scales pt_clust_5="13000.00000" pt_clust_6="13000.00000" pt_clust_7="13000.00000" pt_clust_8="13000.00000" pt_clust_9="63.43037"></scales>
<clustering>
<clus scale="   63.430">  1  9  2 -1</clus>
<clus scale="   80.836">  5  6 -1 -1</clus>
<clus scale="   88.958">  1  5  2 -1</clus>
<clus scale="   94.836">  7  8 -1 -1</clus>
<clus scale="   63.430">  1  5  2 -1</clus>
</clustering>
</event>
<event>
 9    2  0.3764910E-005  0.2815684E+03  0.7546771E-02  0.1122916E+00
          4   -1    0    0  502    0 -0.00000000000E+00  0.00000000000E+00  0.67833730997E+03  0.67833730997E+03  0.00000000000E+00 0. -1.
         21   -1    0    0  501  502  0.00000000000E+00 -0.00000000000E+00 -0.28032175686E+03  0.28032175686E+03  0.00000000000E+00 0. -1.
         24    2    1    2    0    0  0.60983336630E+02  0.95533031286E+02  0.90565010083E+02  0.16463305697E+03  0.77823486052E+02 0.  0.
         23    2    1    2    0    0  0.27710030832E+02  0.17400772957E+03  0.43833996838E+03  0.48153476700E+03  0.93205515900E+02 0.  0.
        -11    1    3    3    0    0  0.46179679959E+02  0.28401222440E+02  0.43823564689E+01  0.54391151168E+02  0.00000000000E+00 0.  1.
         12    1    3    3    0    0  0.14803656671E+02  0.67131808847E+02  0.86182653614E+02  0.11024190580E+03  0.00000000000E+00 0. -1.
        -11    1    4    4    0    0  0.54208383834E+02  0.76963816416E+02  0.16084097347E+03  0.18636468727E+03  0.00000000000E+00 0. -1.
         11    1    4    4    0    0 -0.26498353002E+02  0.97043913151E+02  0.27749899491E+03  0.29517007973E+03  0.00000000000E+00 0.  1.
          3    1    1    2  501    0 -0.88693367462E+02 -0.26954076085E+03 -0.13088942536E+03  0.31249124286E+03  0.00000000000E+00 0. -1.
<scales pt_clust_5="13000.00000" pt_clust_6="13000.00000" pt_clust_7="13000.00000" pt_clust_8="13000.00000" pt_clust_9="265.69439"></scales>
<clustering>
<clus scale="   77.823">  5  6 -1 -1</clus>
<clus scale="   93.206">  7  8 -1 -1</clus>
<clus scale="  137.485">  1  5  2 -1</clus>
<clus scale="  265.694">  2  9  1 -1</clus>
<clus scale="  265.694">  2  5  1 -1</clus>
</clustering>
</event>
<event>
 9    2  0.3764910E-005  0.1281840E+03  0.7546771E-02  0.1245367E+00
          2   -1    0    0  502    0 -0.00000000000E+00  0.00000000000E+00  0.13268069181E+03  0.13268069181E+03  0.00000000000E+00 0. -1.
         21   -1    0    0  501  502  0.00000000000E+00 -0.00000000000E+00 -0.25108422008E+03  0.25108422008E+03  0.00000000000E+00 0.  1.
         24    2    1    2    0    0 -0.32967728673E+02  0.37695146863E+02 -0.13231066306E+02  0.94972103326E+02  0.79604296767E+02 0.  0.
         23    2    1    2    0    0 -0.58139373692E+01  0.81385609851E+02 -0.11106929706E+03  0.16341730496E+03  0.87814619807E+02 0.  0.
        -13    1    3    3    0    0 -0.54423306592E+02  0.29303389414E+02 -0.27735288271E+02  0.67748292576E+02  0.00000000000E+00 0.  1.
         14    1    3    3    0    0  0.21455577919E+02  0.83917574488E+01  0.14504221965E+02  0.27223810750E+02  0.00000000000E+00 0. -1.
        -13    1    4    4    0    0  0.39644163883E+02  0.53218054325E+02 -0.59649179602E+02  0.89229174956E+02  0.00000000000E+00 0.  1.
         13    1    4    4    0    0 -0.45458101252E+02  0.28167555525E+02 -0.51420117458E+02  0.74188130001E+02  0.00000000000E+00 0. -1.
          1    1    1    2  501    0  0.38781666042E+02 -0.11908075671E+03  0.58968350947E+01  0.12537550361E+03  0.00000000000E+00 0. -1.
<scales pt_clust_5="13000.00000" pt_clust_6="13000.00000" pt_clust_7="13000.00000" pt_clust_8="13000.00000" pt_clust_9="93.37960"></scales>
<clustering>
<clus scale="   79.604">  5  6 -1 -1</clus>
<clus scale="   87.815">  7  8 -1 -1</clus>
<clus scale="   94.046">  1  5  2 -1</clus>
<clus scale="   93.380">  2  9  1 -1</clus>
<clus scale="   93.380">  2  5  1 -1</clus>
</clustering>
</event>
<event>
 9    2  0.3764910E-005  0.3355554E+03  0.7546771E-02  0.1116634E+00
          2   -1    0    0  502    0 -0.00000000000E+00  0.00000000000E+00  0.74768265023E+03  0.74768265023E+03  0.00000000000E+00 0. -1.
         21   -1    0    0  501  502  0.00000000000E+00 -0.00000000000E+00 -0.21815153692E+03  0.21815153692E+03  0.00000000000E+00 0. -1.
         23    2    1    2    0    0  0.24577379115E+02  0.12985412487E+02  0.11693795998E+03  0.15069778086E+03  0.90899208850E+02 0.  0.
         24    2    1    2    0    0 -0.28012643374E+03  0.17521282488E+03  0.68200533345E+02  0.34680941308E+03  0.80343657917E+02 0.  0.
        -13    1    4    4    0    0 -0.63534558200E+02  0.59490084609E+02 -0.13345155265E+02  0.88055683641E+02  0.00000000000E+00 0.  1.
         14    1    4    4    0    0 -0.21659187554E+03  0.11572274028E+03  0.81545688610E+02  0.25875372944E+03  0.00000000000E+00 0. -1.
        -13    1    3    3    0    0  0.27494315933E+02 -0.27863358099E+02  0.98097096750E+02  0.10561886443E+03  0.00000000000E+00 0.  1.
         13    1    3    3    0    0 -0.29169368188E+01  0.40848770586E+02  0.18840863230E+02  0.45078916425E+02  0.00000000000E+00 0. -1.
          1    1    1    2  501    0  0.25554905463E+03 -0.18819823737E+03  0.34439261999E+03  0.46832699322E+03  0.00000000000E+00 0. -1.
<scales pt_clust_5="13000.00000" pt_clust_6="13000.00000" pt_clust_7="13000.00000" pt_clust_8="13000.00000" pt_clust_9="325.79503"></scales>
<clustering>
<clus scale="   80.344">  5  6 -1 -1</clus>
<clus scale="   90.899">  7  8 -1 -1</clus>
<clus scale="   95.054">  1  7  2 -1</clus>
<clus scale="  325.795">  2  9  1 -1</clus>
<clus scale="  325.795">  2  5  1 -1</clus>
</clustering>
</event>
<event>
 9    2  0.3764910E-005  0.1349668E+03  0.7546771E-02  0.1231547E+00
         21   -1    0    0  501  502  0.00000000000E+00  0.00000000000E+00  0.31518376446E+03  0.31518376446E+03  0.00000000000E+00 0.  1.
         -1   -1    0    0    0  501 -0.00000000000E+00 -0.00000000000E+00 -0.10723738889E+03  0.10723738889E+03  0.00000000000E+00 0.  1.
         24    2    1    2    0    0  0.52701697713E+02 -0.45090955834E+02  0.69176875654E+01  0.10697500677E+03  0.81148841222E+02 0.  0.
         23    2    1    2    0    0 -0.12393980359E+02 -0.69565558791E+02  0.67076223275E+02  0.13457577524E+03  0.92835563410E+02 0.  0.
        -11    1    3    3    0    0  0.51141851391E+02 -0.22089083825E+02 -0.30133986613E+02  0.63336196106E+02  0.00000000000E+00 0.  1.
         12    1    3    3    0    0  0.15598463214E+01 -0.23001872009E+02  0.37051674178E+02  0.43638810661E+02  0.00000000000E+00 0. -1.
        -13    1    4    4    0    0  0.23958667928E+02 -0.75119430536E+02  0.37139424739E+02  0.87156660577E+02  0.00000000000E+00 0.  1.
         13    1    4    4    0    0 -0.36352648287E+02  0.55538717455E+01  0.29936798536E+02  0.47419114663E+02  0.00000000000E+00 0. -1.
         -2    1    1    2    0  502 -0.40307717353E+02  0.11465651462E+03  0.13395246473E+03  0.18087037134E+03  0.00000000000E+00 0.  1.
<scales pt_clust_5="13000.00000" pt_clust_6="13000.00000" pt_clust_7="13000.00000" pt_clust_8="13000.00000" pt_clust_9="97.96725"></scales>
<clustering>
<clus scale="   81.149">  5  6 -1 -1</clus>
<clus scale="   92.836">  7  8 -1 -1</clus>
<clus scale="  106.751">  2  5  1 -1</clus>
<clus scale="   97.967">  1  9  2 -1</clus>
<clus scale="   97.967">  1  5  2 -1</clus>
</clustering>
</event>
<event>
 9    2  0.3764910E-005  0.9828165E+02  0.7546771E-02  0.1290100E+00
          2   -1    0    0  502    0 -0.00000000000E+00  0.00000000000E+00  0.78019813276E+03  0.78019813276E+03  0.00000000000E+00 0. -1.
         21   -1    0    0  501  502  0.00000000000E+00 -0.00000000000E+00 -0.19622008626E+02  0.19622008626E+02  0.00000000000E+00 0.  1.
         23    2    1    2    0    0  0.41096079205E+02 -0.53463544367E+01  0.52888222242E+03  0.53834538213E+03  0.91552575283E+02 0.  0.
         24    2    1    2    0    0 -0.15672454648E+02  0.26802311100E+02  0.14279702044E+03  0.16655703560E+03  0.79914124835E+02 0.  0.
        -11    1    4    4    0    0  0.14276855080E+01  0.33072425240E+02  0.13121922165E+02  0.35609106118E+02  0.00000000000E+00 0.  1.
         12    1    4    4    0    0 -0.17100140156E+02 -0.62701141405E+01  0.12967509827E+03  0.13094792949E+03  0.00000000000E+00 0. -1.
        -13    1    3    3    0    0 -0.27715072322E+02  0.10771550901E+02  0.14657133390E+03  0.14955703750E+03  0.00000000000E+00 0.  1.
         13    1    3    3    0    0  0.68811151528E+02 -0.16117905337E+02  0.38231088851E+03  0.38878834463E+03  0.00000000000E+00 0. -1.
          1    1    1    2  501    0 -0.25423624557E+02 -0.21455956663E+02  0.88896881284E+02  0.94917723656E+02  0.00000000000E+00 0. -1.
<scales pt_clust_5="13000.00000" pt_clust_6="13000.00000" pt_clust_7="13000.00000" pt_clust_8="13000.00000" pt_clust_9="33.26738"></scales>
<clustering>
<clus scale="   33.267">  2  9  1 -1</clus>
<clus scale="   79.914">  5  6 -1 -1</clus>
<clus scale="   87.542">  2  5  1 -1</clus>
<clus scale="   91.553">  7  8 -1 -1</clus>
<clus scale="   33.267">  2  5  1 -1</clus>
</clustering>
</event>
<event>
 9    2  0.3764910E-005  0.2316601E+03  0.7546771E-02  0.1146460E+00
         21   -1    0    0  501  502  0.00000000000E+00  0.00000000000E+00  0.93448554260E+02  0.93448554260E+02  0.00000000000E+00 0. -1.
          2   -1    0    0  502    0 -0.00000000000E+00 -0.00000000000E+00 -0.15165753075E+04  0.15165753075E+04  0.00000000000E+00 0. -1.
         23    2    1    2    0    0  0.99648375308E+02 -0.31011858382E+02 -0.47500426180E+02  0.14701557745E+03  0.92009540064E+02 0.  0.
         24    2    1    2    0    0 -0.71728366567E+02  0.23925202884E+03 -0.98647015625E+03  0.10207572009E+04  0.80220958559E+02 0.  0.
        -13    1    4    4    0    0 -0.48148011608E+02  0.42979473991E+02 -0.23000259357E+03  0.23888628939E+03  0.00000000000E+00 0.  1.
         14    1    4    4    0    0 -0.23580354959E+02  0.19627255484E+03 -0.75646756268E+03  0.78187091154E+03  0.00000000000E+00 0. -1.
        -11    1    3    3    0    0  0.85605349859E+02 -0.91796808423E+01 -0.71308797964E+02  0.11179216042E+03  0.00000000000E+00 0.  1.
         11    1    3    3    0    0  0.14043025449E+02 -0.21832177539E+02  0.23808371784E+02  0.35223417024E+02  0.00000000000E+00 0. -1.
          1    1    1    2  501    0 -0.27920008741E+02 -0.20824017045E+03 -0.38915617080E+03  0.44225108338E+03  0.00000000000E+00 0. -1.
<scales pt_clust_5="13000.00000" pt_clust_6="13000.00000" pt_clust_7="13000.00000" pt_clust_8="13000.00000" pt_clust_9="217.32692"></scales>
<clustering>
<clus scale="   80.221">  5  6 -1 -1</clus>
<clus scale="   92.010">  7  8 -1 -1</clus>
<clus scale="  139.131">  2  7  1 -1</clus>
<clus scale="  217.327">  1  9  2 -1</clus>
<clus scale="  217.327">  1  5  2 -1</clus>
</clustering>
</event>
<event>
 9    2  0.3764910E-005  0.1713843E+03  0.7546771E-02  0.1177825E+00
         21   -1    0    0  501  502  0.00000000000E+00  0.00000000000E+00  0.15649962726E+03  0.15649962726E+03  0.00000000000E+00 0. -1.
         -1   -1    0    0    0  501 -0.00000000000E+00 -0.00000000000E+00 -0.38171088608E+03  0.38171088608E+03  0.00000000000E+00 0.  1.
         24    2    1    2    0    0 -0.15137720937E+03  0.49725379978E+02 -0.25807651424E+03  0.31404105996E+03  0.81428663309E+02 0.  0.
         23    2    1    2    0    0  0.10850724359E+03 -0.31478785799E+02 -0.27191317017E+02  0.14815916421E+03  0.91907749148E+02 0.  0.
        -11    1    3    3    0    0 -0.41130199915E+02  0.12159535167E+02 -0.14687372607E+03  0.15300797055E+03  0.00000000000E+00 0.  1.
         12    1    3    3    0    0 -0.11024700945E+03  0.37565844811E+02 -0.11120278817E+03  0.16103308942E+03  0.00000000000E+00 0. -1.
        -11    1    4    4    0    0  0.82243270390E+02 -0.50636593934E+02  0.11905325377E+02  0.97312676164E+02  0.00000000000E+00 0.  1.
         11    1    4    4    0    0  0.26263973196E+02  0.19157808136E+02 -0.39096642394E+02  0.50846488051E+02  0.00000000000E+00 0. -1.
         -2    1    1    2    0  502  0.42869965783E+02 -0.18246594179E+02  0.60056572437E+02  0.76010289160E+02  0.00000000000E+00 0.  1.
<scales pt_clust_5="13000.00000" pt_clust_6="13000.00000" pt_clust_7="13000.00000" pt_clust_8="13000.00000" pt_clust_9="46.59155"></scales>
<clustering>
<clus scale="   46.592">  1  9  2 -1</clus>
<clus scale="   81.429">  5  6 -1 -1</clus>
<clus scale="   91.908">  7  8 -1 -1</clus>
<clus scale="  166.000">  2  5  1 -1</clus>
<clus scale="   46.592">  1  5  2 -1</clus>
</clustering>
</event>
<event>
 9    2  0.3764910E-005  0.9690253E+02  0.7546771E-02  0.1294518E+00
         21   -1    0    0  501  502  0.00000000000E+00  0.00000000000E+00  0.12135012957E+03  0.12135012957E+03  0.00000000000E+00 0. -1.
         -1   -1    0    0    0  501 -0.00000000000E+00 -0.00000000000E+00 -0.14709346188E+03  0.14709346188E+03  0.00000000000E+00 0.  1.
         23    2    1    2    0    0 -0.57196963721E+01 -0.22729036877E+02 -0.74980404934E+02  0.12027693082E+03  0.91077741080E+02 0.  0.
         24    2    1    2    0    0  0.30887312048E+02  0.53260324248E+02  0.25701580525E+02  0.10212876563E+03  0.77324157570E+02 0.  0.
        -11    1    4    4    0    0  0.15011040783E+02  0.33333808185E+02 -0.25748923225E+02  0.44715558375E+02  0.00000000000E+00 0.  1.
         12    1    4    4    0    0  0.15876271266E+02  0.19926516063E+02  0.51450503750E+02  0.57413207260E+02  0.00000000000E+00 0. -1.
        -11    1    3    3    0    0 -0.18415219160E+02  0.28102318298E+02 -0.67809767763E+01  0.34275971707E+02  0.00000000000E+00 0.  1.
         11    1    3    3    0    0  0.12695522788E+02 -0.50831355175E+02 -0.68199428158E+02  0.86000959116E+02  0.00000000000E+00 0. -1.
         -2    1    1    2    0  502 -0.25167615676E+02 -0.30531287371E+02  0.23535492091E+02  0.46037894993E+02  0.00000000000E+00 0.  1.
<scales pt_clust_5="13000.00000" pt_clust_6="13000.00000" pt_clust_7="13000.00000" pt_clust_8="13000.00000" pt_clust_9="39.56726"></scales>
<clustering>
<clus scale="   39.567">  1  9  2 -1</clus>
<clus scale="   77.324">  5  6 -1 -1</clus>
<clus scale="   84.107">  1  5  2 -1</clus>
<clus scale="   91.078">  7  8 -1 -1</clus>
<clus scale="   39.567">  1  5  2 -1</clus>
</clustering>
</event>
<event>
 9    2  0.3764910E-005  0.9316980E+02  0.7546771E-02  0.1300664E+00
          2   -1    0    0  502    0 -0.00000000000E+00  0.00000000000E+00  0.88141501405E+03  0.88141501405E+03  0.00000000000E+00 0. -1.
         21   -1    0    0  501  502  0.00000000000E+00 -0.00000000000E+00 -0.16631107955E+02  0.16631107955E+02  0.00000000000E+00 0.  1.
         24    2    1    2    0    0 -0.22697705545E+02 -0.13912164445E+02  0.58145625818E+03  0.58788252115E+03  0.82496935327E+02 0.  0.
         23    2    1    2    0    0 -0.19734978467E+01 -0.65077263121E+01  0.23445056598E+03  0.25172894202E+03  0.91401023875E+02 0.  0.
        -13    1    3    3    0    0  0.68912235021E+01 -0.43611421390E+02  0.26334219820E+03  0.26701789901E+03  0.00000000000E+00 0.  1.
         14    1    3    3    0    0 -0.29588929047E+02  0.29699256945E+02  0.31811405998E+03  0.32086462214E+03  0.00000000000E+00 0. -1.
        -13    1    4    4    0    0 -0.13072757452E+02  0.40404621490E+02  0.12827591951E+03  0.13512269221E+03  0.00000000000E+00 0. -1.
         13    1    4    4    0    0  0.11099259605E+02 -0.46912347802E+02  0.10617464647E+03  0.11660624981E+03  0.00000000000E+00 0.  1.
          1    1    1    2  501    0  0.24671203391E+02  0.20419890757E+02  0.48877081939E+02  0.58434658843E+02  0.00000000000E+00 0. -1.
<scales pt_clust_5="13000.00000" pt_clust_6="13000.00000" pt_clust_7="13000.00000" pt_clust_8="13000.00000" pt_clust_9="32.02562"></scales>
<clustering>
<clus scale="   32.026">  2  9  1 -1</clus>
<clus scale="   82.497">  5  6 -1 -1</clus>
<clus scale="   84.452">  1  5  2 -1</clus>
<clus scale="   91.401">  7  8 -1 -1</clus>
<clus scale="   32.026">  2  5  1 -1</clus>
</clustering>
</event>
<event>
 9    2  0.3764910E-005  0.9546237E+02  0.7546771E-02  0.1296128E+00
         21   -1    0    0  501  502  0.00000000000E+00  0.00000000000E+00  0.36896857629E+03  0.36896857629E+03  0.00000000000E+00 0.  1.
         -3   -1    0    0    0  501 -0.00000000000E+00 -0.00000000000E+00 -0.66155073306E+02  0.66155073306E+02  0.00000000000E+00 0.  1.
         24    2    1    2    0    0  0.29895757031E+02 -0.41678914786E+02  0.26465316820E+02  0.99783576069E+02  0.81396933804E+02 0.  0.
         23    2    1    2    0    0  0.81908572493E+01 -0.42375551638E+01  0.58206417618E+02  0.10918803709E+03  0.91918406077E+02 0.  0.
        -11    1    3    3    0    0 -0.18914303333E+01 -0.34945565415E+02 -0.22071078307E+02  0.41375144091E+02  0.00000000000E+00 0.  1.
         12    1    3    3    0    0  0.31787187364E+02 -0.67333493707E+01  0.48536395127E+02  0.58408431979E+02  0.00000000000E+00 0. -1.
        -13    1    4    4    0    0 -0.26743880567E+02 -0.35926657212E+02  0.23122976968E+02  0.50404681430E+02  0.00000000000E+00 0. -1.
         13    1    4    4    0    0  0.34934737817E+02  0.31689102048E+02  0.35083440650E+02  0.58783355661E+02  0.00000000000E+00 0.  1.
         -4    1    1    2    0  502 -0.38086614280E+02  0.45916469949E+02  0.21814176854E+03  0.22615203643E+03  0.00000000000E+00 0.  1.
<scales pt_clust_5="13000.00000" pt_clust_6="13000.00000" pt_clust_7="13000.00000" pt_clust_8="13000.00000" pt_clust_9="59.65662"></scales>
<clustering>
<clus scale="   59.657">  1  9  2 -1</clus>
<clus scale="   81.397">  5  6 -1 -1</clus>
<clus scale="   85.379">  2  5  1 -1</clus>
<clus scale="   91.918">  7  8 -1 -1</clus>
<clus scale="   59.657">  1  5  2 -1</clus>
</clustering>
</event>
<event>
 9    2  0.3764910E-005  0.1806182E+03  0.7546771E-02  0.1168572E+00
         21   -1    0    0  501  502  0.00000000000E+00  0.00000000000E+00  0.21852144120E+02  0.21852144120E+02  0.00000000000E+00 0. -1.
          4   -1    0    0  502    0 -0.00000000000E+00 -0.00000000000E+00 -0.17983735569E+04  0.17983735569E+04  0.00000000000E+00 0. -1.
         23    2    1    2    0    0  0.16964319014E+03 -0.43328465080E+01 -0.10123669629E+04  0.10304459876E+04  0.90191352772E+02 0.  0.
         24    2    1    2    0    0 -0.13896486766E+03  0.13451063463E+02 -0.53657807224E+03  0.55996389809E+03  0.78430695552E+02 0.  0.
        -11    1    4    4    0    0 -0.13699263091E+03  0.30358355445E+02 -0.43799253097E+03  0.45991963195E+03  0.00000000000E+00 0.  1.
         12    1    4    4    0    0 -0.19722367509E+01 -0.16907291982E+02 -0.98585541271E+02  0.10004426614E+03  0.00000000000E+00 0. -1.
        -13    1    3    3    0    0  0.16723240220E+02 -0.27042851898E+02 -0.95967202984E+02  0.10109741169E+03  0.00000000000E+00 0.  1.
         13    1    3    3    0    0  0.15291994992E+03  0.22710005390E+02 -0.91639975995E+03  0.92934857587E+03  0.00000000000E+00 0. -1.
          3    1    1    2  501    0 -0.30678322475E+02 -0.91182169550E+01 -0.22757637759E+03  0.22981581535E+03  0.00000000000E+00 0. -1.
<scales pt_clust_5="13000.00000" pt_clust_6="13000.00000" pt_clust_7="13000.00000" pt_clust_8="13000.00000" pt_clust_9="32.00472"></scales>
<clustering>
<clus scale="   32.005">  1  9  2 -1</clus>
<clus scale="   78.431">  5  6 -1 -1</clus>
<clus scale="   90.191">  7  8 -1 -1</clus>
<clus scale="  175.042">  1  5  2 -1</clus>
<clus scale="   32.005">  1  5  2 -1</clus>
</clustering>
</event>
<event>
 9    2  0.3764910E-005  0.1041099E+03  0.7546771E-02  0.1276598E+00
         21   -1    0    0  501  502  0.00000000000E+00  0.00000000000E+00  0.21130649084E+02  0.21130649084E+02  0.00000000000E+00 0. -1.
          2   -1    0    0  502    0 -0.00000000000E+00 -0.00000000000E+00 -0.10740866147E+04  0.10740866147E+04  0.00000000000E+00 0. -1.
         24    2    1    2    0    0 -0.58515490338E+02  0.29974849776E+02 -0.60677373081E+03  0.61586281006E+03  0.82401979250E+02 0.  0.
         23    2    1    2    0    0  0.80866222544E+01  0.20184964408E+02 -0.17738442127E+03  0.20130528135E+03  0.92659360801E+02 0.  0.
        -11    1    3    3    0    0 -0.84874171280E+01 -0.24938832245E+02 -0.89968635791E+02  0.93746130744E+02  0.00000000000E+00 0.  1.
         12    1    3    3    0    0 -0.50028073210E+02  0.54913682021E+02 -0.51680509502E+03  0.52211667931E+03  0.00000000000E+00 0. -1.
        -13    1    4    4    0    0  0.41160964151E+02 -0.16427542494E+02 -0.66201536065E+02  0.79666382493E+02  0.00000000000E+00 0.  1.
         13    1    4    4    0    0 -0.33074341896E+02  0.36612506901E+02 -0.11118288521E+03  0.12163889886E+03  0.00000000000E+00 0. -1.
          1    1    1    2  501    0  0.50428868084E+02 -0.50159814184E+02 -0.26879781355E+03  0.27804917238E+03  0.00000000000E+00 0. -1.
<scales pt_clust_5="13000.00000" pt_clust_6="13000.00000" pt_clust_7="13000.00000" pt_clust_8="13000.00000" pt_clust_9="71.12723"></scales>
<clustering>
<clus scale="   71.127">  1  9  2 -1</clus>
<clus scale="   82.402">  5  6 -1 -1</clus>
<clus scale="   92.659">  7  8 -1 -1</clus>
<clus scale="   95.096">  2  5  1 -1</clus>
<clus scale="   71.127">  1  5  2 -1</clus>
</clustering>
</event>
<event>
 9    2  0.3764910E-005  0.1120528E+03  0.7546771E-02  0.1259932E+00
         21   -1    0    0  501  502  0.00000000000E+00  0.00000000000E+00  0.20294133769E+03  0.20294133769E+03  0.00000000000E+00 0.  1.
          2   -1    0    0  502    0 -0.00000000000E+00 -0.00000000000E+00 -0.22754316869E+03  0.22754316869E+03  0.00000000000E+00 0. -1.
         23    2    1    2    0    0 -0.75821861081E+02 -0.17777316485E+02 -0.14001583129E+03  0.18334323694E+03  0.89136535274E+02 0.  0.
         24    2    1    2    0    0 -0.88198038641E+01  0.75399376212E+02  0.87212672707E+02  0.14093473439E+03  0.80583461100E+02 0.  0.
        -11    1    4    4    0    0 -0.27392141522E+02  0.69246872083E+02  0.94271282542E+02  0.12013547945E+03  0.00000000000E+00 0.  1.
         12    1    4    4    0    0  0.18572337658E+02  0.61525041286E+01 -0.70586098353E+01  0.20799254937E+02  0.00000000000E+00 0. -1.
        -11    1    3    3    0    0 -0.86961158650E+02  0.60852391159E+01 -0.12680965457E+03  0.15388294818E+03  0.00000000000E+00 0.  1.
         11    1    3    3    0    0  0.11139297569E+02 -0.23862555601E+02 -0.13206176717E+02  0.29460288757E+02  0.00000000000E+00 0. -1.
          1    1    1    2  501    0  0.84641664945E+02 -0.57622059727E+02  0.28201327575E+02  0.10620653506E+03  0.00000000000E+00 0. -1.
<scales pt_clust_5="13000.00000" pt_clust_6="13000.00000" pt_clust_7="13000.00000" pt_clust_8="13000.00000" pt_clust_9="102.39391"></scales>
<clustering>
<clus scale="   80.583">  5  6 -1 -1</clus>
<clus scale="   89.137">  7  8 -1 -1</clus>
<clus scale="  102.394">  1  9  2 -1</clus>
<clus scale="  105.376">  1  5  2 -1</clus>
<clus scale="  102.394">  1  5  2 -1</clus>
</clustering>
</event>
<event>
 9    2  0.3764910E-005  0.2300938E+03  0.7546771E-02  0.1153524E+00
         -3   -1    0    0    0  501 -0.00000000000E+00  0.00000000000E+00  0.38888615826E+03  0.38888615826E+03  0.00000000000E+00 0.  1.
         21   -1    0    0  501  502  0.00000000000E+00 -0.00000000000E+00 -0.24650978363E+03  0.24650978363E+03  0.00000000000E+00 0.  1.
         24    2    1    2    0    0 -0.87951198879E+02  0.26132329254E+01  0.10727677152E+03  0.16104149853E+03  0.81754609487E+02 0.  0.
         23    2    1    2    0    0  0.16654333272E+03 -0.18351320893E+03  0.71339721909E+02  0.27381798526E+03  0.92049734413E+02 0.  0.
        -13    1    3    3    0    0 -0.21713927994E+02  0.16717891849E+02 -0.69287653438E+01  0.28266417637E+02  0.00000000000E+00 0.  1.
         14    1    3    3    0    0 -0.66237270885E+02 -0.14104658923E+02  0.11420553686E+03  0.13277508090E+03  0.00000000000E+00 0. -1.
        -13    1    4    4    0    0  0.13194448769E+03 -0.12442104928E+03  0.95859349775E+01  0.18160901818E+03  0.00000000000E+00 0.  1.
         13    1    4    4    0    0  0.34598845030E+02 -0.59092159650E+02  0.61753786932E+02  0.92208967080E+02  0.00000000000E+00 0. -1.
         -4    1    1    2    0  502 -0.78592133840E+02  0.18089997600E+03 -0.36240118798E+02  0.20053645810E+03  0.00000000000E+00 0.  1.
<scales pt_clust_5="13000.00000" pt_clust_6="13000.00000" pt_clust_7="13000.00000" pt_clust_8="13000.00000" pt_clust_9="210.87910"></scales>
<clustering>
<clus scale="   81.755">  5  6 -1 -1</clus>
<clus scale="   92.050">  7  8 -1 -1</clus>
<clus scale="  120.109">  1  5  2 -1</clus>
<clus scale="  210.879">  2  9  1 -1</clus>
<clus scale="  210.879">  2  5  1 -1</clus>
</clustering>
</event>
<event>
 9    2  0.3764910E-005  0.9759217E+02  0.7546771E-02  0.1295663E+00
         -1   -1    0    0    0  501 -0.00000000000E+00  0.00000000000E+00  0.14957038552E+03  0.14957038552E+03  0.00000000000E+00 0.  1.
         21   -1    0    0  501  502  0.00000000000E+00 -0.00000000000E+00 -0.17468679140E+03  0.17468679140E+03  0.00000000000E+00 0.  1.
         24    2    1    2    0    0 -0.12435737867E+02 -0.47470314672E+02  0.77653373263E+02  0.11621983280E+03  0.71196381975E+02 0.  0.
         23    2    1    2    0    0 -0.14998059581E+02 -0.23937318016E+02 -0.90227482447E+02  0.13051978188E+03  0.89980430582E+02 0.  0.
        -13    1    3    3    0    0 -0.15138151328E+02 -0.20457107177E+02  0.84477223627E+02  0.88227309669E+02  0.00000000000E+00 0.  1.
         14    1    3    3    0    0  0.27024134603E+01 -0.27013207495E+02 -0.68238503635E+01  0.27992523135E+02  0.00000000000E+00 0. -1.
        -13    1    4    4    0    0 -0.46250417472E+01  0.34562462892E+02 -0.31860318931E+02  0.47233830829E+02  0.00000000000E+00 0.  1.
         13    1    4    4    0    0 -0.10373017834E+02 -0.58499780909E+02 -0.58367163515E+02  0.83285951049E+02  0.00000000000E+00 0. -1.
         -2    1    1    2    0  502  0.27433797449E+02  0.71407632688E+02 -0.12542296698E+02  0.77517562236E+02  0.00000000000E+00 0.  1.
<scales pt_clust_5="13000.00000" pt_clust_6="13000.00000" pt_clust_7="13000.00000" pt_clust_8="13000.00000" pt_clust_9="76.49616"></scales>
<clustering>
<clus scale="   71.196">  5  6 -1 -1</clus>
<clus scale="   76.496">  2  9  1 -1</clus>
<clus scale="   80.602">  1  5  2 -1</clus>
<clus scale="   89.980">  7  8 -1 -1</clus>
<clus scale="   76.496">  2  5  1 -1</clus>
</clustering>
</event>
<event>
 9    2  0.3764910E-005  0.1002462E+03  0.7546771E-02  0.1285331E+00
         21   -1    0    0  501  502  0.00000000000E+00  0.00000000000E+00  0.55247050023E+03  0.55247050023E+03  0.00000000000E+00 0. -1.
         -3   -1    0    0    0  501 -0.00000000000E+00 -0.00000000000E+00 -0.40204176233E+02  0.40204176233E+02  0.00000000000E+00 0.  1.
         24    2    1    2    0    0 -0.33920655214E+02 -0.59922234734E+01  0.68579695116E+02  0.11224140373E+03  0.81905070277E+02 0.  0.
         23    2    1    2    0    0  0.28752369111E+02  0.46654578589E+02  0.15467371267E+03  0.18852814424E+03  0.92820015869E+02 0.  0.
        -11    1    3    3    0    0 -0.13887589173E+01 -0.40482040608E+02  0.39752666209E+02  0.56753843340E+02  0.00000000000E+00 0.  1.
         12    1    3    3    0    0 -0.32531896296E+02  0.34489817134E+02  0.28827028907E+02  0.55487560392E+02  0.00000000000E+00 0. -1.
        -11    1    4    4    0    0 -0.31874785130E+02  0.14887107696E+01  0.39864961036E+02  0.51063032668E+02  0.00000000000E+00 0.  1.
         11    1    4    4    0    0  0.60627154241E+02  0.45165867820E+02  0.11480875164E+03  0.13746511157E+03  0.00000000000E+00 0. -1.
         -4    1    1    2    0  502  0.51682861031E+01 -0.40662355116E+02  0.28901291621E+03  0.29190512850E+03  0.00000000000E+00 0.  1.
<scales pt_clust_5="13000.00000" pt_clust_6="13000.00000" pt_clust_7="13000.00000" pt_clust_8="13000.00000" pt_clust_9="40.98949"></scales>
<clustering>
<clus scale="   40.989">  1  9  2 -1</clus>
<clus scale="   81.905">  5  6 -1 -1</clus>
<clus scale="   90.234">  2  5  1 -1</clus>
<clus scale="   92.820">  7  8 -1 -1</clus>
<clus scale="   40.989">  1  5  2 -1</clus>
</clustering>
</event>
<event>
 9    2  0.3764910E-005  0.1006209E+03  0.7546771E-02  0.1286473E+00
          2   -1    0    0  502    0 -0.00000000000E+00  0.00000000000E+00  0.11282555806E+04  0.11282555806E+04  0.00000000000E+00 0. -1.
         21   -1    0    0  501  502  0.00000000000E+00 -0.00000000000E+00 -0.33588877679E+02  0.33588877679E+02  0.00000000000E+00 0. -1.
         24    2    1    2    0    0  0.50726641258E+02  0.19309716392E+02  0.85169126693E+03  0.85669341840E+03  0.74830085423E+02 0.  0.
         23    2    1    2    0    0 -0.17021559251E+02  0.45602409883E+01  0.24717612619E+03  0.26363654582E+03  0.89987008253E+02 0.  0.
        -11    1    3    3    0    0  0.35619460371E+02  0.16534375879E+02  0.15714790015E+03  0.16198022739E+03  0.00000000000E+00 0.  1.
         12    1    3    3    0    0  0.15107180888E+02  0.27753405128E+01  0.69454336678E+03  0.69471319101E+03  0.00000000000E+00 0. -1.
        -13    1    4    4    0    0 -0.33891767039E+02 -0.27364543604E+02  0.19736377017E+03  0.20211365094E+03  0.00000000000E+00 0.  1.
         13    1    4    4    0    0  0.16870207788E+02  0.31924784592E+02  0.49812356024E+02  0.61522894883E+02  0.00000000000E+00 0. -1.
          1    1    1    2  501    0 -0.33705082007E+02 -0.23869957380E+02 -0.42006902074E+01  0.41514494055E+02  0.00000000000E+00 0. -1.
<scales pt_clust_5="13000.00000" pt_clust_6="13000.00000" pt_clust_7="13000.00000" pt_clust_8="13000.00000" pt_clust_9="41.30142"></scales>
<clustering>
<clus scale="   41.301">  2  9  1 -1</clus>
<clus scale="   74.830">  5  6 -1 -1</clus>
<clus scale="   87.330">  1  5  2 -1</clus>
<clus scale="   89.987">  7  8 -1 -1</clus>
<clus scale="   41.301">  2  5  1 -1</clus>
</clustering>
</event>
<event>
 9    2  0.3764910E-005  0.1028612E+03  0.7546771E-02  0.1277012E+00
         21   -1    0    0  501  502  0.00000000000E+00  0.00000000000E+00  0.49301966562E+03  0.49301966562E+03  0.00000000000E+00 0.  1.
         -3   -1    0    0    0  501 -0.00000000000E+00 -0.00000000000E+00 -0.28708721366E+02  0.28708721366E+02  0.00000000000E+00 0.  1.
         24    2    1    2    0    0  0.21999757261E+02  0.47644067877E+02  0.11752676951E+03  0.15486287773E+03  0.86116333073E+02 0.  0.
         23    2    1    2    0    0 -0.10681795950E+02 -0.30643200590E+02  0.30813153751E+03  0.32314878361E+03  0.91798613457E+02 0.  0.
        -11    1    3    3    0    0 -0.54744105149E+01  0.66116103599E+02  0.89989184045E+02  0.11180054370E+03  0.00000000000E+00 0.  1.
         12    1    3    3    0    0  0.27474167776E+02 -0.18472035722E+02  0.27537585468E+02  0.43062334030E+02  0.00000000000E+00 0. -1.
        -11    1    4    4    0    0 -0.12403746898E+02  0.22715710975E+02  0.28630675753E+02  0.38594974495E+02  0.00000000000E+00 0. -1.
         11    1    4    4    0    0  0.17219509478E+01 -0.53358911565E+02  0.27950086176E+03  0.28455380912E+03  0.00000000000E+00 0.  1.
         -4    1    1    2    0  502 -0.11317961311E+02 -0.17000867287E+02  0.38652637224E+02  0.43716725645E+02  0.00000000000E+00 0.  1.
<scales pt_clust_5="13000.00000" pt_clust_6="13000.00000" pt_clust_7="13000.00000" pt_clust_8="13000.00000" pt_clust_9="20.42367"></scales>
<clustering>
<clus scale="   20.424">  1  9  2 -1</clus>
<clus scale="   86.116">  5  6 -1 -1</clus>
<clus scale="   91.799">  7  8 -1 -1</clus>
<clus scale="   97.824">  2  5  1 -1</clus>
<clus scale="   20.424">  1  5  2 -1</clus>
</clustering>
</event>
<event>
 9    2  0.3764910E-005  0.1034753E+03  0.7546771E-02  0.1282253E+00
          2   -1    0    0  502    0 -0.00000000000E+00  0.00000000000E+00  0.32131675871E+03  0.32131675871E+03  0.00000000000E+00 0. -1.
         21   -1    0    0  501  502  0.00000000000E+00 -0.00000000000E+00 -0.10096726544E+03  0.10096726544E+03  0.00000000000E+00 0.  1.
         24    2    1    2    0    0  0.30069576732E+02 -0.13729112295E+02  0.25976626338E+03  0.27365477486E+03  0.79471732366E+02 0.  0.
         23    2    1    2    0    0 -0.46974985673E+02  0.32732902005E+02 -0.15877828835E+02  0.11397353358E+03  0.97261342554E+02 0.  0.
        -11    1    3    3    0    0  0.38538526006E+01 -0.26637837328E+02  0.23929499926E+02  0.36014546007E+02  0.00000000000E+00 0.  1.
         12    1    3    3    0    0  0.26215724132E+02  0.12908725034E+02  0.23583676345E+03  0.23764022885E+03  0.00000000000E+00 0. -1.
        -11    1    4    4    0    0 -0.74665205172E+02  0.17651615064E+02  0.37806552683E+01  0.76816441808E+02  0.00000000000E+00 0. -1.
         11    1    4    4    0    0  0.27690219499E+02  0.15081286941E+02 -0.19658484103E+02  0.37157091772E+02  0.00000000000E+00 0.  1.
          1    1    1    2  501    0  0.16905408941E+02 -0.19003789710E+02 -0.23538941274E+02  0.34655715706E+02  0.00000000000E+00 0. -1.
<scales pt_clust_5="13000.00000" pt_clust_6="13000.00000" pt_clust_7="13000.00000" pt_clust_8="13000.00000" pt_clust_9="25.43495"></scales>
<clustering>
<clus scale="   25.435">  2  9  1 -1</clus>
<clus scale="   79.472">  5  6 -1 -1</clus>
<clus scale="   86.966">  1  5  2 -1</clus>
<clus scale="   97.261">  7  8 -1 -1</clus>
<clus scale="   25.435">  2  5  1 -1</clus>
</clustering>
</event>
<event>
 9    2  0.3764910E-005  0.1592964E+03  0.7546771E-02  0.1191533E+00
         21   -1    0    0  501  502  0.00000000000E+00  0.00000000000E+00  0.16300840581E+03  0.16300840581E+03  0.00000000000E+00 0. -1.
          2   -1    0    0  502    0 -0.00000000000E+00 -0.00000000000E+00 -0.36997025831E+03  0.36997025831E+03  0.00000000000E+00 0. -1.
         23    2    1    2    0    0  0.67698332318E+02 -0.70517790207E+02 -0.10483972177E+03  0.17048523636E+03  0.92293150465E+02 0.  0.
         24    2    1    2    0    0 -0.18272353510E+03  0.10627945919E+03 -0.82426511060E+02  0.24043765494E+03  0.79579661106E+02 0.  0.
        -13    1    4    4    0    0 -0.53716326741E+02  0.33239144288E+02 -0.65874802631E+02  0.91267596075E+02  0.00000000000E+00 0.  1.
         14    1    4    4    0    0 -0.12900720836E+03  0.73040314903E+02 -0.16551708429E+02  0.14917005887E+03  0.00000000000E+00 0. -1.
        -13    1    3    3    0    0  0.21781971401E+02 -0.83812548955E+02 -0.65552843720E+02  0.10861018811E+03  0.00000000000E+00 0. -1.
         13    1    3    3    0    0  0.45916360917E+02  0.13294758748E+02 -0.39286878047E+02  0.61875048256E+02  0.00000000000E+00 0.  1.
          1    1    1    2  501    0  0.11502520278E+03 -0.35761668985E+02 -0.19695619678E+02  0.12205577282E+03  0.00000000000E+00 0. -1.
<scales pt_clust_5="13000.00000" pt_clust_6="13000.00000" pt_clust_7="13000.00000" pt_clust_8="13000.00000" pt_clust_9="120.45619"></scales>
<clustering>
<clus scale="   79.580">  5  6 -1 -1</clus>
<clus scale="   92.293">  7  8 -1 -1</clus>
<clus scale="  120.456">  1  9  2 -1</clus>
<clus scale="  152.283">  1  5  2 -1</clus>
<clus scale="  120.456">  1  5  2 -1</clus>
</clustering>
</event>
<event>
 9    2  0.3764910E-005  0.8881352E+02  0.7546771E-02  0.1312320E+00
         21   -1    0    0  501  502  0.00000000000E+00  0.00000000000E+00  0.30475655377E+03  0.30475655377E+03  0.00000000000E+00 0. -1.
          4   -1    0    0  502    0 -0.00000000000E+00 -0.00000000000E+00 -0.32214114378E+02  0.32214114378E+02  0.00000000000E+00 0. -1.
         24    2    1    2    0    0  0.13495238633E+02 -0.36605243047E+01  0.11805743149E+03  0.14239509244E+03  0.78379106371E+02 0.  0.
         23    2    1    2    0    0  0.94421731713E-02 -0.12732636100E+02  0.14707297655E+03  0.17208001347E+03  0.88424829628E+02 0.  0.
        -11    1    3    3    0    0  0.23267803594E+02  0.31173164277E+02  0.84612572902E+02  0.93125959582E+02  0.00000000000E+00 0.  1.
         12    1    3    3    0    0 -0.97725649605E+01 -0.34833688581E+02  0.33444858591E+02  0.49269132855E+02  0.00000000000E+00 0. -1.
        -13    1    4    4    0    0 -0.23643901486E+02  0.31001105953E+02  0.74874239319E+02  0.84417144949E+02  0.00000000000E+00 0. -1.
         13    1    4    4    0    0  0.23653343660E+02 -0.43733742053E+02  0.72198737226E+02  0.87662868520E+02  0.00000000000E+00 0.  1.
          3    1    1    2  501    0 -0.13504680807E+02  0.16393160405E+02  0.74120313544E+01  0.22495562241E+02  0.00000000000E+00 0. -1.
<scales pt_clust_5="13000.00000" pt_clust_6="13000.00000" pt_clust_7="13000.00000" pt_clust_8="13000.00000" pt_clust_9="21.23941"></scales>
<clustering>
<clus scale="   21.239">  1  9  2 -1</clus>
<clus scale="   78.379">  5  6 -1 -1</clus>
<clus scale="   78.817">  2  5  1 -1</clus>
<clus scale="   88.425">  7  8 -1 -1</clus>
<clus scale="   21.239">  1  5  2 -1</clus>
</clustering>
</event>
<event>
 9    2  0.3764910E-005  0.1177912E+03  0.7546771E-02  0.1254541E+00
         21   -1    0    0  501  502  0.00000000000E+00  0.00000000000E+00  0.22349933678E+02  0.22349933678E+02  0.00000000000E+00 0.  1.
          2   -1    0    0  502    0 -0.00000000000E+00 -0.00000000000E+00 -0.94518674851E+03  0.94518674851E+03  0.00000000000E+00 0. -1.
         24    2    1    2    0    0  0.49632845429E+02 -0.32378187493E+02 -0.65101869642E+03  0.65879046160E+03  0.81656370400E+02 0.  0.
         23    2    1    2    0    0 -0.34443910119E+02  0.53675379973E+02 -0.21780644748E+03  0.24873343229E+03  0.10179018821E+03 0.  0.
        -13    1    3    3    0    0  0.65236800944E+02 -0.10683581046E+01 -0.38647198212E+03  0.39194077939E+03  0.00000000000E+00 0.  1.
         14    1    3    3    0    0 -0.15603955514E+02 -0.31309829389E+02 -0.26454671431E+03  0.26684968221E+03  0.00000000000E+00 0. -1.
        -13    1    4    4    0    0  0.23524345323E+02  0.56789586386E+02 -0.99592079476E+02  0.11703432932E+03  0.00000000000E+00 0.  1.
         13    1    4    4    0    0 -0.57968255442E+02 -0.31142064135E+01 -0.11821436801E+03  0.13169910297E+03  0.00000000000E+00 0. -1.
          1    1    1    2  501    0 -0.15188935311E+02 -0.21297192480E+02 -0.54011670927E+02  0.60012788301E+02  0.00000000000E+00 0. -1.
<scales pt_clust_5="13000.00000" pt_clust_6="13000.00000" pt_clust_7="13000.00000" pt_clust_8="13000.00000" pt_clust_9="26.15863"></scales>
<clustering>
<clus scale="   26.159">  1  9  2 -1</clus>
<clus scale="   81.656">  5  6 -1 -1</clus>
<clus scale="  100.902">  2  5  1 -1</clus>
<clus scale="  101.790">  7  8 -1 -1</clus>
<clus scale="   26.159">  1  5  2 -1</clus>
</clustering>
</event>
<event>
 9    2  0.3764910E-005  0.1449600E+03  0.7546771E-02  0.1207132E+00
         21   -1    0    0  501  502  0.00000000000E+00  0.00000000000E+00  0.40216305375E+03  0.40216305375E+03  0.00000000000E+00 0. -1.
         -3   -1    0    0    0  501 -0.00000000000E+00 -0.00000000000E+00 -0.78466185369E+02  0.78466185369E+02  0.00000000000E+00 0.  1.
         23    2    1    2    0    0 -0.43904931437E+02  0.99766082963E+02  0.71890789477E+02  0.15603321815E+03  0.85423446666E+02 0.  0.
         24    2    1    2    0    0  0.72528439455E+02 -0.11618476788E+03  0.24158817056E+03  0.29005207683E+03  0.83702379323E+02 0.  0.
        -13    1    4    4    0    0  0.12428214410E+02 -0.27906539351E+02  0.56463689191E+01  0.31066331195E+02  0.00000000000E+00 0.  1.
         14    1    4    4    0    0  0.60100225045E+02 -0.88278228528E+02  0.23594180164E+03  0.25898574564E+03  0.00000000000E+00 0. -1.
        -11    1    3    3    0    0  0.15397826187E+01  0.90880833995E+02  0.37369315853E+02  0.98275951715E+02  0.00000000000E+00 0. -1.
         11    1    3    3    0    0 -0.45444714056E+02  0.88852489677E+01  0.34521473624E+02  0.57757266435E+02  0.00000000000E+00 0.  1.
         -4    1    1    2    0  502 -0.28623508018E+02  0.16418684916E+02  0.10217908346E+02  0.34543944138E+02  0.00000000000E+00 0.  1.
<scales pt_clust_5="13000.00000" pt_clust_6="13000.00000" pt_clust_7="13000.00000" pt_clust_8="13000.00000" pt_clust_9="32.99817"></scales>
<clustering>
<clus scale="   32.998">  1  9  2 -1</clus>
<clus scale="   83.702">  5  6 -1 -1</clus>
<clus scale="   85.423">  7  8 -1 -1</clus>
<clus scale="  143.952">  1  5  2 -1</clus>
<clus scale="   32.998">  1  5  2 -1</clus>
</clustering>
</event>
<event>
 9    2  0.3764910E-005  0.1337465E+03  0.7546771E-02  0.1224543E+00
         21   -1    0    0  501  502  0.00000000000E+00  0.00000000000E+00  0.24049066968E+03  0.24049066968E+03  0.00000000000E+00 0. -1.
         -1   -1    0    0    0  501 -0.00000000000E+00 -0.00000000000E+00 -0.15472715535E+03  0.15472715535E+03  0.00000000000E+00 0.  1.
         24    2    1    2    0    0  0.76198959625E+02 -0.50338399628E+02 -0.75781714341E+02  0.14380017262E+03  0.81211978744E+02 0.  0.
         23    2    1    2    0    0 -0.10173574516E+03  0.69905781670E+02  0.10438126591E+03  0.18582246589E+03  0.91638201656E+02 0.  0.
        -13    1    3    3    0    0  0.54554306447E+02  0.12311552405E+02 -0.34315360467E+02  0.65614713583E+02  0.00000000000E+00 0.  1.
         14    1    3    3    0    0  0.21644653178E+02 -0.62649952034E+02 -0.41466353874E+02  0.78185459036E+02  0.00000000000E+00 0. -1.
        -13    1    4    4    0    0 -0.19257904723E+02  0.61054275829E+02  0.73095965938E+02  0.97167441706E+02  0.00000000000E+00 0.  1.
         13    1    4    4    0    0 -0.82477840440E+02  0.88515058416E+01  0.31285299974E+02  0.88655024189E+02  0.00000000000E+00 0. -1.
         -2    1    1    2    0  502  0.25536785539E+02 -0.19567382042E+02  0.57163962762E+02  0.65595186518E+02  0.00000000000E+00 0.  1.
<scales pt_clust_5="13000.00000" pt_clust_6="13000.00000" pt_clust_7="13000.00000" pt_clust_8="13000.00000" pt_clust_9="32.17157"></scales>
<clustering>
<clus scale="   32.172">  1  9  2 -1</clus>
<clus scale="   81.212">  5  6 -1 -1</clus>
<clus scale="   91.638">  7  8 -1 -1</clus>
<clus scale="  126.830">  2  5  1 -1</clus>
<clus scale="   32.172">  1  5  2 -1</clus>
</clustering>
</event>
<event>
 9    2  0.3764910E-005  0.1313954E+03  0.7546771E-02  0.1235956E+00
         21   -1    0    0  501  502  0.00000000000E+00  0.00000000000E+00  0.33251842055E+03  0.33251842055E+03  0.00000000000E+00 0. -1.
          2   -1    0    0  502    0 -0.00000000000E+00 -0.00000000000E+00 -0.11625171313E+03  0.11625171313E+03  0.00000000000E+00 0. -1.
         24    2    1    2    0    0 -0.61902036395E+02  0.17450339997E+02  0.17859142822E+03  0.20752046488E+03  0.83865777507E+02 0.  0.
         23    2    1    2    0    0  0.11416070880E+02  0.77960970840E+02 -0.14214757103E+02  0.12148019515E+03  0.91362677529E+02 0.  0.
        -13    1    3    3    0    0  0.12881164660E+02 -0.16886503979E+02  0.21733568688E+02  0.30387932269E+02  0.00000000000E+00 0.  1.
         14    1    3    3    0    0 -0.74783201055E+02  0.34336843977E+02  0.15685785953E+03  0.17713253262E+03  0.00000000000E+00 0. -1.
        -13    1    4    4    0    0 -0.39528935352E+02  0.24187398601E+02 -0.91219762680E+01  0.47231106616E+02  0.00000000000E+00 0.  1.
         13    1    4    4    0    0  0.50945006232E+02  0.53773572238E+02 -0.50927808352E+01  0.74249088532E+02  0.00000000000E+00 0. -1.
          1    1    1    2  501    0  0.50485965515E+02 -0.95411310837E+02  0.51890036303E+02  0.11976947364E+03  0.00000000000E+00 0. -1.
<scales pt_clust_5="13000.00000" pt_clust_6="13000.00000" pt_clust_7="13000.00000" pt_clust_8="13000.00000" pt_clust_9="94.43307"></scales>
<clustering>
<clus scale="   83.866">  5  6 -1 -1</clus>
<clus scale="   91.363">  7  8 -1 -1</clus>
<clus scale="  105.688">  2  5  1 -1</clus>
<clus scale="   94.433">  1  9  2 -1</clus>
<clus scale="   94.433">  1  5  2 -1</clus>
</clustering>
</event>
<event>
 9    2  0.3764910E-005  0.1115940E+03  0.7546771E-02  0.1261632E+00
          2   -1    0    0  502    0 -0.00000000000E+00  0.00000000000E+00  0.15140672074E+03  0.15140672074E+03  0.00000000000E+00 0. -1.
         21   -1    0    0  501  502  0.00000000000E+00 -0.00000000000E+00 -0.17669491781E+03  0.17669491781E+03  0.00000000000E+00 0.  1.
         23    2    1    2    0    0 -0.62370040610E+01  0.43824984380E+02 -0.24001562001E+02  0.10479141480E+03  0.91900142333E+02 0.  0.
         24    2    1    2    0    0 -0.60322202956E+02 -0.81271073811E+02 -0.42273468209E+02  0.13663693985E+03  0.81479148305E+02 0.  0.
        -11    1    4    4    0    0 -0.45841001399E+02 -0.48119170865E+02 -0.65768315760E+02  0.93500392362E+02  0.00000000000E+00 0.  1.
         12    1    4    4    0    0 -0.14481201557E+02 -0.33151902946E+02  0.23494847551E+02  0.43136547485E+02  0.00000000000E+00 0. -1.
        -13    1    3    3    0    0 -0.47878038945E+02  0.34979424214E+02 -0.16680399888E+02  0.61596286187E+02  0.00000000000E+00 0. -1.
         13    1    3    3    0    0  0.41641034884E+02  0.88455601666E+01 -0.73211621122E+01  0.43195128609E+02  0.00000000000E+00 0.  1.
          1    1    1    2  501    0  0.66559207017E+02  0.37446089431E+02  0.40986833137E+02  0.86673283906E+02  0.00000000000E+00 0. -1.
<scales pt_clust_5="13000.00000" pt_clust_6="13000.00000" pt_clust_7="13000.00000" pt_clust_8="13000.00000" pt_clust_9="76.36978"></scales>
<clustering>
<clus scale="   76.370">  2  9  1 -1</clus>
<clus scale="   81.479">  5  6 -1 -1</clus>
<clus scale="   91.900">  7  8 -1 -1</clus>
<clus scale="  103.182">  2  5  1 -1</clus>
<clus scale="   76.370">  2  5  1 -1</clus>
</clustering>
</event>
<event>
 9    2  0.3764910E-005  0.2251399E+03  0.7546771E-02  0.1147898E+00
         21   -1    0    0  501  502  0.00000000000E+00  0.00000000000E+00  0.78553049890E+02  0.78553049890E+02  0.00000000000E+00 0. -1.
          2   -1    0    0  502    0 -0.00000000000E+00 -0.00000000000E+00 -0.11516949346E+04  0.11516949346E+04  0.00000000000E+00 0. -1.
         23    2    1    2    0    0  0.15948558020E+02 -0.11464968531E+03 -0.24846189745E+03  0.28842061369E+03  0.89745356832E+02 0.  0.
         24    2    1    2    0    0 -0.10748445991E+03  0.25342336187E+03 -0.47653743178E+03  0.55602924538E+03  0.79399548930E+02 0.  0.
        -13    1    4    4    0    0  0.54742682026E+01  0.42463693913E+02 -0.42101903294E+02  0.60047507642E+02  0.00000000000E+00 0.  1.
         14    1    4    4    0    0 -0.11295872811E+03  0.21095966795E+03 -0.43443552849E+03  0.49598173774E+03  0.00000000000E+00 0. -1.
        -13    1    3    3    0    0  0.44665834498E+02 -0.67936635099E+02 -0.19742107399E+03  0.21350761957E+03  0.00000000000E+00 0.  1.
         13    1    3    3    0    0 -0.28717276478E+02 -0.46713050212E+02 -0.51040823461E+02  0.74912994120E+02  0.00000000000E+00 0. -1.
          1    1    1    2  501    0  0.91535901890E+02 -0.13877367655E+03 -0.34814255547E+03  0.38579812541E+03  0.00000000000E+00 0. -1.
<scales pt_clust_5="13000.00000" pt_clust_6="13000.00000" pt_clust_7="13000.00000" pt_clust_8="13000.00000" pt_clust_9="210.67435"></scales>
<clustering>
<clus scale="   79.400">  5  6 -1 -1</clus>
<clus scale="   89.745">  7  8 -1 -1</clus>
<clus scale="  146.469">  2  7  1 -1</clus>
<clus scale="  210.674">  1  9  2 -1</clus>
<clus scale="  210.674">  1  5  2 -1</clus>
</clustering>
</event>
<event>
 9    2  0.3764910E-005  0.2184172E+03  0.7546771E-02  0.1135069E+00
         21   -1    0    0  501  502  0.00000000000E+00  0.00000000000E+00  0.23150051954E+02  0.23150051954E+02  0.00000000000E+00 0.  1.
         -1   -1    0    0    0  501 -0.00000000000E+00 -0.00000000000E+00 -0.14010916814E+04  0.14010916814E+04  0.00000000000E+00 0.  1.
         24    2    1    2    0    0  0.77819290181E+02  0.78659582907E+00 -0.32704795706E+03  0.34614911704E+03  0.82476568521E+02 0.  0.
         23    2    1    2    0    0  0.32266211314E+02 -0.44656455226E+02 -0.29873587923E+03  0.31665665183E+03  0.89403591770E+02 0.  0.
        -11    1    3    3    0    0  0.68858235223E+02  0.18621959479E+02 -0.13163792825E+03  0.14972233663E+03  0.00000000000E+00 0.  1.
         12    1    3    3    0    0  0.89610549581E+01 -0.17835363650E+02 -0.19541002881E+03  0.19642678041E+03  0.00000000000E+00 0. -1.
        -11    1    4    4    0    0  0.23096456909E+02  0.22695610321E+02 -0.14487672611E+03  0.14845134832E+03  0.00000000000E+00 0. -1.
         11    1    4    4    0    0  0.91697544047E+01 -0.67352065547E+02 -0.15385915312E+03  0.16820530351E+03  0.00000000000E+00 0.  1.
         -2    1    1    2    0  502 -0.11008550149E+03  0.43869859397E+02 -0.75215779311E+03  0.76143596443E+03  0.00000000000E+00 0.  1.
<scales pt_clust_5="13000.00000" pt_clust_6="13000.00000" pt_clust_7="13000.00000" pt_clust_8="13000.00000" pt_clust_9="118.50484"></scales>
<clustering>
<clus scale="   82.477">  5  6 -1 -1</clus>
<clus scale="   89.404">  7  8 -1 -1</clus>
<clus scale="  103.020">  5  7 -1 -1</clus>
<clus scale="  118.505">  1  9  2 -1</clus>
<clus scale="  118.505">  1  5  2 -1</clus>
</clustering>
</event>
<event>
 9    2  0.3764910E-005  0.9305213E+02  0.7546771E-02  0.1303841E+00
          4   -1    0    0  502    0 -0.00000000000E+00  0.00000000000E+00  0.42325542087E+02  0.42325542087E+02  0.00000000000E+00 0. -1.
         21   -1    0    0  501  502  0.00000000000E+00 -0.00000000000E+00 -0.27025123008E+03  0.27025123008E+03  0.00000000000E+00 0.  1.
         24    2    1    2    0    0  0.87982482526E+01 -0.74841338522E+01 -0.38143834219E+02  0.88852438676E+02  0.79412734104E+02 0.  0.
         23    2    1    2    0    0 -0.10585887981E+02 -0.13609246334E+02 -0.13168008647E+03  0.16188630549E+03  0.92575688611E+02 0.  0.
        -13    1    3    3    0    0  0.18885397278E+02 -0.32539551722E+02  0.49976952383E+01  0.37953361041E+02  0.00000000000E+00 0.  1.
         14    1    3    3    0    0 -0.10087149026E+02  0.25055417870E+02 -0.43141529457E+02  0.50899077634E+02  0.00000000000E+00 0. -1.
        -13    1    4    4    0    0  0.44213392705E+01 -0.50775893541E+02 -0.93715441675E+02  0.10667859961E+03  0.00000000000E+00 0.  1.
         13    1    4    4    0    0 -0.15007227251E+02  0.37166647206E+02 -0.37964644798E+02  0.55207705884E+02  0.00000000000E+00 0. -1.
          3    1    1    2  501    0  0.17876397280E+01  0.21093380187E+02 -0.58101767304E+02  0.61838028003E+02  0.00000000000E+00 0. -1.
<scales pt_clust_5="13000.00000" pt_clust_6="13000.00000" pt_clust_7="13000.00000" pt_clust_8="13000.00000" pt_clust_9="21.16899"></scales>
<clustering>
<clus scale="   21.169">  2  9  1 -1</clus>
<clus scale="   79.413">  5  6 -1 -1</clus>
<clus scale="   79.968">  1  5  2 -1</clus>
<clus scale="   92.576">  7  8 -1 -1</clus>
<clus scale="   21.169">  2  5  1 -1</clus>
</clustering>
</event>
<event>
 9    2  0.3764910E-005  0.1206497E+03  0.7546771E-02  0.1260573E+00
         21   -1    0    0  501  502  0.00000000000E+00  0.00000000000E+00  0.84528174021E+03  0.84528174021E+03  0.00000000000E+00 0. -1.
         -3   -1    0    0    0  501 -0.00000000000E+00 -0.00000000000E+00 -0.42505042812E+02  0.42505042812E+02  0.00000000000E+00 0.  1.
         24    2    1    2    0    0 -0.46524404294E+01  0.20255764535E+02  0.56219779430E+03  0.56834461551E+03  0.80729801542E+02 0.  0.
         23    2    1    2    0    0 -0.69039118413E+01  0.69267051110E+02  0.16865447302E+03  0.20402549870E+03  0.91304350838E+02 0.  0.
        -13    1    3    3    0    0 -0.32335369337E+02  0.35891921761E+02  0.25749234411E+03  0.26198494887E+03  0.00000000000E+00 0.  1.
         14    1    3    3    0    0  0.27682928908E+02 -0.15636157226E+02  0.30470545019E+03  0.30635966664E+03  0.00000000000E+00 0. -1.
        -11    1    4    4    0    0 -0.16362755902E+02 -0.12673498933E+02  0.81253077852E+02  0.83847599944E+02  0.00000000000E+00 0. -1.
         11    1    4    4    0    0  0.94588440603E+01  0.81940550042E+02  0.87401395170E+02  0.12017789876E+03  0.00000000000E+00 0.  1.
         -4    1    1    2    0  502  0.11556352271E+02 -0.89522815644E+02  0.71924430074E+02  0.11541666881E+03  0.00000000000E+00 0.  1.
<scales pt_clust_5="13000.00000" pt_clust_6="13000.00000" pt_clust_7="13000.00000" pt_clust_8="13000.00000" pt_clust_9="78.86615"></scales>
<clustering>
<clus scale="   80.730">  5  6 -1 -1</clus>
<clus scale="   83.362">  2  5  1 -1</clus>
<clus scale="   78.866">  1  9  2 -1</clus>
<clus scale="   91.304">  7  8 -1 -1</clus>
<clus scale="   78.866">  1  5  2 -1</clus>
</clustering>
</event>
<event>
 9    2  0.3764910E-005  0.9549126E+02  0.7546771E-02  0.1296932E+00
         21   -1    0    0  501  502  0.00000000000E+00  0.00000000000E+00  0.33970537050E+03  0.33970537050E+03  0.00000000000E+00 0.  1.
         -3   -1    0    0    0  501 -0.00000000000E+00 -0.00000000000E+00 -0.11996355178E+03  0.11996355178E+03  0.00000000000E+00 0.  1.
         23    2    1    2    0    0  0.25370004312E+02 -0.39724184721E+01 -0.84319732931E+02  0.12682168613E+03  0.91183910221E+02 0.  0.
         24    2    1    2    0    0 -0.46496759890E+02  0.20731550996E+02  0.15461039127E+03  0.18098263309E+03  0.79111279249E+02 0.  0.
        -13    1    4    4    0    0 -0.54014396229E+02  0.14823594193E+01  0.47647857572E+02  0.72042145447E+02  0.00000000000E+00 0.  1.
         14    1    4    4    0    0  0.75176363391E+01  0.19249191577E+02  0.10696253370E+03  0.10894048765E+03  0.00000000000E+00 0. -1.
        -11    1    3    3    0    0  0.47364287584E+02 -0.32482874325E+02 -0.61723205613E+02  0.84310538925E+02  0.00000000000E+00 0.  1.
         11    1    3    3    0    0 -0.21994283271E+02  0.28510455853E+02 -0.22596527318E+02  0.42511147201E+02  0.00000000000E+00 0. -1.
         -4    1    1    2    0  502  0.21126755578E+02 -0.16759132524E+02  0.14945116037E+03  0.15186460306E+03  0.00000000000E+00 0.  1.
<scales pt_clust_5="13000.00000" pt_clust_6="13000.00000" pt_clust_7="13000.00000" pt_clust_8="13000.00000" pt_clust_9="26.96680"></scales>
<clustering>
<clus scale="   26.967">  1  9  2 -1</clus>
<clus scale="   79.111">  5  6 -1 -1</clus>
<clus scale="   84.040">  1  5  2 -1</clus>
<clus scale="   91.184">  7  8 -1 -1</clus>
<clus scale="   26.967">  1  5  2 -1</clus>
</clustering>
</event>
<event>
 9    2  0.3764910E-005  0.3054585E+03  0.7546771E-02  0.1082943E+00
          2   -1    0    0  502    0 -0.00000000000E+00  0.00000000000E+00  0.19433195404E+04  0.19433195404E+04  0.00000000000E+00 0. -1.
         21   -1    0    0  501  502  0.00000000000E+00 -0.00000000000E+00 -0.91081509270E+02  0.91081509270E+02  0.00000000000E+00 0. -1.
         23    2    1    2    0    0 -0.13404896386E+03  0.23386982279E+03  0.10956504599E+04  0.11321414880E+04  0.92898868626E+02 0.  0.
         24    2    1    2    0    0  0.15501948323E+03 -0.33226980368E+03  0.49058581917E+03  0.61786678573E+03  0.81551556180E+02 0.  0.
        -11    1    4    4    0    0  0.55092975914E+01 -0.25784328472E+02  0.79467670578E+02  0.83727502183E+02  0.00000000000E+00 0.  1.
         12    1    4    4    0    0  0.14951018563E+03 -0.30648547521E+03  0.41111814859E+03  0.53413928355E+03  0.00000000000E+00 0. -1.
        -13    1    3    3    0    0 -0.55893583376E+02  0.15656888470E+03  0.51470205240E+03  0.54088456353E+03  0.00000000000E+00 0. -1.
         13    1    3    3    0    0 -0.78155380481E+02  0.77300938090E+02  0.58094840754E+03  0.59125692449E+03  0.00000000000E+00 0.  1.
          1    1    1    2  501    0 -0.20970519369E+02  0.98399980890E+02  0.26600175202E+03  0.28439277592E+03  0.00000000000E+00 0. -1.
<scales pt_clust_5="13000.00000" pt_clust_6="13000.00000" pt_clust_7="13000.00000" pt_clust_8="13000.00000" pt_clust_9="100.60979"></scales>
<clustering>
<clus scale="   81.552">  5  6 -1 -1</clus>
<clus scale="   92.899">  7  8 -1 -1</clus>
<clus scale="  100.610">  2  9  1 -1</clus>
<clus scale="  302.201">  2  5  1 -1</clus>
<clus scale="  100.610">  2  5  1 -1</clus>
</clustering>
</event>
<event>
 9    2  0.3764910E-005  0.1653141E+03  0.7546771E-02  0.1185051E+00
          2   -1    0    0  502    0 -0.00000000000E+00  0.00000000000E+00  0.75685188878E+03  0.75685188878E+03  0.00000000000E+00 0. -1.
         21   -1    0    0  501  502  0.00000000000E+00 -0.00000000000E+00 -0.92611561780E+02  0.92611561780E+02  0.00000000000E+00 0. -1.
         24    2    1    2    0    0 -0.65896190623E+02  0.11999011809E+03  0.54221143672E+03  0.56432625486E+03  0.75702994874E+02 0.  0.
         23    2    1    2    0    0  0.10767767464E+03 -0.10500138853E+03  0.23989822163E+02  0.17751743312E+03  0.91198433575E+02 0.  0.
        -13    1    3    3    0    0 -0.54957589542E+02  0.28477199287E+02  0.26745104446E+03  0.27452021549E+03  0.00000000000E+00 0.  1.
         14    1    3    3    0    0 -0.10938601081E+02  0.91512918798E+02  0.27476039226E+03  0.28980603937E+03  0.00000000000E+00 0. -1.
        -13    1    4    4    0    0 -0.27594186114E+01 -0.47843598747E+02 -0.92322717484E+01  0.48804294624E+02  0.00000000000E+00 0. -1.
         13    1    4    4    0    0  0.11043709325E+03 -0.57157789784E+02  0.33222093911E+02  0.12871313850E+03  0.00000000000E+00 0.  1.
          1    1    1    2  501    0 -0.41781484017E+02 -0.14988729555E+02  0.98039068122E+02  0.10761976258E+03  0.00000000000E+00 0. -1.
<scales pt_clust_5="13000.00000" pt_clust_6="13000.00000" pt_clust_7="13000.00000" pt_clust_8="13000.00000" pt_clust_9="44.38870"></scales>
<clustering>
<clus scale="   44.389">  2  9  1 -1</clus>
<clus scale="   75.703">  5  6 -1 -1</clus>
<clus scale="   91.198">  7  8 -1 -1</clus>
<clus scale="  157.298">  1  5  2 -1</clus>
<clus scale="   44.389">  2  5  1 -1</clus>
</clustering>
</event>
<event>
 9    2  0.3764910E-005  0.2384048E+03  0.7546771E-02  0.1131940E+00
         21   -1    0    0  501  502  0.00000000000E+00  0.00000000000E+00  0.25458085208E+03  0.25458085208E+03  0.00000000000E+00 0.  1.
          2   -1    0    0  502    0 -0.00000000000E+00 -0.00000000000E+00 -0.57897841442E+03  0.57897841442E+03  0.00000000000E+00 0. -1.
         23    2    1    2    0    0 -0.14549940356E+03  0.58486156626E+02  0.25101038756E+02  0.18301253956E+03  0.90955046788E+02 0.  0.
         24    2    1    2    0    0  0.32373100193E+03 -0.10726698650E+03 -0.29348772944E+03  0.45745791379E+03  0.82611909298E+02 0.  0.
        -13    1    4    4    0    0  0.26181892201E+03 -0.10701558775E+03 -0.20440799433E+03  0.34897580445E+03  0.00000000000E+00 0.  1.
         14    1    4    4    0    0  0.61912079915E+02 -0.25139875269E+00 -0.89079735103E+02  0.10848210934E+03  0.00000000000E+00 0. -1.
        -13    1    3    3    0    0 -0.29662554790E+02  0.46575889885E+02  0.36215284802E+02  0.66035804898E+02  0.00000000000E+00 0.  1.
         13    1    3    3    0    0 -0.11583684877E+03  0.11910266740E+02 -0.11114246046E+02  0.11697673466E+03  0.00000000000E+00 0. -1.
          1    1    1    2  501    0 -0.17823159836E+03  0.48780829873E+02 -0.56010871659E+02  0.19308881315E+03  0.00000000000E+00 0. -1.
<scales pt_clust_5="13000.00000" pt_clust_6="13000.00000" pt_clust_7="13000.00000" pt_clust_8="13000.00000" pt_clust_9="223.63389"></scales>
<clustering>
<clus scale="   82.612">  5  6 -1 -1</clus>
<clus scale="   90.955">  7  8 -1 -1</clus>
<clus scale="  181.283">  2  7  1 -1</clus>
<clus scale="  223.634">  1  9  2 -1</clus>
<clus scale="  223.634">  1  5  2 -1</clus>
</clustering>
</event>
<event>
 9    2  0.3764910E-005  0.1422414E+03  0.7546771E-02  0.1212370E+00
         21   -1    0    0  501  502  0.00000000000E+00  0.00000000000E+00  0.21256082792E+03  0.21256082792E+03  0.00000000000E+00 0. -1.
          2   -1    0    0  502    0 -0.00000000000E+00 -0.00000000000E+00 -0.13678726578E+04  0.13678726578E+04  0.00000000000E+00 0. -1.
         24    2    1    2    0    0 -0.43541039376E+02 -0.92241130310E+02 -0.85339223984E+03  0.86325231352E+03  0.80758860465E+02 0.  0.
         23    2    1    2    0    0 -0.23445071986E+02  0.15082183496E+03 -0.48346194631E+03  0.51500188241E+03  0.90523963994E+02 0.  0.
        -13    1    3    3    0    0  0.48079423217E+01 -0.34547019661E+02 -0.96209073808E+02  0.10233669313E+03  0.00000000000E+00 0.  1.
         14    1    3    3    0    0 -0.48348981698E+02 -0.57694110649E+02 -0.75718316603E+03  0.76091562039E+03  0.00000000000E+00 0. -1.
        -13    1    4    4    0    0  0.34929856775E+02  0.55750888087E+02 -0.18804580859E+03  0.19922219390E+03  0.00000000000E+00 0.  1.
         13    1    4    4    0    0 -0.58374928761E+02  0.95070946876E+02 -0.29541613772E+03  0.31577968851E+03  0.00000000000E+00 0. -1.
          1    1    1    2  501    0  0.66986111362E+02 -0.58580704652E+02  0.18154235630E+03  0.20217928975E+03  0.00000000000E+00 0. -1.
<scales pt_clust_5="13000.00000" pt_clust_6="13000.00000" pt_clust_7="13000.00000" pt_clust_8="13000.00000" pt_clust_9="88.98785"></scales>
<clustering>
<clus scale="   80.759">  5  6 -1 -1</clus>
<clus scale="   88.988">  1  9  2 -1</clus>
<clus scale="   90.524">  7  8 -1 -1</clus>
<clus scale="  136.235">  2  5  1 -1</clus>
<clus scale="   88.988">  1  5  2 -1</clus>
</clustering>
</event>
<event>
 9    2  0.3764910E-005  0.1125665E+03  0.7546771E-02  0.1262241E+00
          4   -1    0    0  502    0 -0.00000000000E+00  0.00000000000E+00  0.89868501710E+02  0.89868501710E+02  0.00000000000E+00 0. -1.
         21   -1    0    0  501  502  0.00000000000E+00 -0.00000000000E+00 -0.38385425006E+03  0.38385425006E+03  0.00000000000E+00 0.  1.
         24    2    1    2    0    0  0.57158837144E+02 -0.11293339556E+02  0.43742162971E+02  0.10822792622E+03  0.80032712133E+02 0.  0.
         23    2    1    2    0    0 -0.58292149328E+02  0.33755984554E+02 -0.28279714182E+03  0.30613790300E+03  0.95962237686E+02 0.  0.
        -13    1    3    3    0    0  0.24863703600E+02  0.83872550984E+01 -0.20757795415E+02  0.33457971774E+02  0.00000000000E+00 0.  1.
         14    1    3    3    0    0  0.32295133544E+02 -0.19680594655E+02  0.64499958386E+02  0.74769954449E+02  0.00000000000E+00 0. -1.
        -13    1    4    4    0    0 -0.76663364255E+02  0.13811980763E+02 -0.25760649778E+03  0.26912664292E+03  0.00000000000E+00 0.  1.
         13    1    4    4    0    0  0.18371214928E+02  0.19944003791E+02 -0.25190644045E+02  0.37011260077E+02  0.00000000000E+00 0. -1.
          3    1    1    2  501    0  0.11333121841E+01 -0.22462644998E+02 -0.54930769501E+02  0.59356922552E+02  0.00000000000E+00 0. -1.
<scales pt_clust_5="13000.00000" pt_clust_6="13000.00000" pt_clust_7="13000.00000" pt_clust_8="13000.00000" pt_clust_9="22.49122"></scales>
<clustering>
<clus scale="   22.491">  2  9  1 -1</clus>
<clus scale="   80.033">  5  6 -1 -1</clus>
<clus scale="   95.962">  7  8 -1 -1</clus>
<clus scale="   99.336">  1  5  2 -1</clus>
<clus scale="   22.491">  2  5  1 -1</clus>
</clustering>
</event>
<event>
 9    2  0.3764910E-005  0.1141690E+03  0.7546771E-02  0.1254674E+00
          2   -1    0    0  502    0 -0.00000000000E+00  0.00000000000E+00  0.35463494288E+03  0.35463494288E+03  0.00000000000E+00 0. -1.
         21   -1    0    0  501  502  0.00000000000E+00 -0.00000000000E+00 -0.70526139874E+02  0.70526139874E+02  0.00000000000E+00 0.  1.
         24    2    1    2    0    0  0.70429427795E+00 -0.67787349798E+02  0.24588245082E+03  0.26892315212E+03  0.85240021723E+02 0.  0.
         23    2    1    2    0    0  0.22920913150E+02  0.79335120431E+02  0.43145547819E+02  0.12948536218E+03  0.89919359038E+02 0.  0.
        -11    1    3    3    0    0 -0.36501899219E+02 -0.24312969188E+02  0.59253748093E+02  0.73719168337E+02  0.00000000000E+00 0.  1.
         12    1    3    3    0    0  0.37206193497E+02 -0.43474380610E+02  0.18662870273E+03  0.19520398379E+03  0.00000000000E+00 0. -1.
        -13    1    4    4    0    0  0.50284725334E+02  0.29149099943E+02  0.43041046677E+02  0.72323960957E+02  0.00000000000E+00 0. -1.
         13    1    4    4    0    0 -0.27363812185E+02  0.50186020488E+02  0.10450114184E+00  0.57161401226E+02  0.00000000000E+00 0.  1.
          1    1    1    2  501    0 -0.23625207428E+02 -0.11547770633E+02 -0.49191956369E+01  0.26752568443E+02  0.00000000000E+00 0. -1.
<scales pt_clust_5="13000.00000" pt_clust_6="13000.00000" pt_clust_7="13000.00000" pt_clust_8="13000.00000" pt_clust_9="26.29641"></scales>
<clustering>
<clus scale="   26.296">  2  9  1 -1</clus>
<clus scale="   85.240">  5  6 -1 -1</clus>
<clus scale="   89.919">  7  8 -1 -1</clus>
<clus scale="  110.521">  1  5  2 -1</clus>
<clus scale="   26.296">  2  5  1 -1</clus>
</clustering>
</event>
<event>
 9    2  0.3764910E-005  0.2158579E+03  0.7546771E-02  0.1171148E+00
         21   -1    0    0  501  502  0.00000000000E+00  0.00000000000E+00  0.88204167275E+02  0.88204167275E+02  0.00000000000E+00 0. -1.
          2   -1    0    0  502    0 -0.00000000000E+00 -0.00000000000E+00 -0.10642343024E+04  0.10642343024E+04  0.00000000000E+00 0. -1.
         24    2    1    2    0    0  0.46108108895E+02  0.28663776277E+02 -0.29990964716E+03  0.31510690943E+03  0.79993738068E+02 0.  0.
         23    2    1    2    0    0  0.55653505518E+02 -0.19141049474E+03 -0.12103659758E+03  0.24999856620E+03  0.90078493394E+02 0.  0.
        -13    1    3    3    0    0 -0.16644588682E+01  0.45517145378E+02 -0.15759227303E+03  0.16404238923E+03  0.00000000000E+00 0.  1.
         14    1    3    3    0    0  0.47772567763E+02 -0.16853369101E+02 -0.14231737414E+03  0.15106452019E+03  0.00000000000E+00 0. -1.
        -11    1    4    4    0    0  0.21537488345E+02 -0.35722400518E+02  0.10877006882E+02  0.43107569889E+02  0.00000000000E+00 0.  1.
         11    1    4    4    0    0  0.34116017173E+02 -0.15568809423E+03 -0.13191360446E+03  0.20689099631E+03  0.00000000000E+00 0. -1.
          1    1    1    2  501    0 -0.10176161441E+03  0.16274671847E+03 -0.55508389039E+03  0.58733299406E+03  0.00000000000E+00 0. -1.
<scales pt_clust_5="13000.00000" pt_clust_6="13000.00000" pt_clust_7="13000.00000" pt_clust_8="13000.00000" pt_clust_9="196.16455"></scales>
<clustering>
<clus scale="   79.994">  5  6 -1 -1</clus>
<clus scale="   90.078">  7  8 -1 -1</clus>
<clus scale="   96.678">  2  5  1 -1</clus>
<clus scale="  196.165">  1  9  2 -1</clus>
<clus scale="  196.165">  1  5  2 -1</clus>
</clustering>
</event>
<event>
 9    2  0.3764910E-005  0.1447111E+03  0.7546771E-02  0.1226694E+00
         -1   -1    0    0    0  501 -0.00000000000E+00  0.00000000000E+00  0.25172429998E+03  0.25172429998E+03  0.00000000000E+00 0.  1.
         21   -1    0    0  501  502  0.00000000000E+00 -0.00000000000E+00 -0.14186141875E+03  0.14186141875E+03  0.00000000000E+00 0.  1.
         23    2    1    2    0    0 -0.18090820903E+01 -0.31306440934E+02  0.58688593797E+02  0.11230337001E+03  0.90467286085E+02 0.  0.
         24    2    1    2    0    0 -0.30689633935E+02  0.13762565868E+03  0.52359385587E+02  0.17010075374E+03  0.79436047275E+02 0.  0.
        -13    1    4    4    0    0 -0.42325960728E+02  0.13756910476E+03  0.60256999368E+02  0.15603734011E+03  0.00000000000E+00 0.  1.
         14    1    4    4    0    0  0.11636326792E+02  0.56553920241E-01 -0.78976137809E+01  0.14063413633E+02  0.00000000000E+00 0. -1.
        -11    1    3    3    0    0 -0.28143259463E+02  0.13665340911E+02  0.50705830869E+02  0.59580750915E+02  0.00000000000E+00 0. -1.
         11    1    3    3    0    0  0.26334177373E+02 -0.44971781845E+02  0.79827629278E+01  0.52722619095E+02  0.00000000000E+00 0.  1.
         -2    1    1    2    0  502  0.32498716026E+02 -0.10631921774E+03 -0.11850981553E+01  0.11118159498E+03  0.00000000000E+00 0.  1.
<scales pt_clust_5="13000.00000" pt_clust_6="13000.00000" pt_clust_7="13000.00000" pt_clust_8="13000.00000" pt_clust_9="120.95951"></scales>
<clustering>
<clus scale="   79.436">  5  6 -1 -1</clus>
<clus scale="   90.467">  7  8 -1 -1</clus>
<clus scale="   95.748">  1  7  2 -1</clus>
<clus scale="  120.960">  2  9  1 -1</clus>
<clus scale="  120.960">  2  5  1 -1</clus>
</clustering>
</event>
<event>
 9    2  0.3764910E-005  0.1269891E+03  0.7546771E-02  0.1245664E+00
         21   -1    0    0  501  502  0.00000000000E+00  0.00000000000E+00  0.35173418705E+02  0.35173418705E+02  0.00000000000E+00 0. -1.
          2   -1    0    0  502    0 -0.00000000000E+00 -0.00000000000E+00 -0.72546331144E+03  0.72546331144E+03  0.00000000000E+00 0. -1.
         24    2    1    2    0    0 -0.20817891436E+02 -0.47902986105E+02 -0.18690066575E+03  0.21018189675E+03  0.80724780487E+02 0.  0.
         23    2    1    2    0    0  0.18934198758E+02 -0.61034330924E+02 -0.30062924068E+03  0.32027555677E+03  0.90082176245E+02 0.  0.
        -13    1    3    3    0    0  0.18965780404E+02 -0.13143382768E+02 -0.13195959096E+03  0.13396187138E+03  0.00000000000E+00 0.  1.
         14    1    3    3    0    0 -0.39783671840E+02 -0.34759603337E+02 -0.54941074782E+02  0.76220025370E+02  0.00000000000E+00 0. -1.
        -11    1    4    4    0    0 -0.35548328197E+02 -0.35433040900E+02 -0.13155638187E+03  0.14080577273E+03  0.00000000000E+00 0.  1.
         11    1    4    4    0    0  0.54482526955E+02 -0.25601290024E+02 -0.16907285881E+03  0.17946978403E+03  0.00000000000E+00 0. -1.
          1    1    1    2  501    0  0.18836926779E+01  0.10893731703E+03 -0.20275998631E+03  0.23017927663E+03  0.00000000000E+00 0. -1.
<scales pt_clust_5="13000.00000" pt_clust_6="13000.00000" pt_clust_7="13000.00000" pt_clust_8="13000.00000" pt_clust_9="89.50663"></scales>
<clustering>
<clus scale="   80.725">  5  6 -1 -1</clus>
<clus scale="   90.082">  7  8 -1 -1</clus>
<clus scale="   96.149">  2  5  1 -1</clus>
<clus scale="   89.507">  1  9  2 -1</clus>
<clus scale="   89.507">  1  5  2 -1</clus>
</clustering>
</event>
<event>
 9    2  0.3764910E-005  0.1009797E+03  0.7546771E-02  0.1288367E+00
         21   -1    0    0  501  502  0.00000000000E+00  0.00000000000E+00  0.19742695769E+03  0.19742695769E+03  0.00000000000E+00 0.  1.
          4   -1    0    0  502    0 -0.00000000000E+00 -0.00000000000E+00 -0.37529375219E+03  0.37529375219E+03  0.00000000000E+00 0. -1.
         23    2    1    2    0    0  0.25146118853E+02 -0.15672959865E+02 -0.32751096780E+03  0.34285023867E+03  0.96978776859E+02 0.  0.
         24    2    1    2    0    0  0.14824086484E+02  0.11750850406E+02  0.16748290053E+03  0.18592481789E+03  0.78483628315E+02 0.  0.
        -11    1    4    4    0    0  0.23016466637E+02  0.33920267026E+02  0.15256473796E+03  0.15797576245E+03  0.00000000000E+00 0.  1.
         12    1    4    4    0    0 -0.81923801532E+01 -0.22169416620E+02  0.14918162564E+02  0.27949055442E+02  0.00000000000E+00 0. -1.
        -13    1    3    3    0    0 -0.30301202467E+02  0.58884821741E+01 -0.47931094541E+02  0.57010761415E+02  0.00000000000E+00 0.  1.
         13    1    3    3    0    0  0.55447321320E+02 -0.21561442039E+02 -0.27957987326E+03  0.28583947725E+03  0.00000000000E+00 0. -1.
          3    1    1    2  501    0 -0.39970205336E+02  0.39221094585E+01 -0.17838727230E+02  0.43945653328E+02  0.00000000000E+00 0. -1.
<scales pt_clust_5="13000.00000" pt_clust_6="13000.00000" pt_clust_7="13000.00000" pt_clust_8="13000.00000" pt_clust_9="40.16219"></scales>
<clustering>
<clus scale="   40.162">  1  9  2 -1</clus>
<clus scale="   78.484">  5  6 -1 -1</clus>
<clus scale="   83.377">  1  5  2 -1</clus>
<clus scale="   96.979">  7  8 -1 -1</clus>
<clus scale="   40.162">  1  5  2 -1</clus>
</clustering>
</event>
<event>
 9    2  0.3764910E-005  0.9659745E+02  0.7546771E-02  0.1295235E+00
          4   -1    0    0  502    0 -0.00000000000E+00  0.00000000000E+00  0.10003422584E+03  0.10003422584E+03  0.00000000000E+00 0. -1.
         21   -1    0    0  501  502  0.00000000000E+00 -0.00000000000E+00 -0.51823428910E+03  0.51823428910E+03  0.00000000000E+00 0. -1.
         23    2    1    2    0    0  0.41906616935E+02  0.67099417315E+01  0.48844986169E+02  0.11303823601E+03  0.92685609803E+02 0.  0.
         24    2    1    2    0    0  0.38768293551E+02 -0.56441756502E+01 -0.12067124243E+03  0.14958383763E+03  0.79239752816E+02 0.  0.
        -11    1    4    4    0    0 -0.90440016826E+01 -0.32357900162E+02 -0.44043516277E+02  0.55395478113E+02  0.00000000000E+00 0.  1.
         12    1    4    4    0    0  0.47812295234E+02  0.26713724512E+02 -0.76627726151E+02  0.94188359513E+02  0.00000000000E+00 0. -1.
        -13    1    3    3    0    0  0.23684752682E+02  0.47216995528E+02  0.43248114200E+02  0.68270136650E+02  0.00000000000E+00 0.  1.
         13    1    3    3    0    0  0.18221864253E+02 -0.40507053797E+02  0.55968719686E+01  0.44768099356E+02  0.00000000000E+00 0. -1.
          3    1    1    2  501    0 -0.80674910486E+02 -0.10657660813E+01 -0.34637380701E+03  0.35564644131E+03  0.00000000000E+00 0. -1.
<scales pt_clust_5="13000.00000" pt_clust_6="13000.00000" pt_clust_7="13000.00000" pt_clust_8="13000.00000" pt_clust_9="80.68195"></scales>
<clustering>
<clus scale="   79.240">  5  6 -1 -1</clus>
<clus scale="   80.682">  2  9  1 -1</clus>
<clus scale="   83.782">  2  5  1 -1</clus>
<clus scale="   92.686">  7  8 -1 -1</clus>
<clus scale="   80.682">  2  5  1 -1</clus>
</clustering>
</event>
<event>
 9    2  0.3764910E-005  0.1436290E+03  0.7546771E-02  0.1210529E+00
         21   -1    0    0  501  502  0.00000000000E+00  0.00000000000E+00  0.68697283757E+02  0.68697283757E+02  0.00000000000E+00 0.  1.
         -1   -1    0    0    0  501 -0.00000000000E+00 -0.00000000000E+00 -0.41339958928E+03  0.41339958928E+03  0.00000000000E+00 0.  1.
         23    2    1    2    0    0 -0.45279160902E+02 -0.10421239476E+03 -0.24043104528E+03  0.28106132076E+03  0.90983255911E+02 0.  0.
         24    2    1    2    0    0  0.62135933781E+02  0.89057389690E+02 -0.11325673574E+03  0.17665187453E+03  0.81158509467E+02 0.  0.
        -13    1    4    4    0    0  0.60888706823E+02  0.17726263445E+02 -0.43713946972E+02  0.77023140641E+02  0.00000000000E+00 0.  1.
         14    1    4    4    0    0  0.12472269581E+01  0.71331126246E+02 -0.69542788767E+02  0.99628733888E+02  0.00000000000E+00 0. -1.
        -13    1    3    3    0    0 -0.40267588733E+02 -0.13443293335E+02 -0.13666399860E+03  0.14310572788E+03  0.00000000000E+00 0. -1.
         13    1    3    3    0    0 -0.50115721691E+01 -0.90769101429E+02 -0.10376704668E+03  0.13795559288E+03  0.00000000000E+00 0.  1.
         -2    1    1    2    0  502 -0.16856772880E+02  0.15155005074E+02  0.89854754984E+01  0.24383677750E+02  0.00000000000E+00 0.  1.
<scales pt_clust_5="13000.00000" pt_clust_6="13000.00000" pt_clust_7="13000.00000" pt_clust_8="13000.00000" pt_clust_9="22.66771"></scales>
<clustering>
<clus scale="   22.668">  1  9  2 -1</clus>
<clus scale="   81.159">  5  6 -1 -1</clus>
<clus scale="   90.983">  7  8 -1 -1</clus>
<clus scale="  137.616">  1  5  2 -1</clus>
<clus scale="   22.668">  1  5  2 -1</clus>
</clustering>
</event>
<event>
 9    2  0.3764910E-005  0.1379629E+03  0.7546771E-02  0.1231228E+00
         21   -1    0    0  501  502  0.00000000000E+00  0.00000000000E+00  0.29074321876E+03  0.29074321876E+03  0.00000000000E+00 0.  1.
          2   -1    0    0  502    0 -0.00000000000E+00 -0.00000000000E+00 -0.10811563023E+03  0.10811563023E+03  0.00000000000E+00 0. -1.
         23    2    1    2    0    0 -0.36150977205E+02 -0.25150005823E+02  0.66016174499E+02  0.12033068622E+03  0.90453981703E+02 0.  0.
         24    2    1    2    0    0  0.45985826189E+02 -0.83213571154E+02  0.21522706673E+02  0.13402469797E+03  0.91979335341E+02 0.  0.
        -11    1    4    4    0    0  0.14506987978E+02 -0.96718673864E+02  0.19394771590E+02  0.99705123937E+02  0.00000000000E+00 0.  1.
         12    1    4    4    0    0  0.31478838211E+02  0.13505102710E+02  0.21279350825E+01  0.34319574036E+02  0.00000000000E+00 0. -1.
        -13    1    3    3    0    0 -0.59479012979E+01 -0.46461829807E+02  0.68832339500E+02  0.83258453744E+02  0.00000000000E+00 0.  1.
         13    1    3    3    0    0 -0.30203075907E+02  0.21311823983E+02 -0.28161650007E+01  0.37072232480E+02  0.00000000000E+00 0. -1.
          1    1    1    2  501    0 -0.98348489837E+01  0.10836357698E+03  0.95088707363E+02  0.14450346480E+03  0.00000000000E+00 0. -1.
<scales pt_clust_5="13000.00000" pt_clust_6="13000.00000" pt_clust_7="13000.00000" pt_clust_8="13000.00000" pt_clust_9="102.82782"></scales>
<clustering>
<clus scale="   90.454">  7  8 -1 -1</clus>
<clus scale="   91.979">  5  6 -1 -1</clus>
<clus scale="  100.605">  2  7  1 -1</clus>
<clus scale="  102.828">  1  9  2 -1</clus>
<clus scale="  102.828">  1  5  2 -1</clus>
</clustering>
</event>
<event>
 9    2  0.3764910E-005  0.1000691E+03  0.7546771E-02  0.1285500E+00
          4   -1    0    0  502    0 -0.00000000000E+00  0.00000000000E+00  0.45257761955E+03  0.45257761955E+03  0.00000000000E+00 0. -1.
         21   -1    0    0  501  502  0.00000000000E+00 -0.00000000000E+00 -0.43218420951E+02  0.43218420951E+02  0.00000000000E+00 0.  1.
         24    2    1    2    0    0 -0.62496774489E+01  0.59389904254E+02  0.25387886468E+03  0.27290558564E+03  0.80353976533E+02 0.  0.
         23    2    1    2    0    0 -0.58895833233E+01 -0.16942106797E+02  0.15264357622E+03  0.17864992644E+03  0.91071470176E+02 0.  0.
        -11    1    3    3    0    0  0.20251312243E+02  0.68771703785E+02  0.17235146219E+03  0.18666732282E+03  0.00000000000E+00 0.  1.
         12    1    3    3    0    0 -0.26500989692E+02 -0.93817995310E+01  0.81527402487E+02  0.86238262815E+02  0.00000000000E+00 0. -1.
        -11    1    4    4    0    0 -0.45177832329E+02 -0.19757659918E+02  0.11029133368E+03  0.12081216803E+03  0.00000000000E+00 0. -1.
         11    1    4    4    0    0  0.39288249006E+02  0.28155531216E+01  0.42352242545E+02  0.57837758410E+02  0.00000000000E+00 0.  1.
          3    1    1    2  501    0  0.12139260772E+02 -0.42447797458E+02  0.28367576952E+01  0.44240528425E+02  0.00000000000E+00 0. -1.
<scales pt_clust_5="13000.00000" pt_clust_6="13000.00000" pt_clust_7="13000.00000" pt_clust_8="13000.00000" pt_clust_9="44.14949"></scales>
<clustering>
<clus scale="   44.149">  2  9  1 -1</clus>
<clus scale="   80.354">  5  6 -1 -1</clus>
<clus scale="   90.424">  1  5  2 -1</clus>
<clus scale="   91.071">  7  8 -1 -1</clus>
<clus scale="   44.149">  2  5  1 -1</clus>
</clustering>
</event>
<event>
 9    2  0.3764910E-005  0.9957574E+02  0.7546771E-02  0.1286068E+00
         -1   -1    0    0    0  501 -0.00000000000E+00  0.00000000000E+00  0.46142426447E+02  0.46142426447E+02  0.00000000000E+00 0.  1.
         21   -1    0    0  501  502  0.00000000000E+00 -0.00000000000E+00 -0.57931768766E+03  0.57931768766E+03  0.00000000000E+00 0. -1.
         24    2    1    2    0    0 -0.34433751484E+02 -0.26614060206E+02 -0.31418217250E+02  0.97385334886E+02  0.81257662000E+02 0.  0.
         23    2    1    2    0    0 -0.15779503812E+02  0.50037987125E+02 -0.38112654598E+03  0.39532777020E+03  0.90960480138E+02 0.  0.
        -11    1    3    3    0    0  0.78630884230E+01 -0.29172186417E+02  0.15672459853E+02  0.34036313222E+02  0.00000000000E+00 0.  1.
         12    1    3    3    0    0 -0.42296839907E+02  0.25581262107E+01 -0.47090677103E+02  0.63349021664E+02  0.00000000000E+00 0. -1.
        -11    1    4    4    0    0  0.34505159575E+02  0.34735350410E+02 -0.23471930448E+03  0.23977135463E+03  0.00000000000E+00 0.  1.
         11    1    4    4    0    0 -0.50284663387E+02  0.15302636715E+02 -0.14640724150E+03  0.15555641557E+03  0.00000000000E+00 0. -1.
         -2    1    1    2    0  502  0.50213255296E+02 -0.23423926918E+02 -0.12063049799E+03  0.13274700903E+03  0.00000000000E+00 0.  1.
<scales pt_clust_5="13000.00000" pt_clust_6="13000.00000" pt_clust_7="13000.00000" pt_clust_8="13000.00000" pt_clust_9="55.40804"></scales>
<clustering>
<clus scale="   55.408">  2  9  1 -1</clus>
<clus scale="   81.258">  5  6 -1 -1</clus>
<clus scale="   90.798">  1  5  2 -1</clus>
<clus scale="   90.960">  7  8 -1 -1</clus>
<clus scale="   55.408">  2  5  1 -1</clus>
</clustering>
</event>
<event>
 9    2  0.3764910E-005  0.9915128E+02  0.7546771E-02  0.1287961E+00
         21   -1    0    0  501  502  0.00000000000E+00  0.00000000000E+00  0.16445572442E+02  0.16445572442E+02  0.00000000000E+00 0. -1.
         -1   -1    0    0    0  501 -0.00000000000E+00 -0.00000000000E+00 -0.11456769940E+04  0.11456769940E+04  0.00000000000E+00 0.  1.
         23    2    1    2    0    0 -0.24784287509E+01 -0.20075125729E+02 -0.41004988336E+03  0.42090023130E+03  0.92773620084E+02 0.  0.
         24    2    1    2    0    0  0.71253493956E+02  0.52069571011E+01 -0.40555329489E+03  0.41979777629E+03  0.81563013545E+02 0.  0.
        -13    1    4    4    0    0  0.11510468623E+02  0.35762232643E+02 -0.20215323903E+03  0.20561459146E+03  0.00000000000E+00 0.  1.
         14    1    4    4    0    0  0.59743025333E+02 -0.30555275542E+02 -0.20340005587E+03  0.21418318483E+03  0.00000000000E+00 0. -1.
        -11    1    3    3    0    0 -0.33093694049E+02 -0.44638203999E+02 -0.25123812605E+03  0.25730984789E+03  0.00000000000E+00 0.  1.
         11    1    3    3    0    0  0.30615265298E+02  0.24563078270E+02 -0.15881175731E+03  0.16359038341E+03  0.00000000000E+00 0. -1.
         -2    1    1    2    0  502 -0.68775065205E+02  0.14868168628E+02 -0.31362824334E+03  0.32142455888E+03  0.00000000000E+00 0.  1.
<scales pt_clust_5="13000.00000" pt_clust_6="13000.00000" pt_clust_7="13000.00000" pt_clust_8="13000.00000" pt_clust_9="70.36389"></scales>
<clustering>
<clus scale="   70.364">  1  9  2 -1</clus>
<clus scale="   81.563">  5  6 -1 -1</clus>
<clus scale="   88.750">  1  5  2 -1</clus>
<clus scale="   92.774">  7  8 -1 -1</clus>
<clus scale="   70.364">  1  5  2 -1</clus>
</clustering>
</event>
<event>
 9    2  0.3764910E-005  0.9520927E+02  0.7546771E-02  0.1296468E+00
          2   -1    0    0  502    0 -0.00000000000E+00  0.00000000000E+00  0.99113891402E+03  0.99113891402E+03  0.00000000000E+00 0. -1.
         21   -1    0    0  501  502  0.00000000000E+00 -0.00000000000E+00 -0.15168721268E+02  0.15168721268E+02  0.00000000000E+00 0. -1.
         24    2    1    2    0    0  0.38700007580E+01 -0.24756407486E+02  0.58914483002E+03  0.59515075929E+03  0.80529118472E+02 0.  0.
         23    2    1    2    0    0 -0.37454436017E+02  0.27700209674E+02  0.32631967458E+03  0.34189275426E+03  0.90752349827E+02 0.  0.
        -13    1    3    3    0    0  0.17307577663E+02 -0.24269606454E+02  0.73281668414E+02  0.79112381885E+02  0.00000000000E+00 0.  1.
         14    1    3    3    0    0 -0.13437576905E+02 -0.48680103144E+00  0.51586316161E+03  0.51603837740E+03  0.00000000000E+00 0. -1.
        -11    1    4    4    0    0 -0.49772549198E+01 -0.30469441934E+02  0.61406354330E+02  0.68730635894E+02  0.00000000000E+00 0.  1.
         11    1    4    4    0    0 -0.32477181097E+02  0.58169651608E+02  0.26491332025E+03  0.27316211836E+03  0.00000000000E+00 0. -1.
          1    1    1    2  501    0  0.33584435259E+02 -0.29438021885E+01  0.60505688155E+02  0.69264121752E+02  0.00000000000E+00 0. -1.
<scales pt_clust_5="13000.00000" pt_clust_6="13000.00000" pt_clust_7="13000.00000" pt_clust_8="13000.00000" pt_clust_9="33.71321"></scales>
<clustering>
<clus scale="   33.713">  2  9  1 -1</clus>
<clus scale="   80.529">  5  6 -1 -1</clus>
<clus scale="   85.520">  1  5  2 -1</clus>
<clus scale="   90.752">  7  8 -1 -1</clus>
<clus scale="   33.713">  2  5  1 -1</clus>
</clustering>
</event>
<event>
 9    2  0.6947711E-005  0.1110728E+03  0.7546771E-02  0.1262544E+00
         21   -1    0    0  501  502  0.00000000000E+00  0.00000000000E+00  0.96228440129E+02  0.96228440129E+02  0.00000000000E+00 0. -1.
          2   -1    0    0  502    0 -0.00000000000E+00 -0.00000000000E+00 -0.95514490252E+03  0.95514490252E+03  0.00000000000E+00 0. -1.
         24    2    1    2    0    0  0.33711814632E+01  0.53946469622E+02 -0.85165232451E+03  0.85914587035E+03  0.99490493297E+02 0.  0.
         23    2    1    2    0    0 -0.34490455227E+02 -0.12914022884E+02 -0.63281388270E+02  0.11613540158E+03  0.90147290090E+02 0.  0.
        -11    1    3    3    0    0 -0.21948345024E+02  0.24899831084E+02 -0.81084680608E+02  0.87615391722E+02  0.00000000000E+00 0.  1.
         12    1    3    3    0    0  0.25319526487E+02  0.29046638538E+02 -0.77056764390E+03  0.77153047863E+03  0.00000000000E+00 0. -1.
        -11    1    4    4    0    0  0.10699100010E+02 -0.37680114213E+02 -0.69355331905E+01  0.39778931216E+02  0.00000000000E+00 0.  1.
         11    1    4    4    0    0 -0.45189555237E+02  0.24766091329E+02 -0.56345855079E+02  0.76356470366E+02  0.00000000000E+00 0. -1.
          1    1    1    2  501    0  0.31119273764E+02 -0.41032446738E+02  0.56017250386E+02  0.76092070715E+02  0.00000000000E+00 0. -1.
<scales pt_clust_5="13000.00000" pt_clust_6="13000.00000" pt_clust_7="13000.00000" pt_clust_8="13000.00000" pt_clust_9="51.49826"></scales>
<clustering>
<clus scale="   51.498">  1  9  2 -1</clus>
<clus scale="   90.147">  7  8 -1 -1</clus>
<clus scale="   99.490">  5  6 -1 -1</clus>
<clus scale="  102.788">  1  7  2 -1</clus>
<clus scale="   51.498">  1  5  2 -1</clus>
</clustering>
</event>
<event>
 9    2  0.3764910E-005  0.1049676E+03  0.7546771E-02  0.1276399E+00
         -1   -1    0    0    0  501 -0.00000000000E+00  0.00000000000E+00  0.56614676112E+03  0.56614676112E+03  0.00000000000E+00 0.  1.
         21   -1    0    0  501  502  0.00000000000E+00 -0.00000000000E+00 -0.33899459611E+02  0.33899459611E+02  0.00000000000E+00 0.  1.
         23    2    1    2    0    0 -0.17284370845E+02 -0.48646341180E+02  0.36315883110E+03  0.37810931617E+03  0.91744767596E+02 0.  0.
         24    2    1    2    0    0 -0.15845935662E+02  0.54409648569E+02  0.16054253435E+03  0.18724013318E+03  0.77932397636E+02 0.  0.
        -11    1    4    4    0    0 -0.47353486761E+02  0.37548036560E+02  0.95135545912E+02  0.11270749688E+03  0.00000000000E+00 0.  1.
         12    1    4    4    0    0  0.31507551099E+02  0.16861612008E+02  0.65406988442E+02  0.74532636293E+02  0.00000000000E+00 0. -1.
        -11    1    3    3    0    0  0.10417007282E+02  0.23405513840E+02  0.13012191847E+03  0.13261992982E+03  0.00000000000E+00 0.  1.
         11    1    3    3    0    0 -0.27701378127E+02 -0.72051855020E+02  0.23303691264E+03  0.24548938636E+03  0.00000000000E+00 0. -1.
         -2    1    1    2    0  502  0.33130306507E+02 -0.57633073885E+01  0.85459360508E+01  0.34696771381E+02  0.00000000000E+00 0.  1.
<scales pt_clust_5="13000.00000" pt_clust_6="13000.00000" pt_clust_7="13000.00000" pt_clust_8="13000.00000" pt_clust_9="33.62786"></scales>
<clustering>
<clus scale="   33.628">  2  9  1 -1</clus>
<clus scale="   77.932">  5  6 -1 -1</clus>
<clus scale="   91.745">  7  8 -1 -1</clus>
<clus scale="   93.137">  2  5  1 -1</clus>
<clus scale="   33.628">  2  5  1 -1</clus>
</clustering>
</event>
<event>
 9    2  0.3764910E-005  0.9443206E+02  0.7546771E-02  0.1298222E+00
          2   -1    0    0  502    0 -0.00000000000E+00  0.00000000000E+00  0.17582665240E+03  0.17582665240E+03  0.00000000000E+00 0. -1.
         21   -1    0    0  501  502  0.00000000000E+00 -0.00000000000E+00 -0.16049690643E+03  0.16049690643E+03  0.00000000000E+00 0.  1.
         23    2    1    2    0    0  0.23613768952E+02 -0.57600741396E+01  0.11924634028E+03  0.15152278026E+03  0.90270010130E+02 0.  0.
         24    2    1    2    0    0 -0.57674336371E+02 -0.16775430627E+02 -0.10336830275E+03  0.14395629484E+03  0.80191425117E+02 0.  0.
        -11    1    4    4    0    0 -0.63275554556E+02 -0.19125596230E+02 -0.11396143286E+03  0.13174517986E+03  0.00000000000E+00 0.  1.
         12    1    4    4    0    0  0.56012181855E+01  0.23501656028E+01  0.10593130113E+02  0.12211114983E+02  0.00000000000E+00 0. -1.
        -11    1    3    3    0    0 -0.12485153364E+02 -0.25238810844E+02  0.30786795881E+01  0.28325869719E+02  0.00000000000E+00 0.  1.
         11    1    3    3    0    0  0.36098922316E+02  0.19478736704E+02  0.11616766069E+03  0.12319691054E+03  0.00000000000E+00 0. -1.
          1    1    1    2  501    0  0.34060567419E+02  0.22535504767E+02 -0.54829156184E+00  0.40844483736E+02  0.00000000000E+00 0. -1.
<scales pt_clust_5="13000.00000" pt_clust_6="13000.00000" pt_clust_7="13000.00000" pt_clust_8="13000.00000" pt_clust_9="40.84080"></scales>
<clustering>
<clus scale="   40.841">  2  9  1 -1</clus>
<clus scale="   80.191">  5  6 -1 -1</clus>
<clus scale="   84.849">  2  5  1 -1</clus>
<clus scale="   90.270">  7  8 -1 -1</clus>
<clus scale="   40.841">  2  5  1 -1</clus>
</clustering>
</event>
<event>
 9    2  0.3764910E-005  0.2686380E+03  0.7546771E-02  0.1102365E+00
         21   -1    0    0  501  502  0.00000000000E+00  0.00000000000E+00  0.44106456534E+03  0.44106456534E+03  0.00000000000E+00 0. -1.
          2   -1    0    0  502    0 -0.00000000000E+00 -0.00000000000E+00 -0.25019652928E+03  0.25019652928E+03  0.00000000000E+00 0. -1.
         24    2    1    2    0    0 -0.24679736753E+03 -0.37504976775E+02 -0.18271759738E+02  0.26304076142E+03  0.80876579186E+02 0.  0.
         23    2    1    2    0    0  0.25464049083E+03  0.81022678639E+02  0.24369758622E+03  0.37209951856E+03  0.87539043622E+02 0.  0.
        -11    1    3    3    0    0 -0.12555172871E+02 -0.24660139539E+02 -0.45677148999E+01  0.28046726499E+02  0.00000000000E+00 0.  1.
         12    1    3    3    0    0 -0.23424219466E+03 -0.12844837235E+02 -0.13704044839E+02  0.23499403492E+03  0.00000000000E+00 0. -1.
        -11    1    4    4    0    0  0.25773364942E+02  0.29874911692E+02  0.69677976364E+02  0.80073697799E+02  0.00000000000E+00 0.  1.
         11    1    4    4    0    0  0.22886712589E+03  0.51147766947E+02  0.17401960985E+03  0.29202582076E+03  0.00000000000E+00 0. -1.
          1    1    1    2  501    0 -0.78431232952E+01 -0.43517701864E+02 -0.34557790417E+02  0.56120814651E+02  0.00000000000E+00 0. -1.
<scales pt_clust_5="13000.00000" pt_clust_6="13000.00000" pt_clust_7="13000.00000" pt_clust_8="13000.00000" pt_clust_9="44.21885"></scales>
<clustering>
<clus scale="   44.219">  1  9  2 -1</clus>
<clus scale="   80.877">  5  6 -1 -1</clus>
<clus scale="   87.539">  7  8 -1 -1</clus>
<clus scale="  266.541">  2  5  1 -1</clus>
<clus scale="   44.219">  1  5  2 -1</clus>
</clustering>
</event>
<event>
 9    2  0.3764910E-005  0.1297755E+03  0.7546771E-02  0.1230307E+00
         21   -1    0    0  501  502  0.00000000000E+00  0.00000000000E+00  0.64137522931E+02  0.64137522931E+02  0.00000000000E+00 0. -1.
          2   -1    0    0  502    0 -0.00000000000E+00 -0.00000000000E+00 -0.48800636547E+03  0.48800636547E+03  0.00000000000E+00 0. -1.
         23    2    1    2    0    0  0.11167926427E+03 -0.17120789056E+02 -0.26587857035E+03  0.30264978775E+03  0.90222504777E+02 0.  0.
         24    2    1    2    0    0 -0.47318647212E+02  0.64028194367E+02 -0.86323907277E+02  0.14235558489E+03  0.80465095122E+02 0.  0.
        -13    1    4    4    0    0 -0.57835206286E+02  0.76289069056E+02 -0.65479801490E+02  0.11598507467E+03  0.00000000000E+00 0.  1.
         14    1    4    4    0    0  0.10516559075E+02 -0.12260874689E+02 -0.20844105787E+02  0.26370510215E+02  0.00000000000E+00 0. -1.
        -11    1    3    3    0    0  0.34511934026E+02 -0.33639618853E+02 -0.37633325148E+02  0.61147074407E+02  0.00000000000E+00 0.  1.
         11    1    3    3    0    0  0.77167330239E+02  0.16518829797E+02 -0.22824524521E+03  0.24150271335E+03  0.00000000000E+00 0. -1.
          1    1    1    2  501    0 -0.64360617054E+02 -0.46907405311E+02 -0.71666364909E+02  0.10713851576E+03  0.00000000000E+00 0. -1.
<scales pt_clust_5="13000.00000" pt_clust_6="13000.00000" pt_clust_7="13000.00000" pt_clust_8="13000.00000" pt_clust_9="79.64040"></scales>
<clustering>
<clus scale="   79.640">  1  9  2 -1</clus>
<clus scale="   80.465">  5  6 -1 -1</clus>
<clus scale="   90.223">  7  8 -1 -1</clus>
<clus scale="  123.192">  1  5  2 -1</clus>
<clus scale="   79.640">  1  5  2 -1</clus>
</clustering>
</event>
<event>
 9    2  0.3764910E-005  0.1488302E+03  0.7546771E-02  0.1221259E+00
         -3   -1    0    0    0  501 -0.00000000000E+00  0.00000000000E+00  0.21432422621E+03  0.21432422621E+03  0.00000000000E+00 0.  1.
         21   -1    0    0  501  502  0.00000000000E+00 -0.00000000000E+00 -0.31419082112E+03  0.31419082112E+03  0.00000000000E+00 0.  1.
         23    2    1    2    0    0 -0.22370712582E+02  0.31901301167E+02  0.12719322393E+03  0.16092322303E+03  0.90553993274E+02 0.  0.
         24    2    1    2    0    0 -0.10467794507E+03  0.13257373870E+02 -0.43393350452E+02  0.13974529930E+03  0.80700282954E+02 0.  0.
        -13    1    4    4    0    0 -0.94045293974E+02  0.41095988107E+02 -0.38115773847E+02  0.10948154992E+03  0.00000000000E+00 0.  1.
         14    1    4    4    0    0 -0.10632651093E+02 -0.27838614237E+02 -0.52775766050E+01  0.30263749383E+02  0.00000000000E+00 0. -1.
        -13    1    3    3    0    0 -0.46805747108E+01 -0.24445428484E+02  0.52583672068E+01  0.25438891074E+02  0.00000000000E+00 0. -1.
         13    1    3    3    0    0 -0.17690137871E+02  0.56346729652E+02  0.12193485672E+03  0.13548433195E+03  0.00000000000E+00 0.  1.
         -4    1    1    2    0  502  0.12704865765E+03 -0.45158675037E+02 -0.18366646839E+03  0.22784652499E+03  0.00000000000E+00 0.  1.
<scales pt_clust_5="13000.00000" pt_clust_6="13000.00000" pt_clust_7="13000.00000" pt_clust_8="13000.00000" pt_clust_9="125.05154"></scales>
<clustering>
<clus scale="   80.700">  5  6 -1 -1</clus>
<clus scale="   90.554">  7  8 -1 -1</clus>
<clus scale="   98.581">  1  7  2 -1</clus>
<clus scale="  125.052">  2  9  1 -1</clus>
<clus scale="  125.052">  2  5  1 -1</clus>
</clustering>
</event>
<event>
 9    2  0.3764910E-005  0.9434714E+02  0.7546771E-02  0.1300949E+00
         -1   -1    0    0    0  501 -0.00000000000E+00  0.00000000000E+00  0.64987691087E+02  0.64987691087E+02  0.00000000000E+00 0.  1.
         21   -1    0    0  501  502  0.00000000000E+00 -0.00000000000E+00 -0.31096537032E+03  0.31096537032E+03  0.00000000000E+00 0.  1.
         23    2    1    2    0    0 -0.47051423705E+02 -0.92173040995E+01 -0.18535754132E+01  0.97721663149E+02  0.85131031588E+02 0.  0.
         24    2    1    2    0    0  0.22142695222E+02  0.21844704037E+02 -0.76219635410E+02  0.10802033371E+03  0.69939042215E+02 0.  0.
        -13    1    4    4    0    0 -0.15653792488E+02  0.33144448698E+02 -0.42500919386E+02  0.56124182376E+02  0.00000000000E+00 0.  1.
         14    1    4    4    0    0  0.37796487710E+02 -0.11299744661E+02 -0.33718716024E+02  0.51896151331E+02  0.00000000000E+00 0. -1.
        -11    1    3    3    0    0 -0.63384617165E+02  0.15504786363E+02 -0.12107721097E+02  0.66367198249E+02  0.00000000000E+00 0.  1.
         11    1    3    3    0    0  0.16333193459E+02 -0.24722090463E+02  0.10254145683E+02  0.31354464899E+02  0.00000000000E+00 0. -1.
         -2    1    1    2    0  502  0.24908728483E+02 -0.12627399938E+02 -0.16790446841E+03  0.17021106455E+03  0.00000000000E+00 0.  1.
<scales pt_clust_5="13000.00000" pt_clust_6="13000.00000" pt_clust_7="13000.00000" pt_clust_8="13000.00000" pt_clust_9="27.92662"></scales>
<clustering>
<clus scale="   27.927">  2  9  1 -1</clus>
<clus scale="   69.939">  5  6 -1 -1</clus>
<clus scale="   80.905">  2  5  1 -1</clus>
<clus scale="   85.131">  7  8 -1 -1</clus>
<clus scale="   27.927">  2  5  1 -1</clus>
</clustering>
</event>
<event>
 9    2  0.3764910E-005  0.2502566E+03  0.7546771E-02  0.1145715E+00
         21   -1    0    0  501  502  0.00000000000E+00  0.00000000000E+00  0.13536174206E+04  0.13536174206E+04  0.00000000000E+00 0. -1.
          2   -1    0    0  502    0 -0.00000000000E+00 -0.00000000000E+00 -0.16993625539E+03  0.16993625539E+03  0.00000000000E+00 0. -1.
         23    2    1    2    0    0  0.31115212212E+01  0.53178250017E+02  0.12670818736E+03  0.16933895178E+03  0.98909595120E+02 0.  0.
         24    2    1    2    0    0 -0.22710497403E+03 -0.74320783167E+02  0.10971072915E+04  0.11256740566E+04  0.79983903150E+02 0.  0.
        -11    1    4    4    0    0 -0.48152339011E+02 -0.53102616470E+02  0.29825653598E+03  0.30674989305E+03  0.00000000000E+00 0.  1.
         12    1    4    4    0    0 -0.17895263502E+03 -0.21218166697E+02  0.79885075548E+03  0.81892416358E+03  0.00000000000E+00 0. -1.
        -13    1    3    3    0    0 -0.17033605534E+02  0.46851814494E+02  0.13704411014E+03  0.14582977872E+03  0.00000000000E+00 0. -1.
         13    1    3    3    0    0  0.20145126755E+02  0.63264355229E+01 -0.10335922774E+02  0.23509173061E+02  0.00000000000E+00 0.  1.
          1    1    1    2  501    0  0.22399345281E+03  0.21142533150E+02 -0.40134313597E+02  0.22854066758E+03  0.00000000000E+00 0. -1.
<scales pt_clust_5="13000.00000" pt_clust_6="13000.00000" pt_clust_7="13000.00000" pt_clust_8="13000.00000" pt_clust_9="237.13080"></scales>
<clustering>
<clus scale="   79.984">  5  6 -1 -1</clus>
<clus scale="   98.910">  7  8 -1 -1</clus>
<clus scale="  112.342">  2  7  1 -1</clus>
<clus scale="  237.131">  1  9  2 -1</clus>
<clus scale="  237.131">  1  5  2 -1</clus>
</clustering>
</event>
<event>
 9    2  0.3764910E-005  0.1309468E+03  0.7546771E-02  0.1228772E+00
         21   -1    0    0  501  502  0.00000000000E+00  0.00000000000E+00  0.87020577243E+02  0.87020577243E+02  0.00000000000E+00 0.  1.
          2   -1    0    0  502    0 -0.00000000000E+00 -0.00000000000E+00 -0.52789639346E+03  0.52789639346E+03  0.00000000000E+00 0. -1.
         24    2    1    2    0    0  0.94631417316E+02 -0.14029341853E+01 -0.42968503507E+03  0.44747678480E+03  0.81542444212E+02 0.  0.
         23    2    1    2    0    0 -0.81551064964E+02  0.37526766988E+02 -0.10554215659E+02  0.12901581694E+03  0.92058976293E+02 0.  0.
        -11    1    3    3    0    0  0.54387203131E+02 -0.83329593680E+01 -0.91016515083E+02  0.10635512256E+03  0.00000000000E+00 0.  1.
         12    1    3    3    0    0  0.40244214186E+02  0.69300251827E+01 -0.33866851999E+03  0.34112166225E+03  0.00000000000E+00 0. -1.
        -13    1    4    4    0    0 -0.96451392147E+02  0.15892067747E+02  0.60498327121E+01  0.97938906162E+02  0.00000000000E+00 0.  1.
         13    1    4    4    0    0  0.14900327183E+02  0.21634699242E+02 -0.16604048371E+02  0.31076910782E+02  0.00000000000E+00 0. -1.
          1    1    1    2  501    0 -0.13080352352E+02 -0.36123832803E+02 -0.63656549016E+00  0.38424368956E+02  0.00000000000E+00 0. -1.
<scales pt_clust_5="13000.00000" pt_clust_6="13000.00000" pt_clust_7="13000.00000" pt_clust_8="13000.00000" pt_clust_9="38.41910"></scales>
<clustering>
<clus scale="   38.419">  1  9  2 -1</clus>
<clus scale="   81.542">  5  6 -1 -1</clus>
<clus scale="   92.059">  7  8 -1 -1</clus>
<clus scale="  123.780">  2  5  1 -1</clus>
<clus scale="   38.419">  1  5  2 -1</clus>
</clustering>
</event>
<event>
 9    2  0.3764910E-005  0.1018187E+03  0.7546771E-02  0.1281819E+00
         21   -1    0    0  501  502  0.00000000000E+00  0.00000000000E+00  0.21622070598E+02  0.21622070598E+02  0.00000000000E+00 0.  1.
          2   -1    0    0  502    0 -0.00000000000E+00 -0.00000000000E+00 -0.96833490215E+03  0.96833490215E+03  0.00000000000E+00 0. -1.
         24    2    1    2    0    0  0.32998861979E+02  0.27891128772E+02 -0.70322556040E+03  0.70919366227E+03  0.81010010806E+02 0.  0.
         23    2    1    2    0    0 -0.12888829983E+02 -0.53041705567E+02 -0.17521892428E+03  0.20528131206E+03  0.91973915803E+02 0.  0.
        -11    1    3    3    0    0 -0.20179161360E+02  0.10483362370E+02 -0.72300250763E+02  0.75791989684E+02  0.00000000000E+00 0.  1.
         12    1    3    3    0    0  0.53178023339E+02  0.17407766402E+02 -0.63092530964E+03  0.63340167259E+03  0.00000000000E+00 0. -1.
        -11    1    4    4    0    0  0.24386945342E+02  0.84258252116E+01 -0.15422074835E+02  0.30059241938E+02  0.00000000000E+00 0.  1.
         11    1    4    4    0    0 -0.37275775326E+02 -0.61467530779E+02 -0.15979684944E+03  0.17522207012E+03  0.00000000000E+00 0. -1.
          1    1    1    2  501    0 -0.20110031995E+02  0.25150576795E+02 -0.68268346876E+02  0.75481998418E+02  0.00000000000E+00 0. -1.
<scales pt_clust_5="13000.00000" pt_clust_6="13000.00000" pt_clust_7="13000.00000" pt_clust_8="13000.00000" pt_clust_9="32.20194"></scales>
<clustering>
<clus scale="   32.202">  1  9  2 -1</clus>
<clus scale="   81.010">  5  6 -1 -1</clus>
<clus scale="   91.974">  7  8 -1 -1</clus>
<clus scale="   92.035">  2  5  1 -1</clus>
<clus scale="   32.202">  1  5  2 -1</clus>
</clustering>
</event>
<event>
 9    2  0.3764910E-005  0.1051318E+03  0.7546771E-02  0.1273895E+00
          4   -1    0    0  502    0 -0.00000000000E+00  0.00000000000E+00  0.24350270868E+03  0.24350270868E+03  0.00000000000E+00 0. -1.
         21   -1    0    0  501  502  0.00000000000E+00 -0.00000000000E+00 -0.14137401023E+03  0.14137401023E+03  0.00000000000E+00 0. -1.
         24    2    1    2    0    0 -0.54594707392E+02  0.53880615005E+01  0.14635200815E+03  0.17709737821E+03  0.83276393999E+02 0.  0.
         23    2    1    2    0    0  0.27104071738E+02 -0.50368704292E+02  0.33671397451E+02  0.11372308798E+03  0.92344683967E+02 0.  0.
        -13    1    3    3    0    0  0.84806740285E+01  0.22489746556E+02  0.10273148725E+02  0.26139015224E+02  0.00000000000E+00 0.  1.
         14    1    3    3    0    0 -0.63075381420E+02 -0.17101685056E+02  0.13607885942E+03  0.15095836298E+03  0.00000000000E+00 0. -1.
        -11    1    4    4    0    0  0.47902784851E+02  0.49782819044E+01  0.63075341122E+01  0.48572060629E+02  0.00000000000E+00 0.  1.
         11    1    4    4    0    0 -0.20798713113E+02 -0.55346986197E+02  0.27363863338E+02  0.65151027352E+02  0.00000000000E+00 0. -1.
          3    1    1    2  501    0  0.27490635654E+02  0.44980642792E+02 -0.77894707147E+02  0.94056252722E+02  0.00000000000E+00 0. -1.
<scales pt_clust_5="13000.00000" pt_clust_6="13000.00000" pt_clust_7="13000.00000" pt_clust_8="13000.00000" pt_clust_9="52.71616"></scales>
<clustering>
<clus scale="   52.716">  2  9  1 -1</clus>
<clus scale="   83.276">  5  6 -1 -1</clus>
<clus scale="   92.345">  7  8 -1 -1</clus>
<clus scale="   97.263">  1  5  2 -1</clus>
<clus scale="   52.716">  2  5  1 -1</clus>
</clustering>
</event>
<event>
 9    2  0.3764910E-005  0.9995505E+02  0.7546771E-02  0.1287400E+00
         -1   -1    0    0    0  501 -0.00000000000E+00  0.00000000000E+00  0.12479468936E+03  0.12479468936E+03  0.00000000000E+00 0.  1.
         21   -1    0    0  501  502  0.00000000000E+00 -0.00000000000E+00 -0.15575606669E+03  0.15575606669E+03  0.00000000000E+00 0.  1.
         24    2    1    2    0    0  0.18390774152E+02  0.30595695593E+02  0.30528434873E+02  0.92024087379E+02  0.79133622181E+02 0.  0.
         23    2    1    2    0    0 -0.44322016133E+02 -0.13692709101E+02  0.16200288102E+02  0.10489717658E+03  0.92677057154E+02 0.  0.
        -13    1    3    3    0    0 -0.30210242966E+02  0.22096456501E+02  0.11697927023E+02  0.39214202359E+02  0.00000000000E+00 0.  1.
         14    1    3    3    0    0  0.48601017118E+02  0.84992390916E+01  0.18830507849E+02  0.52809885021E+02  0.00000000000E+00 0. -1.
        -13    1    4    4    0    0 -0.37161590901E+02 -0.50289475535E+02  0.23680057795E+02  0.66863744474E+02  0.00000000000E+00 0. -1.
         13    1    4    4    0    0 -0.71604252317E+01  0.36596766434E+02 -0.74797696936E+01  0.38033432104E+02  0.00000000000E+00 0.  1.
         -2    1    1    2    0  502  0.25931241981E+02 -0.16902986492E+02 -0.77690100304E+02  0.83629492096E+02  0.00000000000E+00 0.  1.
<scales pt_clust_5="13000.00000" pt_clust_6="13000.00000" pt_clust_7="13000.00000" pt_clust_8="13000.00000" pt_clust_9="30.95384"></scales>
<clustering>
<clus scale="   30.954">  2  9  1 -1</clus>
<clus scale="   79.134">  5  6 -1 -1</clus>
<clus scale="   87.545">  1  5  2 -1</clus>
<clus scale="   92.677">  7  8 -1 -1</clus>
<clus scale="   30.954">  2  5  1 -1</clus>
</clustering>
</event>
<event>
 9    2  0.3764910E-005  0.2069462E+03  0.7546771E-02  0.1144748E+00
         21   -1    0    0  501  502  0.00000000000E+00  0.00000000000E+00  0.33296365400E+03  0.33296365400E+03  0.00000000000E+00 0. -1.
          2   -1    0    0  502    0 -0.00000000000E+00 -0.00000000000E+00 -0.58509658368E+03  0.58509658368E+03  0.00000000000E+00 0. -1.
         24    2    1    2    0    0 -0.18947547790E+03  0.50018935151E+01 -0.51639688479E+03  0.55647973309E+03  0.84130702201E+02 0.  0.
         23    2    1    2    0    0  0.12423128251E+03 -0.10518950572E+02  0.25041318084E+03  0.29465452385E+03  0.92576818983E+02 0.  0.
        -11    1    3    3    0    0 -0.55167820374E+02 -0.29197576044E+02 -0.10265068651E+03  0.12013804682E+03  0.00000000000E+00 0.  1.
         12    1    3    3    0    0 -0.13430765753E+03  0.34199469559E+02 -0.41374619828E+03  0.43634168627E+03  0.00000000000E+00 0. -1.
        -13    1    4    4    0    0  0.11086854088E+03  0.28061398122E+02  0.17992554281E+03  0.21319586388E+03  0.00000000000E+00 0. -1.
         13    1    4    4    0    0  0.13362741637E+02 -0.38580348695E+02  0.70487638028E+02  0.81458659971E+02  0.00000000000E+00 0.  1.
          1    1    1    2  501    0  0.65244195388E+02  0.55170570571E+01  0.13850774270E+02  0.66925980742E+02  0.00000000000E+00 0. -1.
<scales pt_clust_5="13000.00000" pt_clust_6="13000.00000" pt_clust_7="13000.00000" pt_clust_8="13000.00000" pt_clust_9="65.47704"></scales>
<clustering>
<clus scale="   65.477">  1  9  2 -1</clus>
<clus scale="   84.131">  5  6 -1 -1</clus>
<clus scale="   92.577">  7  8 -1 -1</clus>
<clus scale="  203.308">  2  5  1 -1</clus>
<clus scale="   65.477">  1  5  2 -1</clus>
</clustering>
</event>
<event>
 9    2  0.3764910E-005  0.1878623E+03  0.7546771E-02  0.1174493E+00
         21   -1    0    0  501  502  0.00000000000E+00  0.00000000000E+00  0.72929490623E+03  0.72929490623E+03  0.00000000000E+00 0.  1.
         -1   -1    0    0    0  501 -0.00000000000E+00 -0.00000000000E+00 -0.10252234418E+03  0.10252234418E+03  0.00000000000E+00 0.  1.
         24    2    1    2    0    0  0.84485904639E+02 -0.68517331038E+02  0.43581593828E+02  0.14272661136E+03  0.81480289241E+02 0.  0.
         23    2    1    2    0    0 -0.12336826994E+02  0.19686193529E+03  0.37429718794E+03  0.43352374315E+03  0.94539050696E+02 0.  0.
        -11    1    3    3    0    0  0.50440786277E+02 -0.74946596854E+02  0.55571876510E+02  0.10606365428E+03  0.00000000000E+00 0.  1.
         12    1    3    3    0    0  0.34045118361E+02  0.64292658163E+01 -0.11990282682E+02  0.36662957082E+02  0.00000000000E+00 0. -1.
        -13    1    4    4    0    0  0.40810071422E+02  0.95651696338E+02  0.16485702469E+03  0.19491677078E+03  0.00000000000E+00 0.  1.
         13    1    4    4    0    0 -0.53146898416E+02  0.10121023895E+03  0.20944016325E+03  0.23860697237E+03  0.00000000000E+00 0. -1.
         -2    1    1    2    0  502 -0.72149077645E+02 -0.12834460425E+03  0.20889378028E+03  0.25556689591E+03  0.00000000000E+00 0.  1.
<scales pt_clust_5="13000.00000" pt_clust_6="13000.00000" pt_clust_7="13000.00000" pt_clust_8="13000.00000" pt_clust_9="162.34099"></scales>
<clustering>
<clus scale="   81.480">  5  6 -1 -1</clus>
<clus scale="   94.539">  7  8 -1 -1</clus>
<clus scale="  135.910">  2  5  1 -1</clus>
<clus scale="  162.341">  1  9  2 -1</clus>
<clus scale="  162.341">  1  5  2 -1</clus>
</clustering>
</event>
<event>
 9    2  0.3764910E-005  0.2869963E+03  0.7546771E-02  0.1091928E+00
         21   -1    0    0  501  502  0.00000000000E+00  0.00000000000E+00  0.12362786897E+03  0.12362786897E+03  0.00000000000E+00 0. -1.
          2   -1    0    0  502    0 -0.00000000000E+00 -0.00000000000E+00 -0.65760505327E+03  0.65760505327E+03  0.00000000000E+00 0. -1.
         24    2    1    2    0    0 -0.11506623655E+03 -0.28363063705E+02 -0.22999348841E+03  0.27113938685E+03  0.81085511730E+02 0.  0.
         23    2    1    2    0    0 -0.81915015411E+02 -0.69795504193E+02 -0.24232274899E+03  0.28153546739E+03  0.94659508600E+02 0.  0.
        -11    1    3    3    0    0 -0.10806572698E+03 -0.43554215442E+02 -0.15279514875E+03  0.19214975543E+03  0.00000000000E+00 0.  1.
         12    1    3    3    0    0 -0.70005095730E+01  0.15191151737E+02 -0.77198339659E+02  0.78989631418E+02  0.00000000000E+00 0. -1.
        -11    1    4    4    0    0 -0.38066381559E+00 -0.60041700876E+02 -0.84949018042E+02  0.10402637365E+03  0.00000000000E+00 0.  1.
         11    1    4    4    0    0 -0.81534351595E+02 -0.97538033176E+01 -0.15737373094E+03  0.17750909374E+03  0.00000000000E+00 0. -1.
          1    1    1    2  501    0  0.19698125196E+03  0.98158567898E+02 -0.61660946901E+02  0.22855806800E+03  0.00000000000E+00 0. -1.
<scales pt_clust_5="13000.00000" pt_clust_6="13000.00000" pt_clust_7="13000.00000" pt_clust_8="13000.00000" pt_clust_9="220.08343"></scales>
<clustering>
<clus scale="   81.086">  5  6 -1 -1</clus>
<clus scale="   94.660">  7  8 -1 -1</clus>
<clus scale="  107.388">  5  7 -1 -1</clus>
<clus scale="  220.083">  1  9  2 -1</clus>
<clus scale="  220.083">  1  5  2 -1</clus>
</clustering>
</event>
<event>
 9    2  0.3764910E-005  0.1761738E+03  0.7546771E-02  0.1172909E+00
         -1   -1    0    0    0  501 -0.00000000000E+00  0.00000000000E+00  0.31681633979E+03  0.31681633979E+03  0.00000000000E+00 0.  1.
         21   -1    0    0  501  502  0.00000000000E+00 -0.00000000000E+00 -0.13538990560E+03  0.13538990560E+03  0.00000000000E+00 0. -1.
         23    2    1    2    0    0 -0.14372256493E+03 -0.21884916195E+02  0.90122459299E+02  0.19387354715E+03  0.91267570294E+02 0.  0.
         24    2    1    2    0    0  0.15912221236E+03 -0.35816509681E+02  0.66203719789E+02  0.19355132363E+03  0.80476589971E+02 0.  0.
        -13    1    4    4    0    0  0.27397534696E+02  0.11938458327E+02  0.41711544312E+02  0.51312811495E+02  0.00000000000E+00 0.  1.
         14    1    4    4    0    0  0.13172467766E+03 -0.47754968008E+02  0.24492175477E+02  0.14223851213E+03  0.00000000000E+00 0. -1.
        -11    1    3    3    0    0 -0.75269243171E+02 -0.46676925500E+02  0.81856387316E+02  0.12060125408E+03  0.00000000000E+00 0.  1.
         11    1    3    3    0    0 -0.68453321764E+02  0.24792009306E+02  0.82660719836E+01  0.73272293072E+02  0.00000000000E+00 0. -1.
         -2    1    1    2    0  502 -0.15399647424E+02  0.57701425876E+02  0.25100255100E+02  0.64781374599E+02  0.00000000000E+00 0.  1.
<scales pt_clust_5="13000.00000" pt_clust_6="13000.00000" pt_clust_7="13000.00000" pt_clust_8="13000.00000" pt_clust_9="59.72105"></scales>
<clustering>
<clus scale="   59.721">  2  9  1 -1</clus>
<clus scale="   80.477">  5  6 -1 -1</clus>
<clus scale="   91.268">  7  8 -1 -1</clus>
<clus scale="  170.833">  2  5  1 -1</clus>
<clus scale="   59.721">  2  5  1 -1</clus>
</clustering>
</event>
<event>
 9    2  0.3764910E-005  0.1578153E+03  0.7546771E-02  0.1204268E+00
         21   -1    0    0  501  502  0.00000000000E+00  0.00000000000E+00  0.63163538983E+03  0.63163538983E+03  0.00000000000E+00 0.  1.
         -1   -1    0    0    0  501 -0.00000000000E+00 -0.00000000000E+00 -0.17741061011E+03  0.17741061011E+03  0.00000000000E+00 0.  1.
         24    2    1    2    0    0  0.82734075793E+02 -0.20908862739E+02 -0.10606432757E+03  0.15914653060E+03  0.82437059510E+02 0.  0.
         23    2    1    2    0    0  0.19082823202E+02  0.12145431944E+03  0.42400322105E+03  0.45228896211E+03  0.98342604885E+02 0.  0.
        -11    1    3    3    0    0  0.86927113684E+02 -0.41984121096E+02 -0.92727658565E+02  0.13385592322E+03  0.00000000000E+00 0.  1.
         12    1    3    3    0    0 -0.41930378908E+01  0.21075258357E+02 -0.13336669003E+02  0.25290607380E+02  0.00000000000E+00 0. -1.
        -13    1    4    4    0    0  0.26057298631E+02 -0.70190589920E+01  0.50688409466E+02  0.57424427340E+02  0.00000000000E+00 0. -1.
         13    1    4    4    0    0 -0.69744754286E+01  0.12847337843E+03  0.37331481158E+03  0.39486453477E+03  0.00000000000E+00 0.  1.
         -2    1    1    2    0  502 -0.10181689900E+03 -0.10054545670E+03  0.13628588624E+03  0.19761050724E+03  0.00000000000E+00 0.  1.
<scales pt_clust_5="13000.00000" pt_clust_6="13000.00000" pt_clust_7="13000.00000" pt_clust_8="13000.00000" pt_clust_9="123.42774"></scales>
<clustering>
<clus scale="   82.437">  5  6 -1 -1</clus>
<clus scale="   98.343">  7  8 -1 -1</clus>
<clus scale="  118.651">  2  5  1 -1</clus>
<clus scale="  123.428">  1  9  2 -1</clus>
<clus scale="  123.428">  1  5  2 -1</clus>
</clustering>
</event>
<event>
 9    2  0.3764910E-005  0.1043362E+03  0.7546771E-02  0.1283740E+00
          2   -1    0    0  502    0 -0.00000000000E+00  0.00000000000E+00  0.15912564758E+03  0.15912564758E+03  0.00000000000E+00 0. -1.
         21   -1    0    0  501  502  0.00000000000E+00 -0.00000000000E+00 -0.15443601801E+03  0.15443601801E+03  0.00000000000E+00 0.  1.
         24    2    1    2    0    0  0.28431125694E+01  0.20336831413E+01  0.59784287070E+02  0.10118976203E+03  0.81565849492E+02 0.  0.
         23    2    1    2    0    0 -0.59034122180E+02 -0.17868685248E+02 -0.84263320726E+02  0.14711098289E+03  0.10361957621E+03 0.  0.
        -11    1    3    3    0    0 -0.14423088764E+02 -0.34594777619E+02  0.13858164433E+02  0.39960891499E+02  0.00000000000E+00 0.  1.
         12    1    3    3    0    0  0.17266201333E+02  0.36628460760E+02  0.45926122638E+02  0.61228870532E+02  0.00000000000E+00 0. -1.
        -11    1    4    4    0    0 -0.30121186432E+02  0.31825884544E+02  0.15163260387E+01  0.43846003737E+02  0.00000000000E+00 0. -1.
         11    1    4    4    0    0 -0.28912935748E+02 -0.49694569792E+02 -0.85779646765E+02  0.10326497915E+03  0.00000000000E+00 0.  1.
          1    1    1    2  501    0  0.56191009610E+02  0.15835002107E+02  0.29168663228E+02  0.65260920674E+02  0.00000000000E+00 0. -1.
<scales pt_clust_5="13000.00000" pt_clust_6="13000.00000" pt_clust_7="13000.00000" pt_clust_8="13000.00000" pt_clust_9="58.37962"></scales>
<clustering>
<clus scale="   58.380">  2  9  1 -1</clus>
<clus scale="   81.566">  5  6 -1 -1</clus>
<clus scale="   82.474">  1  5  2 -1</clus>
<clus scale="  103.620">  7  8 -1 -1</clus>
<clus scale="   58.380">  2  5  1 -1</clus>
</clustering>
</event>
<event>
 9    2  0.3764910E-005  0.1815545E+03  0.7546771E-02  0.1186603E+00
         21   -1    0    0  501  502  0.00000000000E+00  0.00000000000E+00  0.24307078112E+03  0.24307078112E+03  0.00000000000E+00 0.  1.
         -3   -1    0    0    0  501 -0.00000000000E+00 -0.00000000000E+00 -0.24185599863E+03  0.24185599863E+03  0.00000000000E+00 0.  1.
         24    2    1    2    0    0 -0.79458331694E+02 -0.17655173459E+02  0.58629869484E+02  0.12883207732E+03  0.80838795917E+02 0.  0.
         23    2    1    2    0    0  0.87379565732E+02 -0.14242816708E+03 -0.48665120402E+02  0.19557684117E+03  0.89224635449E+02 0.  0.
        -13    1    3    3    0    0 -0.82534938205E+02  0.65868066305E+01  0.62958452578E+02  0.10401523349E+03  0.00000000000E+00 0.  1.
         14    1    3    3    0    0  0.30766065113E+01 -0.24241980089E+02 -0.43285830938E+01  0.24816843834E+02  0.00000000000E+00 0. -1.
        -11    1    4    4    0    0  0.95513830096E+02 -0.10219715151E+03 -0.11753279286E+02  0.14037552881E+03  0.00000000000E+00 0.  1.
         11    1    4    4    0    0 -0.81342643635E+01 -0.40231015576E+02 -0.36911841116E+02  0.55201312354E+02  0.00000000000E+00 0. -1.
         -4    1    1    2    0  502 -0.79212340380E+01  0.16008334054E+03 -0.87499665900E+01  0.16051786126E+03  0.00000000000E+00 0.  1.
<scales pt_clust_5="13000.00000" pt_clust_6="13000.00000" pt_clust_7="13000.00000" pt_clust_8="13000.00000" pt_clust_9="158.11708"></scales>
<clustering>
<clus scale="   80.839">  5  6 -1 -1</clus>
<clus scale="   89.225">  7  8 -1 -1</clus>
<clus scale="  114.718">  2  5  1 -1</clus>
<clus scale="  158.117">  1  9  2 -1</clus>
<clus scale="  158.117">  1  5  2 -1</clus>
</clustering>
</event>
<event>
 9    2  0.3764910E-005  0.9659428E+02  0.7546771E-02  0.1295851E+00
         21   -1    0    0  501  502  0.00000000000E+00  0.00000000000E+00  0.21161222559E+03  0.21161222559E+03  0.00000000000E+00 0. -1.
         -1   -1    0    0    0  501 -0.00000000000E+00 -0.00000000000E+00 -0.62614312640E+02  0.62614312640E+02  0.00000000000E+00 0.  1.
         24    2    1    2    0    0 -0.13038737133E+02  0.15551512093E+01  0.37420612840E+02  0.90800860046E+02  0.81682720073E+02 0.  0.
         23    2    1    2    0    0 -0.57015522986E+01  0.31887125610E+02  0.54636245965E+02  0.11478263066E+03  0.95606675754E+02 0.  0.
        -13    1    3    3    0    0  0.13026080905E+02  0.31701276662E+02 -0.25371548023E+01  0.34366944587E+02  0.00000000000E+00 0.  1.
         14    1    3    3    0    0 -0.26064818038E+02 -0.30146125452E+02  0.39957767642E+02  0.56433915459E+02  0.00000000000E+00 0. -1.
        -11    1    4    4    0    0 -0.42628475473E+02  0.11404925201E+02 -0.19575840861E+01  0.44171159997E+02  0.00000000000E+00 0.  1.
         11    1    4    4    0    0  0.36926923174E+02  0.20482200409E+02  0.56593830051E+02  0.70611470658E+02  0.00000000000E+00 0. -1.
         -2    1    1    2    0  502  0.18740289431E+02 -0.33442276819E+02  0.56941054144E+02  0.68643047527E+02  0.00000000000E+00 0.  1.
<scales pt_clust_5="13000.00000" pt_clust_6="13000.00000" pt_clust_7="13000.00000" pt_clust_8="13000.00000" pt_clust_9="38.33516"></scales>
<clustering>
<clus scale="   38.335">  1  9  2 -1</clus>
<clus scale="   81.683">  5  6 -1 -1</clus>
<clus scale="   82.837">  2  5  1 -1</clus>
<clus scale="   95.607">  7  8 -1 -1</clus>
<clus scale="   38.335">  1  5  2 -1</clus>
</clustering>
</event>
<event>
 9    2  0.3764910E-005  0.2082578E+03  0.7546771E-02  0.1175096E+00
         21   -1    0    0  501  502  0.00000000000E+00  0.00000000000E+00  0.16848558488E+03  0.16848558488E+03  0.00000000000E+00 0. -1.
          4   -1    0    0  502    0 -0.00000000000E+00 -0.00000000000E+00 -0.43670027083E+03  0.43670027083E+03  0.00000000000E+00 0. -1.
         23    2    1    2    0    0  0.34737414748E+02 -0.58045127089E+01 -0.13788763310E+03  0.16940094934E+03  0.91887441598E+02 0.  0.
         24    2    1    2    0    0  0.49838392427E+02 -0.17452256760E+03 -0.12912987924E+03  0.23660569993E+03  0.79785584951E+02 0.  0.
        -13    1    4    4    0    0 -0.19226747258E+02 -0.16181738779E+02 -0.21498122148E+02  0.33070919793E+02  0.00000000000E+00 0.  1.
         14    1    4    4    0    0  0.69065139685E+02 -0.15834082882E+03 -0.10763175709E+03  0.20353478014E+03  0.00000000000E+00 0. -1.
        -11    1    3    3    0    0  0.26093133832E+02  0.33387367423E+02 -0.24111493378E+02  0.48753790104E+02  0.00000000000E+00 0.  1.
         11    1    3    3    0    0  0.86442809162E+01 -0.39191880132E+02 -0.11377613973E+03  0.12064715924E+03  0.00000000000E+00 0. -1.
          3    1    1    2  501    0 -0.84575807176E+02  0.18032708031E+03 -0.11971736070E+01  0.19917920644E+03  0.00000000000E+00 0. -1.
<scales pt_clust_5="13000.00000" pt_clust_6="13000.00000" pt_clust_7="13000.00000" pt_clust_8="13000.00000" pt_clust_9="192.36831"></scales>
<clustering>
<clus scale="   79.786">  5  6 -1 -1</clus>
<clus scale="   91.887">  7  8 -1 -1</clus>
<clus scale="   98.406">  2  7  1 -1</clus>
<clus scale="  192.368">  1  9  2 -1</clus>
<clus scale="  192.368">  1  5  2 -1</clus>
</clustering>
</event>
<event>
 9    2  0.3764910E-005  0.1131646E+03  0.7546771E-02  0.1259379E+00
          2   -1    0    0  502    0 -0.00000000000E+00  0.00000000000E+00  0.82928622926E+03  0.82928622926E+03  0.00000000000E+00 0. -1.
         21   -1    0    0  501  502  0.00000000000E+00 -0.00000000000E+00 -0.78429171401E+02  0.78429171401E+02  0.00000000000E+00 0. -1.
         23    2    1    2    0    0 -0.28559380287E+02 -0.38038234956E+02 -0.96320900263E+01  0.10386703257E+03  0.91831572871E+02 0.  0.
         24    2    1    2    0    0 -0.71819279531E+02 -0.76176286517E-01  0.15690963317E+03  0.19079305714E+03  0.81383923220E+02 0.  0.
        -13    1    4    4    0    0 -0.68941555728E+02  0.16632862745E+02  0.61447783763E+02  0.93837201358E+02  0.00000000000E+00 0.  1.
         14    1    4    4    0    0 -0.28777238027E+01 -0.16709039032E+02  0.95461849403E+02  0.96955855785E+02  0.00000000000E+00 0. -1.
        -13    1    3    3    0    0 -0.58154640784E+02 -0.17604660999E+02  0.11949131778E+02  0.61924696882E+02  0.00000000000E+00 0.  1.
         13    1    3    3    0    0  0.29595260497E+02 -0.20433573957E+02 -0.21581221804E+02  0.41942335690E+02  0.00000000000E+00 0. -1.
          1    1    1    2  501    0  0.10037865982E+03  0.38114411242E+02  0.60357951472E+03  0.61305531095E+03  0.00000000000E+00 0. -1.
<scales pt_clust_5="13000.00000" pt_clust_6="13000.00000" pt_clust_7="13000.00000" pt_clust_8="13000.00000" pt_clust_9="78.63130"></scales>
<clustering>
<clus scale="   81.384">  5  6 -1 -1</clus>
<clus scale="   91.832">  7  8 -1 -1</clus>
<clus scale="  103.420">  1  7  2 -1</clus>
<clus scale="   78.631">  2  9  1 -1</clus>
<clus scale="   78.631">  2  5  1 -1</clus>
</clustering>
</event>
<event>
 9    2  0.3764910E-005  0.9203436E+02  0.7546771E-02  0.1302245E+00
          2   -1    0    0  502    0 -0.00000000000E+00  0.00000000000E+00  0.16640658394E+03  0.16640658394E+03  0.00000000000E+00 0. -1.
         21   -1    0    0  501  502  0.00000000000E+00 -0.00000000000E+00 -0.16628569526E+03  0.16628569526E+03  0.00000000000E+00 0. -1.
         24    2    1    2    0    0  0.64752953231E+01 -0.46325738238E+01  0.11713653831E+03  0.14457988183E+03  0.84374068487E+02 0.  0.
         23    2    1    2    0    0 -0.12224030251E+01  0.36878058762E+02 -0.43577554742E+02  0.10773505008E+03  0.91358372643E+02 0.  0.
        -11    1    3    3    0    0  0.17556909948E+02  0.34926004102E+02  0.33838013298E+02  0.51701856769E+02  0.00000000000E+00 0.  1.
         12    1    3    3    0    0 -0.11081614624E+02 -0.39558577925E+02  0.83298525010E+02  0.92878025060E+02  0.00000000000E+00 0. -1.
        -13    1    4    4    0    0 -0.96346761709E+01  0.66659317438E+02 -0.26404066071E+02  0.72342700332E+02  0.00000000000E+00 0. -1.
         13    1    4    4    0    0  0.84122731458E+01 -0.29781258676E+02 -0.17173488671E+02  0.35392349751E+02  0.00000000000E+00 0.  1.
          1    1    1    2  501    0 -0.52528922980E+01 -0.32245484938E+02 -0.73438094883E+02  0.80377347284E+02  0.00000000000E+00 0. -1.
<scales pt_clust_5="13000.00000" pt_clust_6="13000.00000" pt_clust_7="13000.00000" pt_clust_8="13000.00000" pt_clust_9="32.67054"></scales>
<clustering>
<clus scale="   32.671">  2  9  1 -1</clus>
<clus scale="   84.374">  5  6 -1 -1</clus>
<clus scale="   85.106">  1  5  2 -1</clus>
<clus scale="   91.358">  7  8 -1 -1</clus>
<clus scale="   32.671">  2  5  1 -1</clus>
</clustering>
</event>
<event>
 9    2  0.3764910E-005  0.9367617E+02  0.7546771E-02  0.1300558E+00
         21   -1    0    0  501  502  0.00000000000E+00  0.00000000000E+00  0.10308170096E+03  0.10308170096E+03  0.00000000000E+00 0.  1.
          2   -1    0    0  502    0 -0.00000000000E+00 -0.00000000000E+00 -0.13885240666E+03  0.13885240666E+03  0.00000000000E+00 0. -1.
         24    2    1    2    0    0  0.16546000139E+02  0.20046630632E+02 -0.88581438049E+01  0.85041542598E+02  0.80485773497E+02 0.  0.
         23    2    1    2    0    0 -0.25221137674E+02  0.12221297205E+02  0.21732142822E+02  0.97877444285E+02  0.91226323927E+02 0.  0.
        -11    1    3    3    0    0  0.21658498007E+02 -0.24362167124E+02  0.13229994626E+02  0.35180086423E+02  0.00000000000E+00 0.  1.
         12    1    3    3    0    0 -0.51124978675E+01  0.44408797756E+02 -0.22088138431E+02  0.49861456175E+02  0.00000000000E+00 0. -1.
        -13    1    4    4    0    0  0.11605075558E+02 -0.34000208898E+02  0.38436740418E+01  0.36131230452E+02  0.00000000000E+00 0. -1.
         13    1    4    4    0    0 -0.36826213232E+02  0.46221506103E+02  0.17888468780E+02  0.61746213833E+02  0.00000000000E+00 0.  1.
          1    1    1    2  501    0  0.86751375351E+01 -0.32267927837E+02 -0.48644704721E+02  0.59015120736E+02  0.00000000000E+00 0. -1.
<scales pt_clust_5="13000.00000" pt_clust_6="13000.00000" pt_clust_7="13000.00000" pt_clust_8="13000.00000" pt_clust_9="33.41374"></scales>
<clustering>
<clus scale="   33.414">  1  9  2 -1</clus>
<clus scale="   80.486">  5  6 -1 -1</clus>
<clus scale="   83.252">  2  5  1 -1</clus>
<clus scale="   91.226">  7  8 -1 -1</clus>
<clus scale="   33.414">  1  5  2 -1</clus>
</clustering>
</event>
<event>
 9    2  0.3764910E-005  0.9747159E+02  0.7546771E-02  0.1290708E+00
         -1   -1    0    0    0  501 -0.00000000000E+00  0.00000000000E+00  0.33855504737E+03  0.33855504737E+03  0.00000000000E+00 0.  1.
         21   -1    0    0  501  502  0.00000000000E+00 -0.00000000000E+00 -0.33229148321E+02  0.33229148321E+02  0.00000000000E+00 0.  1.
         24    2    1    2    0    0 -0.18872805951E+02  0.30280948854E+02  0.15865373292E+03  0.18213816486E+03  0.82037707554E+02 0.  0.
         23    2    1    2    0    0  0.32574403870E+02 -0.13254499078E+02  0.12566839180E+03  0.15933444372E+03  0.91422900432E+02 0.  0.
        -11    1    3    3    0    0 -0.24973540952E+02 -0.72474541352E+01  0.86713716885E+01  0.27411603859E+02  0.00000000000E+00 0.  1.
         12    1    3    3    0    0  0.61007350009E+01  0.37528402990E+02  0.14998236123E+03  0.15472656100E+03  0.00000000000E+00 0. -1.
        -13    1    4    4    0    0 -0.19222283774E+02 -0.31180901719E+02  0.80015008734E+02  0.88000832088E+02  0.00000000000E+00 0. -1.
         13    1    4    4    0    0  0.51796687644E+02  0.17926402641E+02  0.45653383069E+02  0.71333611630E+02  0.00000000000E+00 0.  1.
         -2    1    1    2    0  502 -0.13701597919E+02 -0.17026449776E+02  0.21003774333E+02  0.30311587120E+02  0.00000000000E+00 0.  1.
<scales pt_clust_5="13000.00000" pt_clust_6="13000.00000" pt_clust_7="13000.00000" pt_clust_8="13000.00000" pt_clust_9="21.85483"></scales>
<clustering>
<clus scale="   21.855">  2  9  1 -1</clus>
<clus scale="   82.038">  5  6 -1 -1</clus>
<clus scale="   88.729">  1  5  2 -1</clus>
<clus scale="   91.423">  7  8 -1 -1</clus>
<clus scale="   21.855">  2  5  1 -1</clus>
</clustering>
</event>
<event>
 9    2  0.3764910E-005  0.9453789E+02  0.7546771E-02  0.1296103E+00
         21   -1    0    0  501  502  0.00000000000E+00  0.00000000000E+00  0.53973590641E+02  0.53973590641E+02  0.00000000000E+00 0. -1.
          2   -1    0    0  502    0 -0.00000000000E+00 -0.00000000000E+00 -0.35915630141E+03  0.35915630141E+03  0.00000000000E+00 0. -1.
         23    2    1    2    0    0  0.86608157364E+01  0.58581024377E+01 -0.12828846106E+03  0.15647986988E+03  0.88987040307E+02 0.  0.
         24    2    1    2    0    0  0.26242401975E+02 -0.57682627949E+02 -0.16220386641E+03  0.19246417161E+03  0.81953729914E+02 0.  0.
        -13    1    4    4    0    0  0.13193657586E+01 -0.62142734433E+02 -0.15363872349E+03  0.16573568573E+03  0.00000000000E+00 0.  1.
         14    1    4    4    0    0  0.24923036216E+02  0.44601064838E+01 -0.85651429158E+01  0.26728485877E+02  0.00000000000E+00 0. -1.
        -13    1    3    3    0    0 -0.16076441986E+01  0.36300160317E+02 -0.16029899798E+02  0.39714529413E+02  0.00000000000E+00 0.  1.
         13    1    3    3    0    0  0.10268459935E+02 -0.30442057880E+02 -0.11225856126E+03  0.11676534047E+03  0.00000000000E+00 0. -1.
          1    1    1    2  501    0 -0.34903217711E+02  0.51824525512E+02 -0.14690383301E+02  0.64185850564E+02  0.00000000000E+00 0. -1.
<scales pt_clust_5="13000.00000" pt_clust_6="13000.00000" pt_clust_7="13000.00000" pt_clust_8="13000.00000" pt_clust_9="62.48213"></scales>
<clustering>
<clus scale="   62.482">  1  9  2 -1</clus>
<clus scale="   81.954">  5  6 -1 -1</clus>
<clus scale="   87.950">  1  5  2 -1</clus>
<clus scale="   88.987">  7  8 -1 -1</clus>
<clus scale="   62.482">  1  5  2 -1</clus>
</clustering>
</event>
<event>
 9    2  0.3764910E-005  0.1019657E+03  0.7546771E-02  0.1280079E+00
         -1   -1    0    0    0  501 -0.00000000000E+00  0.00000000000E+00  0.35270827729E+03  0.35270827729E+03  0.00000000000E+00 0.  1.
         21   -1    0    0  501  502  0.00000000000E+00 -0.00000000000E+00 -0.47216927548E+02  0.47216927548E+02  0.00000000000E+00 0.  1.
         24    2    1    2    0    0  0.24311458598E+02 -0.24920245130E+02  0.20245462430E+03  0.22766199393E+03  0.98132782209E+02 0.  0.
         23    2    1    2    0    0  0.12555920448E+02  0.23108589362E+02  0.47567584514E+02  0.10563505372E+03  0.90578316598E+02 0.  0.
        -11    1    3    3    0    0 -0.15853155174E+02  0.29692331227E+02  0.93113214451E+02  0.99010240723E+02  0.00000000000E+00 0.  1.
         12    1    3    3    0    0  0.40164613773E+02 -0.54612576357E+02  0.10934140985E+03  0.12865175321E+03  0.00000000000E+00 0. -1.
        -13    1    4    4    0    0  0.47275046847E+02  0.16095347416E+02  0.48976857991E+01  0.50179453853E+02  0.00000000000E+00 0.  1.
         13    1    4    4    0    0 -0.34719126398E+02  0.70132419456E+01  0.42669898715E+02  0.55455599869E+02  0.00000000000E+00 0. -1.
         -2    1    1    2    0  502 -0.36867379047E+02  0.18116557680E+01  0.55469140930E+02  0.66628157185E+02  0.00000000000E+00 0.  1.
<scales pt_clust_5="13000.00000" pt_clust_6="13000.00000" pt_clust_7="13000.00000" pt_clust_8="13000.00000" pt_clust_9="36.91188"></scales>
<clustering>
<clus scale="   36.912">  2  9  1 -1</clus>
<clus scale="   90.578">  7  8 -1 -1</clus>
<clus scale="   94.717">  2  7  1 -1</clus>
<clus scale="   98.133">  5  6 -1 -1</clus>
<clus scale="   36.912">  2  5  1 -1</clus>
</clustering>
</event>
<event>
 9    2  0.3764910E-005  0.1645250E+03  0.7546771E-02  0.1184288E+00
         -1   -1    0    0    0  501 -0.00000000000E+00  0.00000000000E+00  0.44648529028E+03  0.44648529028E+03  0.00000000000E+00 0.  1.
         21   -1    0    0  501  502  0.00000000000E+00 -0.00000000000E+00 -0.10195115927E+03  0.10195115927E+03  0.00000000000E+00 0.  1.
         24    2    1    2    0    0  0.15513677444E+03  0.56599465514E+02  0.17942456352E+03  0.25612370958E+03  0.78327915410E+02 0.  0.
         23    2    1    2    0    0 -0.10157678091E+03 -0.34920009124E+02  0.21254767160E+02  0.13728733781E+03  0.82817863651E+02 0.  0.
        -13    1    3    3    0    0  0.10565722683E+03  0.56257935225E+02  0.16635710843E+03  0.20494655982E+03  0.00000000000E+00 0.  1.
         14    1    3    3    0    0  0.49479547609E+02  0.34153028863E+00  0.13067455090E+02  0.51177149755E+02  0.00000000000E+00 0. -1.
        -13    1    4    4    0    0 -0.63173214757E+02 -0.57099853142E+02  0.33137296424E+02  0.91374661180E+02  0.00000000000E+00 0.  1.
         13    1    4    4    0    0 -0.38403566151E+02  0.22179844018E+02 -0.11882529265E+02  0.45912676632E+02  0.00000000000E+00 0. -1.
         -2    1    1    2    0  502 -0.53559993536E+02 -0.21679456390E+02  0.14385480034E+03  0.15502540217E+03  0.00000000000E+00 0.  1.
<scales pt_clust_5="13000.00000" pt_clust_6="13000.00000" pt_clust_7="13000.00000" pt_clust_8="13000.00000" pt_clust_9="57.78127"></scales>
<clustering>
<clus scale="   57.781">  2  9  1 -1</clus>
<clus scale="   78.328">  5  6 -1 -1</clus>
<clus scale="   82.818">  7  8 -1 -1</clus>
<clus scale="  162.311">  1  5  2 -1</clus>
<clus scale="   57.781">  2  5  1 -1</clus>
</clustering>
</event>
<event>
 9    2  0.3764910E-005  0.3556289E+03  0.7546771E-02  0.1060328E+00
         21   -1    0    0  501  502  0.00000000000E+00  0.00000000000E+00  0.11677443119E+04  0.11677443119E+04  0.00000000000E+00 0.  1.
         -1   -1    0    0    0  501 -0.00000000000E+00 -0.00000000000E+00 -0.19143089740E+03  0.19143089740E+03  0.00000000000E+00 0.  1.
         24    2    1    2    0    0  0.10985416186E+03 -0.91577809430E+02 -0.11716514937E+02  0.15974941950E+03  0.70200913461E+02 0.  0.
         23    2    1    2    0    0  0.10966242837E+03 -0.13194609088E+03  0.35473064252E+02  0.19667205692E+03  0.89364090067E+02 0.  0.
        -11    1    3    3    0    0  0.47139831211E+02 -0.45590161727E+02 -0.40210268891E+02  0.76925238102E+02  0.00000000000E+00 0.  1.
         12    1    3    3    0    0  0.62714330651E+02 -0.45987647703E+02  0.28493753953E+02  0.82824181401E+02  0.00000000000E+00 0. -1.
        -13    1    4    4    0    0  0.14050288991E+02 -0.78480668809E+02 -0.50093788383E+01  0.79885667511E+02  0.00000000000E+00 0. -1.
         13    1    4    4    0    0  0.95612139377E+02 -0.53465422068E+02  0.40482443091E+02  0.11678638941E+03  0.00000000000E+00 0.  1.
         -2    1    1    2    0  502 -0.21951659023E+03  0.22352390031E+03  0.95255686518E+03  0.10027537329E+04  0.00000000000E+00 0.  1.
<scales pt_clust_5="13000.00000" pt_clust_6="13000.00000" pt_clust_7="13000.00000" pt_clust_8="13000.00000" pt_clust_9="313.28975"></scales>
<clustering>
<clus scale="   70.201">  5  6 -1 -1</clus>
<clus scale="   89.364">  7  8 -1 -1</clus>
<clus scale="  100.382">  5  7 -1 -1</clus>
<clus scale="  313.290">  1  9  2 -1</clus>
<clus scale="  313.290">  1  5  2 -1</clus>
</clustering>
</event>
<event>
 9    2  0.3764910E-005  0.2299294E+03  0.7546771E-02  0.1127448E+00
          2   -1    0    0  502    0 -0.00000000000E+00  0.00000000000E+00  0.43362270221E+03  0.43362270221E+03  0.00000000000E+00 0. -1.
         21   -1    0    0  501  502  0.00000000000E+00 -0.00000000000E+00 -0.20323791746E+03  0.20323791746E+03  0.00000000000E+00 0.  1.
         23    2    1    2    0    0 -0.22300976481E+03 -0.16567442146E+01  0.30034171301E+03  0.38517803721E+03  0.91765329921E+02 0.  0.
         24    2    1    2    0    0  0.17558721710E+03  0.36776548523E+01 -0.46339067557E+02  0.19866574121E+03  0.80475906927E+02 0.  0.
        -13    1    4    4    0    0  0.13895640576E+03 -0.20312987353E+02 -0.60119473847E+02  0.15276076490E+03  0.00000000000E+00 0.  1.
         14    1    4    4    0    0  0.36630811338E+02  0.23990642205E+02  0.13780406291E+02  0.45904976312E+02  0.00000000000E+00 0. -1.
        -11    1    3    3    0    0 -0.51715541360E+02  0.38856475835E+02  0.70526075853E+02  0.95698747680E+02  0.00000000000E+00 0.  1.
         11    1    3    3    0    0 -0.17129422345E+03 -0.40513220050E+02  0.22981563716E+03  0.28947928953E+03  0.00000000000E+00 0. -1.
          1    1    1    2  501    0  0.47422547710E+02 -0.20209106377E+01 -0.23617860697E+02  0.53016841239E+02  0.00000000000E+00 0. -1.
<scales pt_clust_5="13000.00000" pt_clust_6="13000.00000" pt_clust_7="13000.00000" pt_clust_8="13000.00000" pt_clust_9="47.46559"></scales>
<clustering>
<clus scale="   47.466">  2  9  1 -1</clus>
<clus scale="   80.476">  5  6 -1 -1</clus>
<clus scale="   91.765">  7  8 -1 -1</clus>
<clus scale="  225.661">  2  5  1 -1</clus>
<clus scale="   47.466">  2  5  1 -1</clus>
</clustering>
</event>
<event>
 9    2  0.3764910E-005  0.1100237E+03  0.7546771E-02  0.1261458E+00
          2   -1    0    0  502    0 -0.00000000000E+00  0.00000000000E+00  0.38402287836E+03  0.38402287836E+03  0.00000000000E+00 0. -1.
         21   -1    0    0  501  502  0.00000000000E+00 -0.00000000000E+00 -0.54735075316E+02  0.54735075316E+02  0.00000000000E+00 0.  1.
         23    2    1    2    0    0  0.47725667694E+02  0.50854885511E+02  0.23893696382E+03  0.26538217780E+03  0.92048187793E+02 0.  0.
         24    2    1    2    0    0 -0.31451300753E+02 -0.16609262051E+02  0.90423944629E+02  0.13545977543E+03  0.94381190352E+02 0.  0.
        -13    1    4    4    0    0 -0.63645770326E+02 -0.90712499795E+01  0.41887914825E+02  0.76731147945E+02  0.00000000000E+00 0.  1.
         14    1    4    4    0    0  0.32194469573E+02 -0.75380120713E+01  0.48536029804E+02  0.58728627484E+02  0.00000000000E+00 0. -1.
        -11    1    3    3    0    0  0.51993251331E+02 -0.44837684532E+01  0.68362498678E+02  0.86004846312E+02  0.00000000000E+00 0.  1.
         11    1    3    3    0    0 -0.42675836374E+01  0.55338653964E+02  0.17057446514E+03  0.17937733149E+03  0.00000000000E+00 0. -1.
          1    1    1    2  501    0 -0.16274366941E+02 -0.34245623460E+02 -0.73105407234E-01  0.37916000447E+02  0.00000000000E+00 0. -1.
<scales pt_clust_5="13000.00000" pt_clust_6="13000.00000" pt_clust_7="13000.00000" pt_clust_8="13000.00000" pt_clust_9="37.91593"></scales>
<clustering>
<clus scale="   37.916">  2  9  1 -1</clus>
<clus scale="   92.048">  7  8 -1 -1</clus>
<clus scale="   94.381">  5  6 -1 -1</clus>
<clus scale="  108.029">  1  7  2 -1</clus>
<clus scale="   37.916">  2  5  1 -1</clus>
</clustering>
</event>
<event>
 9    2  0.3764910E-005  0.9741565E+02  0.7546771E-02  0.1291000E+00
          2   -1    0    0  502    0 -0.00000000000E+00  0.00000000000E+00  0.65034085256E+03  0.65034085256E+03  0.00000000000E+00 0. -1.
         21   -1    0    0  501  502  0.00000000000E+00 -0.00000000000E+00 -0.23583048010E+02  0.23583048010E+02  0.00000000000E+00 0. -1.
         24    2    1    2    0    0 -0.33718489935E+02  0.40960812631E+01  0.26607579348E+03  0.27982045134E+03  0.79683390151E+02 0.  0.
         23    2    1    2    0    0  0.24216155920E+02 -0.52420857770E+02  0.27973055400E+03  0.29934735825E+03  0.89583980226E+02 0.  0.
        -13    1    3    3    0    0  0.10189790963E+02  0.31112045407E+02  0.13637048066E+03  0.14024513968E+03  0.00000000000E+00 0.  1.
         14    1    3    3    0    0 -0.43908280898E+02 -0.27015964143E+02  0.12970531282E+03  0.13957531166E+03  0.00000000000E+00 0. -1.
        -11    1    4    4    0    0 -0.14046409091E+02  0.16541675400E+02  0.11091812085E+03  0.11302105187E+03  0.00000000000E+00 0.  1.
         11    1    4    4    0    0  0.38262565011E+02 -0.68962533170E+02  0.16881243316E+03  0.18632630638E+03  0.00000000000E+00 0. -1.
          1    1    1    2  501    0  0.95023340146E+01  0.48324776507E+02  0.80951457066E+02  0.94756090977E+02  0.00000000000E+00 0. -1.
<scales pt_clust_5="13000.00000" pt_clust_6="13000.00000" pt_clust_7="13000.00000" pt_clust_8="13000.00000" pt_clust_9="49.25016"></scales>
<clustering>
<clus scale="   49.250">  2  9  1 -1</clus>
<clus scale="   79.683">  5  6 -1 -1</clus>
<clus scale="   88.397">  1  5  2 -1</clus>
<clus scale="   89.584">  7  8 -1 -1</clus>
<clus scale="   49.250">  2  5  1 -1</clus>
</clustering>
</event>
<event>
 9    2  0.3764910E-005  0.1062435E+03  0.7546771E-02  0.1272653E+00
         21   -1    0    0  501  502  0.00000000000E+00  0.00000000000E+00  0.65362945356E+02  0.65362945356E+02  0.00000000000E+00 0. -1.
         -1   -1    0    0    0  501 -0.00000000000E+00 -0.00000000000E+00 -0.38236976705E+03  0.38236976705E+03  0.00000000000E+00 0.  1.
         24    2    1    2    0    0 -0.64693315094E+02  0.46731233232E+01 -0.26336311298E+03  0.28142042594E+03  0.75035083544E+02 0.  0.
         23    2    1    2    0    0  0.48708102728E+02  0.25652487703E+02 -0.73563499317E+02  0.12666423788E+03  0.87187793468E+02 0.  0.
        -11    1    3    3    0    0 -0.62489166704E+02  0.70730818100E+01 -0.26826310298E+03  0.27553587219E+03  0.00000000000E+00 0.  1.
         12    1    3    3    0    0 -0.22041483904E+01 -0.23999584869E+01  0.48999900043E+01  0.58845537560E+01  0.00000000000E+00 0. -1.
        -11    1    4    4    0    0  0.39218502830E+02 -0.25468146650E+02 -0.16803555495E+02  0.49689807157E+02  0.00000000000E+00 0.  1.
         11    1    4    4    0    0  0.94895998986E+01  0.51120634353E+02 -0.56759943821E+02  0.76974430725E+02  0.00000000000E+00 0. -1.
         -2    1    1    2    0  502  0.15985212366E+02 -0.30325611026E+02  0.19919790601E+02  0.39648048578E+02  0.00000000000E+00 0.  1.
<scales pt_clust_5="13000.00000" pt_clust_6="13000.00000" pt_clust_7="13000.00000" pt_clust_8="13000.00000" pt_clust_9="34.28075"></scales>
<clustering>
<clus scale="   34.281">  1  9  2 -1</clus>
<clus scale="   75.035">  5  6 -1 -1</clus>
<clus scale="   87.188">  7  8 -1 -1</clus>
<clus scale="   96.521">  2  5  1 -1</clus>
<clus scale="   34.281">  1  5  2 -1</clus>
</clustering>
</event>
<event>
 9    2  0.3764910E-005  0.1201229E+03  0.7546771E-02  0.1245800E+00
          2   -1    0    0  502    0 -0.00000000000E+00  0.00000000000E+00  0.40762425861E+03  0.40762425861E+03  0.00000000000E+00 0. -1.
         21   -1    0    0  501  502  0.00000000000E+00 -0.00000000000E+00 -0.77372821471E+02  0.77372821471E+02  0.00000000000E+00 0.  1.
         24    2    1    2    0    0 -0.72712527111E+02  0.46965970547E+02  0.29295104011E+03  0.31607458713E+03  0.81178314476E+02 0.  0.
         23    2    1    2    0    0  0.62710226397E+02 -0.42277580366E+01  0.53073824206E+02  0.12228128978E+03  0.90473402624E+02 0.  0.
        -13    1    3    3    0    0 -0.76468250435E+02  0.37962420354E+02  0.29411021484E+03  0.30625048107E+03  0.00000000000E+00 0.  1.
         14    1    3    3    0    0  0.37557233240E+01  0.90035501929E+01 -0.11591747331E+01  0.98241060573E+01  0.00000000000E+00 0. -1.
        -11    1    4    4    0    0  0.58679281553E+02  0.17951212183E+02 -0.34170907859E+01  0.61458771642E+02  0.00000000000E+00 0.  1.
         11    1    4    4    0    0  0.40309448446E+01 -0.22178970219E+02  0.56490914992E+02  0.60822518141E+02  0.00000000000E+00 0. -1.
          1    1    1    2  501    0  0.10002300714E+02 -0.42738212510E+02 -0.15773427174E+02  0.46641203168E+02  0.00000000000E+00 0. -1.
<scales pt_clust_5="13000.00000" pt_clust_6="13000.00000" pt_clust_7="13000.00000" pt_clust_8="13000.00000" pt_clust_9="43.89306"></scales>
<clustering>
<clus scale="   43.893">  2  9  1 -1</clus>
<clus scale="   81.178">  5  6 -1 -1</clus>
<clus scale="   90.473">  7  8 -1 -1</clus>
<clus scale="  113.287">  1  5  2 -1</clus>
<clus scale="   43.893">  2  5  1 -1</clus>
</clustering>
</event>
<event>
 9    2  0.3764910E-005  0.9322583E+02  0.7546771E-02  0.1301305E+00
         21   -1    0    0  501  502  0.00000000000E+00  0.00000000000E+00  0.41715662310E+02  0.41715662310E+02  0.00000000000E+00 0. -1.
         -3   -1    0    0    0  501 -0.00000000000E+00 -0.00000000000E+00 -0.43009181429E+03  0.43009181429E+03  0.00000000000E+00 0.  1.
         23    2    1    2    0    0 -0.23131121724E+02 -0.10979698432E+02 -0.26288079323E+03  0.27918556359E+03  0.90458083629E+02 0.  0.
         24    2    1    2    0    0  0.21110125553E+01  0.17462320741E+02 -0.19531541412E+02  0.84398995083E+02  0.80201747122E+02 0.  0.
        -11    1    4    4    0    0  0.19557484879E+02 -0.13149331346E+02 -0.37926308964E+02  0.44652044088E+02  0.00000000000E+00 0.  1.
         12    1    4    4    0    0 -0.17446472324E+02  0.30611652088E+02  0.18394767552E+02  0.39746950995E+02  0.00000000000E+00 0. -1.
        -11    1    3    3    0    0  0.14839743345E+02  0.13791729972E+02 -0.10602139557E+02  0.22865589022E+02  0.00000000000E+00 0. -1.
         11    1    3    3    0    0 -0.37970865068E+02 -0.24771428404E+02 -0.25227865368E+03  0.25631997456E+03  0.00000000000E+00 0.  1.
         -4    1    1    2    0  502  0.21020109168E+02 -0.64826223090E+01 -0.10596381733E+03  0.10822291793E+03  0.00000000000E+00 0.  1.
<scales pt_clust_5="13000.00000" pt_clust_6="13000.00000" pt_clust_7="13000.00000" pt_clust_8="13000.00000" pt_clust_9="21.99704"></scales>
<clustering>
<clus scale="   21.997">  1  9  2 -1</clus>
<clus scale="   80.202">  5  6 -1 -1</clus>
<clus scale="   83.311">  1  5  2 -1</clus>
<clus scale="   90.458">  7  8 -1 -1</clus>
<clus scale="   21.997">  1  5  2 -1</clus>
</clustering>
</event>
<event>
 9    2  0.3764910E-005  0.9254054E+02  0.7546771E-02  0.1303107E+00
          2   -1    0    0  502    0 -0.00000000000E+00  0.00000000000E+00  0.63907537123E+03  0.63907537123E+03  0.00000000000E+00 0. -1.
         21   -1    0    0  501  502  0.00000000000E+00 -0.00000000000E+00 -0.18441021802E+02  0.18441021802E+02  0.00000000000E+00 0.  1.
         23    2    1    2    0    0  0.18929805464E+02  0.58500888364E+01  0.26697605498E+03  0.28250886446E+03  0.90235710715E+02 0.  0.
         24    2    1    2    0    0 -0.12442006343E+02  0.31588924884E+02  0.24697443803E+03  0.26175905616E+03  0.79804553393E+02 0.  0.
        -13    1    4    4    0    0 -0.39102351260E+02 -0.62193524370E+01  0.95654089404E+02  0.10352477500E+03  0.00000000000E+00 0.  1.
         14    1    4    4    0    0  0.26660344917E+02  0.37808277321E+02  0.15132034863E+03  0.15823428116E+03  0.00000000000E+00 0. -1.
        -13    1    3    3    0    0 -0.20492480804E+02 -0.17722033593E+02  0.27265073585E+02  0.38436915612E+02  0.00000000000E+00 0. -1.
         13    1    3    3    0    0  0.39422286268E+02  0.23572122429E+02  0.23971098140E+03  0.24407194885E+03  0.00000000000E+00 0.  1.
          1    1    1    2  501    0 -0.64877991206E+01 -0.37439013720E+02  0.10668385641E+03  0.11324847242E+03  0.00000000000E+00 0. -1.
<scales pt_clust_5="13000.00000" pt_clust_6="13000.00000" pt_clust_7="13000.00000" pt_clust_8="13000.00000" pt_clust_9="37.99699"></scales>
<clustering>
<clus scale="   37.997">  2  9  1 -1</clus>
<clus scale="   79.805">  5  6 -1 -1</clus>
<clus scale="   82.402">  2  5  1 -1</clus>
<clus scale="   90.236">  7  8 -1 -1</clus>
<clus scale="   37.997">  2  5  1 -1</clus>
</clustering>
</event>
<event>
 9    2  0.3764910E-005  0.1652688E+03  0.7546771E-02  0.1184530E+00
          2   -1    0    0  502    0 -0.00000000000E+00  0.00000000000E+00  0.70211374538E+03  0.70211374538E+03  0.00000000000E+00 0. -1.
         21   -1    0    0  501  502  0.00000000000E+00 -0.00000000000E+00 -0.63637159691E+02  0.63637159691E+02  0.00000000000E+00 0.  1.
         23    2    1    2    0    0  0.12164558870E+03  0.74982011130E+02  0.54845891150E+03  0.57414775844E+03  0.91752491380E+02 0.  0.
         24    2    1    2    0    0 -0.98618308703E+02 -0.68240345288E+02  0.83209543719E+02  0.16666208965E+03  0.80436984177E+02 0.  0.
        -11    1    4    4    0    0 -0.31173747930E+02 -0.66164644950E+02  0.24250839912E+02  0.77056252425E+02  0.00000000000E+00 0.  1.
         12    1    4    4    0    0 -0.67444560773E+02 -0.20757003376E+01  0.58958703808E+02  0.89605837223E+02  0.00000000000E+00 0. -1.
        -11    1    3    3    0    0 -0.17907180556E+00  0.21081198974E+02  0.19658445864E+02  0.28825396973E+02  0.00000000000E+00 0.  1.
         11    1    3    3    0    0  0.12182466051E+03  0.53900812156E+02  0.52880046564E+03  0.54532236147E+03  0.00000000000E+00 0. -1.
          1    1    1    2  501    0 -0.23027280001E+02 -0.67416658418E+01  0.68081304616E+01  0.24941056973E+02  0.00000000000E+00 0. -1.
<scales pt_clust_5="13000.00000" pt_clust_6="13000.00000" pt_clust_7="13000.00000" pt_clust_8="13000.00000" pt_clust_9="23.99387"></scales>
<clustering>
<clus scale="   23.994">  2  9  1 -1</clus>
<clus scale="   80.437">  5  6 -1 -1</clus>
<clus scale="   91.752">  7  8 -1 -1</clus>
<clus scale="  159.265">  2  5  1 -1</clus>
<clus scale="   23.994">  2  5  1 -1</clus>
</clustering>
</event>
<event>
 9    2  0.3764910E-005  0.1027633E+03  0.7546771E-02  0.1276809E+00
         21   -1    0    0  501  502  0.00000000000E+00  0.00000000000E+00  0.30726730831E+03  0.30726730831E+03  0.00000000000E+00 0. -1.
          4   -1    0    0  502    0 -0.00000000000E+00 -0.00000000000E+00 -0.13808342933E+03  0.13808342933E+03  0.00000000000E+00 0. -1.
         23    2    1    2    0    0  0.42472157327E+02  0.62191407020E+02 -0.55842198582E+02  0.12777008803E+03  0.86805466408E+02 0.  0.
         24    2    1    2    0    0  0.11361432279E+02 -0.36988983764E+02  0.59603498899E+01  0.90593842611E+02  0.81697316265E+02 0.  0.
        -11    1    4    4    0    0  0.30662664034E+01 -0.56580913040E+02  0.25101619438E+02  0.61974938552E+02  0.00000000000E+00 0.  1.
         12    1    4    4    0    0  0.82951658754E+01  0.19591929275E+02 -0.19141269548E+02  0.28618904059E+02  0.00000000000E+00 0. -1.
        -13    1    3    3    0    0  0.24399899034E+02  0.71596920025E+02 -0.83592308527E+01  0.76100924898E+02  0.00000000000E+00 0.  1.
         13    1    3    3    0    0  0.18072258293E+02 -0.94055130043E+01 -0.47482967729E+02  0.51669163135E+02  0.00000000000E+00 0. -1.
          3    1    1    2  501    0 -0.53833589606E+02 -0.25202423256E+02  0.21906572768E+03  0.22698680700E+03  0.00000000000E+00 0. -1.
<scales pt_clust_5="13000.00000" pt_clust_6="13000.00000" pt_clust_7="13000.00000" pt_clust_8="13000.00000" pt_clust_9="59.44087"></scales>
<clustering>
<clus scale="   59.441">  1  9  2 -1</clus>
<clus scale="   81.697">  5  6 -1 -1</clus>
<clus scale="   86.805">  7  8 -1 -1</clus>
<clus scale="   98.486">  1  5  2 -1</clus>
<clus scale="   59.441">  1  5  2 -1</clus>
</clustering>
</event>
<event>
 9    2  0.3764910E-005  0.9932717E+02  0.7546771E-02  0.1287433E+00
          2   -1    0    0  502    0 -0.00000000000E+00  0.00000000000E+00  0.46042739650E+03  0.46042739650E+03  0.00000000000E+00 0. -1.
         21   -1    0    0  501  502  0.00000000000E+00 -0.00000000000E+00 -0.40800974000E+02  0.40800974000E+02  0.00000000000E+00 0.  1.
         23    2    1    2    0    0  0.30193730613E+02  0.30104548039E+02  0.35578641234E+03  0.36989561556E+03  0.91765189600E+02 0.  0.
         24    2    1    2    0    0 -0.26645918663E+02 -0.11519509872E+01  0.41209709822E+02  0.94414326765E+02  0.80650436715E+02 0.  0.
        -13    1    4    4    0    0 -0.32155197144E+02 -0.35116817465E+02  0.35825070918E+02  0.59586771003E+02  0.00000000000E+00 0.  1.
         14    1    4    4    0    0  0.55092784802E+01  0.33964866478E+02  0.53846389042E+01  0.34827555762E+02  0.00000000000E+00 0. -1.
        -11    1    3    3    0    0  0.75209152410E+01 -0.24701390903E+02  0.34023914321E+02  0.42712405977E+02  0.00000000000E+00 0.  1.
         11    1    3    3    0    0  0.22672815372E+02  0.54805938942E+02  0.32176249802E+03  0.32718320958E+03  0.00000000000E+00 0. -1.
          1    1    1    2  501    0 -0.35478119495E+01 -0.28952597051E+02  0.22630300337E+02  0.36918428176E+02  0.00000000000E+00 0. -1.
<scales pt_clust_5="13000.00000" pt_clust_6="13000.00000" pt_clust_7="13000.00000" pt_clust_8="13000.00000" pt_clust_9="29.16916"></scales>
<clustering>
<clus scale="   29.169">  2  9  1 -1</clus>
<clus scale="   80.650">  5  6 -1 -1</clus>
<clus scale="   89.160">  2  5  1 -1</clus>
<clus scale="   91.765">  7  8 -1 -1</clus>
<clus scale="   29.169">  2  5  1 -1</clus>
</clustering>
</event>
<event>
 9    2  0.3764910E-005  0.1579892E+03  0.7546771E-02  0.1219004E+00
          2   -1    0    0  502    0 -0.00000000000E+00  0.00000000000E+00  0.76364719872E+03  0.76364719872E+03  0.00000000000E+00 0. -1.
         21   -1    0    0  501  502  0.00000000000E+00 -0.00000000000E+00 -0.50956802502E+02  0.50956802502E+02  0.00000000000E+00 0. -1.
         24    2    1    2    0    0  0.73224080308E+01 -0.22412847050E+02  0.59043534171E+02  0.10465284881E+03  0.83127170436E+02 0.  0.
         23    2    1    2    0    0 -0.68265767002E+02 -0.86058990406E+02  0.38394290082E+03  0.41293186142E+03  0.10504383040E+03 0.  0.
        -11    1    3    3    0    0 -0.22431368079E+02 -0.29403312087E+02  0.63777552375E+02  0.73724468275E+02  0.00000000000E+00 0.  1.
         12    1    3    3    0    0  0.29753776110E+02  0.69904650366E+01 -0.47340182032E+01  0.30928380536E+02  0.00000000000E+00 0. -1.
        -11    1    4    4    0    0  0.21067282113E+02  0.57514756156E-01  0.22686494764E+02  0.30959824423E+02  0.00000000000E+00 0.  1.
         11    1    4    4    0    0 -0.89333049115E+02 -0.86116505163E+02  0.36125640606E+03  0.38197203699E+03  0.00000000000E+00 0. -1.
          1    1    1    2  501    0  0.60943358971E+02  0.10847183746E+03  0.26970396123E+03  0.29701929100E+03  0.00000000000E+00 0. -1.
<scales pt_clust_5="13000.00000" pt_clust_6="13000.00000" pt_clust_7="13000.00000" pt_clust_8="13000.00000" pt_clust_9="118.01004"></scales>
<clustering>
<clus scale="   83.127">  5  6 -1 -1</clus>
<clus scale="   86.407">  1  5  2 -1</clus>
<clus scale="  105.044">  7  8 -1 -1</clus>
<clus scale="  118.010">  2  9  1 -1</clus>
<clus scale="  118.010">  2  5  1 -1</clus>
</clustering>
</event>
<event>
 9    2  0.3764910E-005  0.2235215E+03  0.7546771E-02  0.1132092E+00
         21   -1    0    0  501  502  0.00000000000E+00  0.00000000000E+00  0.12119198674E+03  0.12119198674E+03  0.00000000000E+00 0.  1.
         -1   -1    0    0    0  501 -0.00000000000E+00 -0.00000000000E+00 -0.92247780805E+03  0.92247780805E+03  0.00000000000E+00 0.  1.
         24    2    1    2    0    0 -0.15730383640E+03  0.21279011390E+02 -0.22614334948E+03  0.28749887090E+03  0.79482658361E+02 0.  0.
         23    2    1    2    0    0  0.28551572998E+03 -0.11915898064E+03 -0.31977153373E+03  0.45412275877E+03  0.90860065550E+02 0.  0.
        -13    1    3    3    0    0 -0.11530313080E+03 -0.12635364715E+02 -0.18974469040E+03  0.22239044932E+03  0.00000000000E+00 0.  1.
         14    1    3    3    0    0 -0.42000705593E+02  0.33914376105E+02 -0.36398659086E+02  0.65108421576E+02  0.00000000000E+00 0. -1.
        -11    1    4    4    0    0  0.82945203112E+02 -0.17084125033E+01 -0.12246895175E+03  0.14792386398E+03  0.00000000000E+00 0. -1.
         11    1    4    4    0    0  0.20257052687E+03 -0.11745056813E+03 -0.19730258198E+03  0.30619889478E+03  0.00000000000E+00 0.  1.
         -2    1    1    2    0  502 -0.12821189358E+03  0.97879969247E+02 -0.25537093809E+03  0.30204816513E+03  0.00000000000E+00 0.  1.
<scales pt_clust_5="13000.00000" pt_clust_6="13000.00000" pt_clust_7="13000.00000" pt_clust_8="13000.00000" pt_clust_9="161.30345"></scales>
<clustering>
<clus scale="   79.483">  5  6 -1 -1</clus>
<clus scale="   90.860">  7  8 -1 -1</clus>
<clus scale="  161.303">  1  9  2 -1</clus>
<clus scale="  219.143">  2  5  1 -1</clus>
<clus scale="  161.303">  1  5  2 -1</clus>
</clustering>
</event>
<event>
 9    2  0.3764910E-005  0.1012932E+03  0.7546771E-02  0.1287067E+00
         21   -1    0    0  501  502  0.00000000000E+00  0.00000000000E+00  0.30304169170E+02  0.30304169170E+02  0.00000000000E+00 0. -1.
          2   -1    0    0  502    0 -0.00000000000E+00 -0.00000000000E+00 -0.44236460648E+03  0.44236460648E+03  0.00000000000E+00 0. -1.
         23    2    1    2    0    0 -0.28002240651E+02  0.41033487643E+01 -0.16345239937E+03  0.19187366225E+03  0.96425372459E+02 0.  0.
         24    2    1    2    0    0  0.22429356829E+02 -0.32264522001E+02 -0.11881578161E+03  0.14786604014E+03  0.78759764099E+02 0.  0.
        -11    1    4    4    0    0  0.14178281221E+02  0.21118232878E+02 -0.72083765152E+02  0.76439993569E+02  0.00000000000E+00 0.  1.
         12    1    4    4    0    0  0.82510756078E+01 -0.53382754879E+02 -0.46732016454E+02  0.71426046573E+02  0.00000000000E+00 0. -1.
        -13    1    3    3    0    0  0.21021092753E+01 -0.28439875429E+02 -0.13766352684E+03  0.14058624399E+03  0.00000000000E+00 0.  1.
         13    1    3    3    0    0 -0.30104349926E+02  0.32543224193E+02 -0.25788872529E+02  0.51287418259E+02  0.00000000000E+00 0. -1.
          1    1    1    2  501    0  0.55728838219E+01  0.28161173237E+02 -0.12979225633E+03  0.13292907326E+03  0.00000000000E+00 0. -1.
<scales pt_clust_5="13000.00000" pt_clust_6="13000.00000" pt_clust_7="13000.00000" pt_clust_8="13000.00000" pt_clust_9="28.70731"></scales>
<clustering>
<clus scale="   28.707">  1  9  2 -1</clus>
<clus scale="   78.760">  5  6 -1 -1</clus>
<clus scale="   84.650">  1  5  2 -1</clus>
<clus scale="   96.425">  7  8 -1 -1</clus>
<clus scale="   28.707">  1  5  2 -1</clus>
</clustering>
</event>
<event>
 9    2  0.3764910E-005  0.1123594E+03  0.7546771E-02  0.1260338E+00
          2   -1    0    0  502    0 -0.00000000000E+00  0.00000000000E+00  0.20091862299E+03  0.20091862299E+03  0.00000000000E+00 0. -1.
         21   -1    0    0  501  502  0.00000000000E+00 -0.00000000000E+00 -0.14181670172E+03  0.14181670172E+03  0.00000000000E+00 0. -1.
         24    2    1    2    0    0  0.82144759210E+01 -0.75130491141E+02  0.11018945345E+03  0.15592027047E+03  0.80357618054E+02 0.  0.
         23    2    1    2    0    0 -0.45837438482E+01  0.47471184887E+02  0.24828599101E+02  0.10593564755E+03  0.91276382415E+02 0.  0.
        -11    1    3    3    0    0  0.23943985385E+02  0.80516729709E+01  0.31108274374E+02  0.40073290460E+02  0.00000000000E+00 0.  1.
         12    1    3    3    0    0 -0.15729509464E+02 -0.83182164112E+02  0.79081179077E+02  0.11584698001E+03  0.00000000000E+00 0. -1.
        -11    1    4    4    0    0 -0.16887246807E+02  0.14881745615E+02 -0.32093843387E+02  0.39200258170E+02  0.00000000000E+00 0.  1.
         11    1    4    4    0    0  0.12303502959E+02  0.32589439272E+02  0.56922442488E+02  0.66735389382E+02  0.00000000000E+00 0. -1.
          1    1    1    2  501    0 -0.36307320728E+01  0.27659306254E+02 -0.75916131283E+02  0.80879406692E+02  0.00000000000E+00 0. -1.
<scales pt_clust_5="13000.00000" pt_clust_6="13000.00000" pt_clust_7="13000.00000" pt_clust_8="13000.00000" pt_clust_9="27.89658"></scales>
<clustering>
<clus scale="   27.897">  2  9  1 -1</clus>
<clus scale="   80.358">  5  6 -1 -1</clus>
<clus scale="   91.276">  7  8 -1 -1</clus>
<clus scale="  103.685">  1  5  2 -1</clus>
<clus scale="   27.897">  2  5  1 -1</clus>
</clustering>
</event>
<event>
 9    2  0.3764910E-005  0.1016080E+03  0.7546771E-02  0.1282239E+00
          2   -1    0    0  502    0 -0.00000000000E+00  0.00000000000E+00  0.19781329401E+03  0.19781329401E+03  0.00000000000E+00 0. -1.
         21   -1    0    0  501  502  0.00000000000E+00 -0.00000000000E+00 -0.79598555684E+02  0.79598555684E+02  0.00000000000E+00 0. -1.
         24    2    1    2    0    0  0.40259107325E+02 -0.24205724940E+02  0.11507413941E+03  0.14808774370E+03  0.80505958972E+02 0.  0.
         23    2    1    2    0    0 -0.22188219566E+02  0.34033240984E+02  0.20797635198E+02  0.10221491961E+03  0.91459114265E+02 0.  0.
        -11    1    3    3    0    0  0.10046254353E+01 -0.46242582491E+02  0.43263572772E+02  0.63333422746E+02  0.00000000000E+00 0.  1.
         12    1    3    3    0    0  0.39254481890E+02  0.22036857551E+02  0.71810566638E+02  0.84754320952E+02  0.00000000000E+00 0. -1.
        -13    1    4    4    0    0 -0.43340922250E+02  0.27465890801E+02 -0.20578412437E+02  0.55283648191E+02  0.00000000000E+00 0.  1.
         13    1    4    4    0    0  0.21152702684E+02  0.65673501832E+01  0.41376047635E+02  0.46931271421E+02  0.00000000000E+00 0. -1.
          1    1    1    2  501    0 -0.18070887760E+02 -0.98275160437E+01 -0.17657036283E+02  0.27109186382E+02  0.00000000000E+00 0. -1.
<scales pt_clust_5="13000.00000" pt_clust_6="13000.00000" pt_clust_7="13000.00000" pt_clust_8="13000.00000" pt_clust_9="20.57030"></scales>
<clustering>
<clus scale="   20.570">  2  9  1 -1</clus>
<clus scale="   80.506">  5  6 -1 -1</clus>
<clus scale="   91.459">  7  8 -1 -1</clus>
<clus scale="   91.873">  1  5  2 -1</clus>
<clus scale="   20.570">  2  5  1 -1</clus>
</clustering>
</event>
<event>
 9    2  0.3764910E-005  0.9547784E+02  0.7546771E-02  0.1297042E+00
         21   -1    0    0  501  502  0.00000000000E+00  0.00000000000E+00  0.80104033637E+02  0.80104033637E+02  0.00000000000E+00 0. -1.
         -1   -1    0    0    0  501 -0.00000000000E+00 -0.00000000000E+00 -0.33523609492E+03  0.33523609492E+03  0.00000000000E+00 0.  1.
         24    2    1    2    0    0  0.31262292797E+02 -0.21575663942E+01 -0.26209438403E+03  0.27547766069E+03  0.78819346342E+02 0.  0.
         23    2    1    2    0    0 -0.47447904267E+01 -0.19936424306E+02  0.30393117549E+02  0.98145271143E+02  0.91042729546E+02 0.  0.
        -11    1    3    3    0    0  0.56932295365E+02 -0.97801194399E+01 -0.18910700277E+03  0.19773314211E+03  0.00000000000E+00 0.  1.
         12    1    3    3    0    0 -0.25670002568E+02  0.76225530456E+01 -0.72987381259E+02  0.77744518584E+02  0.00000000000E+00 0. -1.
        -13    1    4    4    0    0 -0.24720879142E+02  0.28559378468E+02  0.50018349708E+00  0.37775787848E+02  0.00000000000E+00 0.  1.
         13    1    4    4    0    0  0.19976088715E+02 -0.48495802774E+02  0.29892934052E+02  0.60369483295E+02  0.00000000000E+00 0. -1.
         -2    1    1    2    0  502 -0.26517502371E+02  0.22093990700E+02 -0.23430794803E+02  0.41717196720E+02  0.00000000000E+00 0.  1.
<scales pt_clust_5="13000.00000" pt_clust_6="13000.00000" pt_clust_7="13000.00000" pt_clust_8="13000.00000" pt_clust_9="34.51554"></scales>
<clustering>
<clus scale="   34.516">  1  9  2 -1</clus>
<clus scale="   78.819">  5  6 -1 -1</clus>
<clus scale="   83.903">  2  5  1 -1</clus>
<clus scale="   91.043">  7  8 -1 -1</clus>
<clus scale="   34.516">  1  5  2 -1</clus>
</clustering>
</event>
<event>
 9    2  0.3764910E-005  0.9433283E+02  0.7546771E-02  0.1299653E+00
         -3   -1    0    0    0  501 -0.00000000000E+00  0.00000000000E+00  0.15346900589E+03  0.15346900589E+03  0.00000000000E+00 0.  1.
         21   -1    0    0  501  502  0.00000000000E+00 -0.00000000000E+00 -0.11304607854E+03  0.11304607854E+03  0.00000000000E+00 0. -1.
         23    2    1    2    0    0  0.12491838858E+02  0.16155021409E+02  0.10191282621E+03  0.13892758426E+03  0.92182529627E+02 0.  0.
         24    2    1    2    0    0  0.99272250885E+01 -0.27029952690E+02 -0.38609294621E+02  0.93758509515E+02  0.80441359604E+02 0.  0.
        -11    1    4    4    0    0  0.35835065286E+02 -0.32602922396E+02 -0.19011240016E+01  0.48484190467E+02  0.00000000000E+00 0.  1.
         12    1    4    4    0    0 -0.25907840197E+02  0.55729697057E+01 -0.36708170620E+02  0.45274319048E+02  0.00000000000E+00 0. -1.
        -11    1    3    3    0    0  0.41747637193E+02 -0.19471153058E+02  0.66023525140E+02  0.80505259980E+02  0.00000000000E+00 0.  1.
         11    1    3    3    0    0 -0.29255798335E+02  0.35626174467E+02  0.35889301070E+02  0.58422324284E+02  0.00000000000E+00 0. -1.
         -4    1    1    2    0  502 -0.22419063947E+02  0.10874931281E+02 -0.22880604229E+02  0.33828990651E+02  0.00000000000E+00 0.  1.
<scales pt_clust_5="13000.00000" pt_clust_6="13000.00000" pt_clust_7="13000.00000" pt_clust_8="13000.00000" pt_clust_9="24.91743"></scales>
<clustering>
<clus scale="   24.917">  2  9  1 -1</clus>
<clus scale="   80.441">  5  6 -1 -1</clus>
<clus scale="   82.897">  2  5  1 -1</clus>
<clus scale="   92.183">  7  8 -1 -1</clus>
<clus scale="   24.917">  2  5  1 -1</clus>
</clustering>
</event>
<event>
 9    2  0.3764910E-005  0.2845935E+03  0.7546771E-02  0.1141881E+00
          2   -1    0    0  502    0 -0.00000000000E+00  0.00000000000E+00  0.49517688147E+03  0.49517688147E+03  0.00000000000E+00 0. -1.
         21   -1    0    0  501  502  0.00000000000E+00 -0.00000000000E+00 -0.34098031007E+03  0.34098031007E+03  0.00000000000E+00 0. -1.
         24    2    1    2    0    0 -0.20738488230E+02 -0.13188967338E+02  0.22180498391E+03  0.23708503119E+03  0.80048906160E+02 0.  0.
         23    2    1    2    0    0  0.82697498126E+02 -0.25674077488E+03 -0.13639059375E+03  0.31370928067E+03  0.84002482301E+02 0.  0.
        -11    1    3    3    0    0  0.27620123842E+02 -0.14534060362E+02  0.12536121129E+03  0.12918801588E+03  0.00000000000E+00 0.  1.
         12    1    3    3    0    0 -0.48358612072E+02  0.13450930239E+01  0.96443772618E+02  0.10789701531E+03  0.00000000000E+00 0. -1.
        -13    1    4    4    0    0 -0.70518533590E+00 -0.35146084733E+02  0.84443978473E+01  0.36153179852E+02  0.00000000000E+00 0.  1.
         13    1    4    4    0    0  0.83402683462E+02 -0.22159469014E+03 -0.14483499160E+03  0.27755610082E+03  0.00000000000E+00 0. -1.
          1    1    1    2  501    0 -0.61959009896E+02  0.26992974221E+03  0.68782181245E+02  0.28536287967E+03  0.00000000000E+00 0. -1.
<scales pt_clust_5="13000.00000" pt_clust_6="13000.00000" pt_clust_7="13000.00000" pt_clust_8="13000.00000" pt_clust_9="271.91383"></scales>
<clustering>
<clus scale="   80.049">  5  6 -1 -1</clus>
<clus scale="   83.737">  1  5  2 -1</clus>
<clus scale="   84.002">  7  8 -1 -1</clus>
<clus scale="  271.914">  2  9  1 -1</clus>
<clus scale="  271.914">  2  5  1 -1</clus>
</clustering>
</event>
<event>
 9    2  0.3764910E-005  0.1312920E+03  0.7546771E-02  0.1245541E+00
          2   -1    0    0  502    0 -0.00000000000E+00  0.00000000000E+00  0.94510564563E+03  0.94510564563E+03  0.00000000000E+00 0. -1.
         21   -1    0    0  501  502  0.00000000000E+00 -0.00000000000E+00 -0.44011245531E+02  0.44011245531E+02  0.00000000000E+00 0.  1.
         24    2    1    2    0    0  0.23864530042E+02 -0.18066295154E+02  0.99278445398E+02  0.13214834069E+03  0.81921104799E+02 0.  0.
         23    2    1    2    0    0  0.59793365537E+02 -0.63985806572E+02  0.15799407350E+03  0.20256973813E+03  0.91667559895E+02 0.  0.
        -13    1    3    3    0    0 -0.58986464856E+01 -0.25421072412E+02 -0.21526694961E+01  0.26185090011E+02  0.00000000000E+00 0.  1.
         14    1    3    3    0    0  0.29763176528E+02  0.73547772583E+01  0.10143111489E+03  0.10596325068E+03  0.00000000000E+00 0. -1.
        -13    1    4    4    0    0  0.80685028269E+02 -0.33307214929E+02  0.91771387682E+02  0.12665477468E+03  0.00000000000E+00 0.  1.
         13    1    4    4    0    0 -0.20891662732E+02 -0.30678591643E+02  0.66222685823E+02  0.75914963443E+02  0.00000000000E+00 0. -1.
          1    1    1    2  501    0 -0.83657895580E+02  0.82052101726E+02  0.64382188119E+03  0.65439881234E+03  0.00000000000E+00 0. -1.
<scales pt_clust_5="13000.00000" pt_clust_6="13000.00000" pt_clust_7="13000.00000" pt_clust_8="13000.00000" pt_clust_9="93.99283"></scales>
<clustering>
<clus scale="   81.921">  5  6 -1 -1</clus>
<clus scale="   87.218">  1  5  2 -1</clus>
<clus scale="   91.668">  7  8 -1 -1</clus>
<clus scale="   93.993">  2  9  1 -1</clus>
<clus scale="   93.993">  2  5  1 -1</clus>
</clustering>
</event>
<event>
 9    2  0.3764910E-005  0.9567195E+02  0.7546771E-02  0.1294652E+00
          2   -1    0    0  502    0 -0.00000000000E+00  0.00000000000E+00  0.14130638982E+04  0.14130638982E+04  0.00000000000E+00 0. -1.
         21   -1    0    0  501  502  0.00000000000E+00 -0.00000000000E+00 -0.16249735730E+02  0.16249735730E+02  0.00000000000E+00 0.  1.
         23    2    1    2    0    0 -0.13465454223E+02 -0.13228238175E+02  0.30229231171E+03  0.31619989698E+03  0.90804341246E+02 0.  0.
         24    2    1    2    0    0 -0.13587518542E+02 -0.69643929166E+02  0.45467710091E+03  0.46735761939E+03  0.81590322828E+02 0.  0.
        -11    1    4    4    0    0  0.83473560840E+01 -0.42442094012E+02  0.79066230727E+02  0.90124794253E+02  0.00000000000E+00 0.  1.
         12    1    4    4    0    0 -0.21934874626E+02 -0.27201835154E+02  0.37561087019E+03  0.37723282514E+03  0.00000000000E+00 0. -1.
        -11    1    3    3    0    0 -0.18816110836E+02  0.32643101089E+02  0.71371563001E+02  0.80706369519E+02  0.00000000000E+00 0.  1.
         11    1    3    3    0    0  0.53506566131E+01 -0.45871339265E+02  0.23092074871E+03  0.23549352746E+03  0.00000000000E+00 0. -1.
          1    1    1    2  501    0  0.27052972765E+02  0.82872167342E+02  0.63984474983E+03  0.64575611754E+03  0.00000000000E+00 0. -1.
<scales pt_clust_5="13000.00000" pt_clust_6="13000.00000" pt_clust_7="13000.00000" pt_clust_8="13000.00000" pt_clust_9="87.17607"></scales>
<clustering>
<clus scale="   81.590">  5  6 -1 -1</clus>
<clus scale="   87.176">  2  9  1 -1</clus>
<clus scale="   87.176">  2  5  1 -1</clus>
<clus scale="   90.804">  7  8 -1 -1</clus>
<clus scale="   87.176">  2  5  1 -1</clus>
</clustering>
</event>
<event>
 9    2  0.3764910E-005  0.1253316E+03  0.7546771E-02  0.1236817E+00
         21   -1    0    0  501  502  0.00000000000E+00  0.00000000000E+00  0.22553680330E+02  0.22553680330E+02  0.00000000000E+00 0. -1.
         -1   -1    0    0    0  501 -0.00000000000E+00 -0.00000000000E+00 -0.94784294642E+03  0.94784294642E+03  0.00000000000E+00 0.  1.
         24    2    1    2    0    0 -0.79055077367E+02  0.97677966713E+01 -0.37029727024E+03  0.38795797166E+03  0.83941672104E+02 0.  0.
         23    2    1    2    0    0  0.92373643260E+02  0.29611556904E+02 -0.38812887795E+03  0.41047523515E+03  0.91848562843E+02 0.  0.
        -13    1    3    3    0    0 -0.72657599848E+02 -0.27619184687E+02 -0.25468341731E+03  0.26628103431E+03  0.00000000000E+00 0.  1.
         14    1    3    3    0    0 -0.63974775183E+01  0.37386981359E+02 -0.11561385293E+03  0.12167693735E+03  0.00000000000E+00 0. -1.
        -11    1    4    4    0    0  0.84934827741E+02 -0.52185297155E+01 -0.34068027373E+03  0.35114698763E+03  0.00000000000E+00 0.  1.
         11    1    4    4    0    0  0.74388155192E+01  0.34830086619E+02 -0.47448604223E+02  0.59328247513E+02  0.00000000000E+00 0. -1.
         -2    1    1    2    0  502 -0.13318565893E+02 -0.39379353575E+02 -0.16686311790E+03  0.17196341995E+03  0.00000000000E+00 0.  1.
<scales pt_clust_5="13000.00000" pt_clust_6="13000.00000" pt_clust_7="13000.00000" pt_clust_8="13000.00000" pt_clust_9="41.57066"></scales>
<clustering>
<clus scale="   41.571">  1  9  2 -1</clus>
<clus scale="   83.942">  5  6 -1 -1</clus>
<clus scale="   91.849">  7  8 -1 -1</clus>
<clus scale="  119.658">  2  5  1 -1</clus>
<clus scale="   41.571">  1  5  2 -1</clus>
</clustering>
</event>
<event>
 9    2  0.3764910E-005  0.1132374E+03  0.7546771E-02  0.1259717E+00
         21   -1    0    0  501  502  0.00000000000E+00  0.00000000000E+00  0.24073373726E+03  0.24073373726E+03  0.00000000000E+00 0.  1.
         -1   -1    0    0    0  501 -0.00000000000E+00 -0.00000000000E+00 -0.29470577952E+03  0.29470577952E+03  0.00000000000E+00 0.  1.
         23    2    1    2    0    0 -0.28007414452E+01  0.76911410543E+02 -0.24991398478E+03  0.27693333596E+03  0.91169422265E+02 0.  0.
         24    2    1    2    0    0 -0.23161035370E+02 -0.16798883378E+02  0.45189223685E+02  0.94147086114E+02  0.77478847723E+02 0.  0.
        -11    1    4    4    0    0 -0.25573221832E+02  0.21176531604E+02  0.45213144682E+02  0.56095130071E+02  0.00000000000E+00 0.  1.
         12    1    4    4    0    0  0.24121864613E+01 -0.37975414982E+02 -0.23920996926E-01  0.38051956044E+02  0.00000000000E+00 0. -1.
        -11    1    3    3    0    0  0.13771922259E+02  0.46139594831E+02 -0.23333190800E+03  0.23824841520E+03  0.00000000000E+00 0.  1.
         11    1    3    3    0    0 -0.16572663705E+02  0.30771815712E+02 -0.16582076781E+02  0.38684920768E+02  0.00000000000E+00 0. -1.
         -2    1    1    2    0  502  0.25961776815E+02 -0.60112527165E+02  0.15075271884E+03  0.16435909471E+03  0.00000000000E+00 0.  1.
<scales pt_clust_5="13000.00000" pt_clust_6="13000.00000" pt_clust_7="13000.00000" pt_clust_8="13000.00000" pt_clust_9="65.47923"></scales>
<clustering>
<clus scale="   65.479">  1  9  2 -1</clus>
<clus scale="   77.479">  5  6 -1 -1</clus>
<clus scale="   91.169">  7  8 -1 -1</clus>
<clus scale="  102.537">  1  5  2 -1</clus>
<clus scale="   65.479">  1  5  2 -1</clus>
</clustering>
</event>
<event>
 9    2  0.3764910E-005  0.1384665E+03  0.7546771E-02  0.1218148E+00
          2   -1    0    0  502    0 -0.00000000000E+00  0.00000000000E+00  0.55629281132E+03  0.55629281132E+03  0.00000000000E+00 0. -1.
         21   -1    0    0  501  502  0.00000000000E+00 -0.00000000000E+00 -0.78244351480E+02  0.78244351480E+02  0.00000000000E+00 0. -1.
         23    2    1    2    0    0 -0.95800173818E+02  0.59460334112E+02  0.40530181058E+03  0.43059863512E+03  0.91828221543E+02 0.  0.
         24    2    1    2    0    0  0.46907565986E+02 -0.75858499864E+02  0.89912931569E+02  0.14958718740E+03  0.79606278795E+02 0.  0.
        -11    1    4    4    0    0  0.60314213609E+02 -0.23733650230E+02  0.58240945118E+02  0.87138385369E+02  0.00000000000E+00 0.  1.
         12    1    4    4    0    0 -0.13406647622E+02 -0.52124849634E+02  0.31671986450E+02  0.62448802034E+02  0.00000000000E+00 0. -1.
        -11    1    3    3    0    0  0.21312969643E+01  0.41570337957E+02  0.17160673662E+03  0.17658286292E+03  0.00000000000E+00 0. -1.
         11    1    3    3    0    0 -0.97931470783E+02  0.17889996156E+02  0.23369507396E+03  0.25401577220E+03  0.00000000000E+00 0.  1.
          1    1    1    2  501    0  0.48892607832E+02  0.16398165752E+02 -0.17166282315E+02  0.54351340270E+02  0.00000000000E+00 0. -1.
<scales pt_clust_5="13000.00000" pt_clust_6="13000.00000" pt_clust_7="13000.00000" pt_clust_8="13000.00000" pt_clust_9="51.56924"></scales>
<clustering>
<clus scale="   51.569">  2  9  1 -1</clus>
<clus scale="   79.606">  5  6 -1 -1</clus>
<clus scale="   91.828">  7  8 -1 -1</clus>
<clus scale="  130.682">  2  5  1 -1</clus>
<clus scale="   51.569">  2  5  1 -1</clus>
</clustering>
</event>
<event>
 9    2  0.3764910E-005  0.8793947E+02  0.7546771E-02  0.1312293E+00
         21   -1    0    0  501  502  0.00000000000E+00  0.00000000000E+00  0.79328016834E+02  0.79328016834E+02  0.00000000000E+00 0.  1.
         -1   -1    0    0    0  501 -0.00000000000E+00 -0.00000000000E+00 -0.35398280429E+03  0.35398280429E+03  0.00000000000E+00 0.  1.
         23    2    1    2    0    0 -0.58256777665E+01  0.97166816444E+01 -0.15185129749E+03  0.17512310827E+03  0.86492393166E+02 0.  0.
         24    2    1    2    0    0  0.61648199479E+01  0.37274771554E+02 -0.17005170894E+03  0.19154909127E+03  0.79662143181E+02 0.  0.
        -13    1    4    4    0    0  0.26120887253E+02  0.47014788119E+02 -0.15661839529E+03  0.16559593230E+03  0.00000000000E+00 0.  1.
         14    1    4    4    0    0 -0.19956067305E+02 -0.97400165653E+01 -0.13433313649E+02  0.25953158971E+02  0.00000000000E+00 0. -1.
        -11    1    3    3    0    0 -0.12503770174E+02  0.45261655867E+02 -0.58526921812E+02  0.75035740399E+02  0.00000000000E+00 0. -1.
         11    1    3    3    0    0  0.66780924075E+01 -0.35544974223E+02 -0.93324375682E+02  0.10008736787E+03  0.00000000000E+00 0.  1.
         -2    1    1    2    0  502 -0.33914218144E+00 -0.46991453198E+02  0.47248218970E+02  0.66638621586E+02  0.00000000000E+00 0.  1.
<scales pt_clust_5="13000.00000" pt_clust_6="13000.00000" pt_clust_7="13000.00000" pt_clust_8="13000.00000" pt_clust_9="46.99268"></scales>
<clustering>
<clus scale="   46.993">  1  9  2 -1</clus>
<clus scale="   79.662">  5  6 -1 -1</clus>
<clus scale="   81.231">  1  5  2 -1</clus>
<clus scale="   86.492">  7  8 -1 -1</clus>
<clus scale="   46.993">  1  5  2 -1</clus>
</clustering>
</event>
<event>
 9    2  0.3764910E-005  0.2302891E+03  0.7546771E-02  0.1126436E+00
          2   -1    0    0  502    0 -0.00000000000E+00  0.00000000000E+00  0.10171388005E+04  0.10171388005E+04  0.00000000000E+00 0. -1.
         21   -1    0    0  501  502  0.00000000000E+00 -0.00000000000E+00 -0.70937362061E+02  0.70937362061E+02  0.00000000000E+00 0. -1.
         24    2    1    2    0    0 -0.50742272841E+02 -0.72322269723E+02  0.81233335379E+02  0.14430592387E+03  0.80125251544E+02 0.  0.
         23    2    1    2    0    0  0.16049308318E+02 -0.58906096167E+02  0.56589307889E+02  0.12407470846E+03  0.92003668675E+02 0.  0.
        -13    1    3    3    0    0  0.17511945080E+02 -0.25862546168E+02  0.43435644651E+02  0.53499483559E+02  0.00000000000E+00 0.  1.
         14    1    3    3    0    0 -0.68254217921E+02 -0.46459723555E+02  0.37797690727E+02  0.90806440306E+02  0.00000000000E+00 0. -1.
        -13    1    4    4    0    0 -0.30428565173E+02  0.55707715441E+01  0.15566602027E+02  0.34630191636E+02  0.00000000000E+00 0.  1.
         13    1    4    4    0    0  0.46477873491E+02 -0.64476867711E+02  0.41022705862E+02  0.89444516826E+02  0.00000000000E+00 0. -1.
          1    1    1    2  501    0  0.34692964522E+02  0.13122836589E+03  0.80837879516E+03  0.81969553022E+03  0.00000000000E+00 0. -1.
<scales pt_clust_5="13000.00000" pt_clust_6="13000.00000" pt_clust_7="13000.00000" pt_clust_8="13000.00000" pt_clust_9="135.73689"></scales>
<clustering>
<clus scale="   80.125">  5  6 -1 -1</clus>
<clus scale="   92.004">  7  8 -1 -1</clus>
<clus scale="  108.597">  5  7 -1 -1</clus>
<clus scale="  135.737">  2  9  1 -1</clus>
<clus scale="  135.737">  2  5  1 -1</clus>
</clustering>
</event>
<event>
 9    2  0.3764910E-005  0.1152245E+03  0.7546771E-02  0.1254585E+00
         21   -1    0    0  501  502  0.00000000000E+00  0.00000000000E+00  0.20024490257E+03  0.20024490257E+03  0.00000000000E+00 0. -1.
          4   -1    0    0  502    0 -0.00000000000E+00 -0.00000000000E+00 -0.15813351991E+03  0.15813351991E+03  0.00000000000E+00 0. -1.
         24    2    1    2    0    0  0.63250723701E+02 -0.16606518136E+02 -0.66017394520E+02  0.12326923755E+03  0.80997395356E+02 0.  0.
         23    2    1    2    0    0 -0.71124928716E+02  0.50867530423E+02  0.49738556958E+01  0.12612864587E+03  0.90760315841E+02 0.  0.
        -13    1    3    3    0    0  0.27570729850E+02  0.25653022045E+02 -0.55343275716E+02  0.66941025175E+02  0.00000000000E+00 0.  1.
         14    1    3    3    0    0  0.35679993852E+02 -0.42259540181E+02 -0.10674118804E+02  0.56328212379E+02  0.00000000000E+00 0. -1.
        -11    1    4    4    0    0  0.11529151888E+02  0.23757545765E+02  0.25547172874E+02  0.36742351121E+02  0.00000000000E+00 0.  1.
         11    1    4    4    0    0 -0.82654080604E+02  0.27109984658E+02 -0.20573317178E+02  0.89386294746E+02  0.00000000000E+00 0. -1.
          3    1    1    2  501    0  0.78742050141E+01 -0.34261012287E+02  0.10315492148E+03  0.10898053906E+03  0.00000000000E+00 0. -1.
<scales pt_clust_5="13000.00000" pt_clust_6="13000.00000" pt_clust_7="13000.00000" pt_clust_8="13000.00000" pt_clust_9="35.15423"></scales>
<clustering>
<clus scale="   35.154">  1  9  2 -1</clus>
<clus scale="   80.997">  5  6 -1 -1</clus>
<clus scale="   90.760">  7  8 -1 -1</clus>
<clus scale="  107.703">  2  5  1 -1</clus>
<clus scale="   35.154">  1  5  2 -1</clus>
</clustering>
</event>
<event>
 9    2  0.3764910E-005  0.1090668E+03  0.7546771E-02  0.1267230E+00
          2   -1    0    0  502    0 -0.00000000000E+00  0.00000000000E+00  0.93834141375E+02  0.93834141375E+02  0.00000000000E+00 0. -1.
         21   -1    0    0  501  502  0.00000000000E+00 -0.00000000000E+00 -0.16675772003E+03  0.16675772003E+03  0.00000000000E+00 0.  1.
         24    2    1    2    0    0  0.25999385446E+02 -0.56946441486E+02 -0.15767263032E+02  0.10324529487E+03  0.80573687322E+02 0.  0.
         23    2    1    2    0    0 -0.49313564103E+02  0.29608147766E+02 -0.32361273028E+02  0.11369192912E+03  0.92575011408E+02 0.  0.
        -11    1    3    3    0    0  0.18334391525E+02 -0.35621720318E+02 -0.48830296662E+02  0.63162130609E+02  0.00000000000E+00 0.  1.
         12    1    3    3    0    0  0.76649939211E+01 -0.21324721167E+02  0.33063033630E+02  0.40083164265E+02  0.00000000000E+00 0. -1.
        -11    1    4    4    0    0  0.18625740939E+02 -0.15504854063E+02 -0.19552986283E+02  0.31139010865E+02  0.00000000000E+00 0.  1.
         11    1    4    4    0    0 -0.67939305042E+02  0.45113001829E+02 -0.12808286745E+02  0.82552918259E+02  0.00000000000E+00 0. -1.
          1    1    1    2  501    0  0.23314178657E+02  0.27338293720E+02 -0.24795042597E+02  0.43654637409E+02  0.00000000000E+00 0. -1.
<scales pt_clust_5="13000.00000" pt_clust_6="13000.00000" pt_clust_7="13000.00000" pt_clust_8="13000.00000" pt_clust_9="35.92956"></scales>
<clustering>
<clus scale="   35.930">  2  9  1 -1</clus>
<clus scale="   80.574">  5  6 -1 -1</clus>
<clus scale="   92.575">  7  8 -1 -1</clus>
<clus scale="   99.084">  1  5  2 -1</clus>
<clus scale="   35.930">  2  5  1 -1</clus>
</clustering>
</event>
<event>
 9    2  0.3764910E-005  0.1816563E+03  0.7546771E-02  0.1167266E+00
          2   -1    0    0  502    0 -0.00000000000E+00  0.00000000000E+00  0.49326870908E+03  0.49326870908E+03  0.00000000000E+00 0. -1.
         21   -1    0    0  501  502  0.00000000000E+00 -0.00000000000E+00 -0.11637927079E+03  0.11637927079E+03  0.00000000000E+00 0. -1.
         23    2    1    2    0    0  0.14837877322E+03 -0.82555542286E+02  0.27922767076E+03  0.33933697607E+03  0.91377312885E+02 0.  0.
         24    2    1    2    0    0 -0.10770376685E+03  0.57944760431E+02 -0.14820138164E+02  0.14819496948E+03  0.82367565392E+02 0.  0.
        -11    1    4    4    0    0 -0.63067320943E+01  0.24688035697E+02 -0.31146664056E+02  0.40241628423E+02  0.00000000000E+00 0.  1.
         12    1    4    4    0    0 -0.10139703476E+03  0.33256724734E+02  0.16326525893E+02  0.10795334106E+03  0.00000000000E+00 0. -1.
        -13    1    3    3    0    0  0.13526362716E+03 -0.60978873674E+02  0.16307927214E+03  0.22047566956E+03  0.00000000000E+00 0. -1.
         13    1    3    3    0    0  0.13115146059E+02 -0.21576668612E+02  0.11614839862E+03  0.11886130651E+03  0.00000000000E+00 0.  1.
          1    1    1    2  501    0 -0.40675006363E+02  0.24610781855E+02  0.11248190570E+03  0.12211603431E+03  0.00000000000E+00 0. -1.
<scales pt_clust_5="13000.00000" pt_clust_6="13000.00000" pt_clust_7="13000.00000" pt_clust_8="13000.00000" pt_clust_9="47.54102"></scales>
<clustering>
<clus scale="   47.541">  2  9  1 -1</clus>
<clus scale="   82.368">  5  6 -1 -1</clus>
<clus scale="   91.377">  7  8 -1 -1</clus>
<clus scale="  177.295">  2  5  1 -1</clus>
<clus scale="   47.541">  2  5  1 -1</clus>
</clustering>
</event>
<event>
 9    2  0.3764910E-005  0.1328578E+03  0.7546771E-02  0.1226641E+00
         21   -1    0    0  501  502  0.00000000000E+00  0.00000000000E+00  0.44761717933E+02  0.44761717933E+02  0.00000000000E+00 0.  1.
          4   -1    0    0  502    0 -0.00000000000E+00 -0.00000000000E+00 -0.87132783657E+03  0.87132783657E+03  0.00000000000E+00 0. -1.
         24    2    1    2    0    0  0.92406904564E+02  0.90895858406E+00 -0.65594353660E+03  0.66699439557E+03  0.77972676606E+02 0.  0.
         23    2    1    2    0    0 -0.11595738727E+03 -0.15810123203E+02 -0.16219323856E+03  0.21997946257E+03  0.91587344438E+02 0.  0.
        -13    1    3    3    0    0  0.15668528393E+02  0.33137071115E+02 -0.16270424037E+03  0.16678200771E+03  0.00000000000E+00 0.  1.
         14    1    3    3    0    0  0.76738376172E+02 -0.32228112531E+02 -0.49323929624E+03  0.50021238786E+03  0.00000000000E+00 0. -1.
        -11    1    4    4    0    0 -0.94370209635E+02 -0.50913088572E+02 -0.11236680106E+03  0.15531959643E+03  0.00000000000E+00 0.  1.
         11    1    4    4    0    0 -0.21587177639E+02  0.35102965369E+02 -0.49826437499E+02  0.64659866145E+02  0.00000000000E+00 0. -1.
          3    1    1    2  501    0  0.23550482709E+02  0.14901164619E+02 -0.84293434731E+01  0.29115696355E+02  0.00000000000E+00 0. -1.
<scales pt_clust_5="13000.00000" pt_clust_6="13000.00000" pt_clust_7="13000.00000" pt_clust_8="13000.00000" pt_clust_9="27.86880"></scales>
<clustering>
<clus scale="   27.869">  1  9  2 -1</clus>
<clus scale="   77.973">  5  6 -1 -1</clus>
<clus scale="   91.587">  7  8 -1 -1</clus>
<clus scale="  123.866">  2  5  1 -1</clus>
<clus scale="   27.869">  1  5  2 -1</clus>
</clustering>
</event>
<event>
 9    2  0.3764910E-005  0.9163041E+02  0.7546771E-02  0.1302904E+00
         21   -1    0    0  501  502  0.00000000000E+00  0.00000000000E+00  0.24515452831E+03  0.24515452831E+03  0.00000000000E+00 0. -1.
         -3   -1    0    0    0  501 -0.00000000000E+00 -0.00000000000E+00 -0.97630283374E+02  0.97630283374E+02  0.00000000000E+00 0.  1.
         24    2    1    2    0    0 -0.30743822586E+02 -0.24556413636E+01 -0.12996738584E+02  0.85033421499E+02  0.78170037459E+02 0.  0.
         23    2    1    2    0    0  0.50990844930E+02  0.61213033106E+01  0.19426443860E+03  0.21822924763E+03  0.85133987322E+02 0.  0.
        -11    1    3    3    0    0  0.14113525309E+02 -0.28100423167E+02 -0.11035407583E+02  0.33325749794E+02  0.00000000000E+00 0.  1.
         12    1    3    3    0    0 -0.44857347895E+02  0.25644781803E+02 -0.19613310005E+01  0.51707671705E+02  0.00000000000E+00 0. -1.
        -11    1    4    4    0    0  0.18360140262E+02 -0.20674678360E+02  0.16391421550E+03  0.16622998261E+03  0.00000000000E+00 0.  1.
         11    1    4    4    0    0  0.32630704667E+02  0.26795981671E+02  0.30350223101E+02  0.51999265024E+02  0.00000000000E+00 0. -1.
         -4    1    1    2    0  502 -0.20247022344E+02 -0.36656619470E+01 -0.33743455079E+02  0.39522142553E+02  0.00000000000E+00 0.  1.
<scales pt_clust_5="13000.00000" pt_clust_6="13000.00000" pt_clust_7="13000.00000" pt_clust_8="13000.00000" pt_clust_9="20.57619"></scales>
<clustering>
<clus scale="   20.576">  1  9  2 -1</clus>
<clus scale="   78.170">  5  6 -1 -1</clus>
<clus scale="   85.134">  7  8 -1 -1</clus>
<clus scale="   85.199">  2  5  1 -1</clus>
<clus scale="   20.576">  1  5  2 -1</clus>
</clustering>
</event>
<event>
 9    2  0.3764910E-005  0.9219752E+02  0.7546771E-02  0.1304822E+00
          2   -1    0    0  502    0 -0.00000000000E+00  0.00000000000E+00  0.22720667267E+03  0.22720667267E+03  0.00000000000E+00 0. -1.
         21   -1    0    0  501  502  0.00000000000E+00 -0.00000000000E+00 -0.15173263573E+03  0.15173263573E+03  0.00000000000E+00 0. -1.
         24    2    1    2    0    0  0.57306136651E+00  0.91111057448E+01  0.18394895406E+03  0.20083608442E+03  0.80091038557E+02 0.  0.
         23    2    1    2    0    0  0.29882081921E+02 -0.18058606648E+02 -0.46598138391E+02  0.10855964576E+03  0.91622912481E+02 0.  0.
        -11    1    3    3    0    0  0.11801235322E+02 -0.24420494083E+02  0.21577254823E+02  0.34658442148E+02  0.00000000000E+00 0.  1.
         12    1    3    3    0    0 -0.11228173956E+02  0.33531599828E+02  0.16237169924E+03  0.16617764227E+03  0.00000000000E+00 0. -1.
        -11    1    4    4    0    0 -0.15439499075E+02 -0.40931876831E+02 -0.72814786252E+01  0.44348806112E+02  0.00000000000E+00 0.  1.
         11    1    4    4    0    0  0.45321580996E+02  0.22873270183E+02 -0.39316659766E+02  0.64210839646E+02  0.00000000000E+00 0. -1.
          1    1    1    2  501    0 -0.30455143287E+02  0.89475009037E+01 -0.61876778737E+02  0.69543578222E+02  0.00000000000E+00 0. -1.
<scales pt_clust_5="13000.00000" pt_clust_6="13000.00000" pt_clust_7="13000.00000" pt_clust_8="13000.00000" pt_clust_9="31.74230"></scales>
<clustering>
<clus scale="   31.742">  2  9  1 -1</clus>
<clus scale="   80.091">  5  6 -1 -1</clus>
<clus scale="   80.748">  1  5  2 -1</clus>
<clus scale="   91.623">  7  8 -1 -1</clus>
<clus scale="   31.742">  2  5  1 -1</clus>
</clustering>
</event>
<event>
 9    2  0.3764910E-005  0.1039769E+03  0.7546771E-02  0.1273186E+00
         21   -1    0    0  501  502  0.00000000000E+00  0.00000000000E+00  0.42906545465E+03  0.42906545465E+03  0.00000000000E+00 0. -1.
          4   -1    0    0  502    0 -0.00000000000E+00 -0.00000000000E+00 -0.40227455284E+02  0.40227455284E+02  0.00000000000E+00 0. -1.
         24    2    1    2    0    0  0.58448283117E+02  0.17374893668E+02  0.86783471367E+02  0.13823823901E+03  0.88658621083E+02 0.  0.
         23    2    1    2    0    0 -0.20597307832E+02 -0.25055238164E+02  0.22473405230E+03  0.24462469936E+03  0.91015576836E+02 0.  0.
        -11    1    3    3    0    0  0.17574859041E+02 -0.30791528208E+02  0.64404823365E+01  0.36034340460E+02  0.00000000000E+00 0.  1.
         12    1    3    3    0    0  0.40873424076E+02  0.48166421876E+02  0.80342989031E+02  0.10220389855E+03  0.00000000000E+00 0. -1.
        -11    1    4    4    0    0 -0.21476656956E+02 -0.58573957358E+02  0.15975487874E+03  0.17150445054E+03  0.00000000000E+00 0. -1.
         11    1    4    4    0    0  0.87934912493E+00  0.33518719194E+02  0.64979173558E+02  0.73120248820E+02  0.00000000000E+00 0.  1.
          3    1    1    2  501    0 -0.37850975286E+02  0.76803444963E+01  0.77320475696E+02  0.86429971558E+02  0.00000000000E+00 0. -1.
<scales pt_clust_5="13000.00000" pt_clust_6="13000.00000" pt_clust_7="13000.00000" pt_clust_8="13000.00000" pt_clust_9="38.62233"></scales>
<clustering>
<clus scale="   38.622">  1  9  2 -1</clus>
<clus scale="   88.659">  5  6 -1 -1</clus>
<clus scale="   91.016">  7  8 -1 -1</clus>
<clus scale="  101.920">  2  5  1 -1</clus>
<clus scale="   38.622">  1  5  2 -1</clus>
</clustering>
</event>
<event>
 9    2  0.3764910E-005  0.9140965E+02  0.7546771E-02  0.1305395E+00
          2   -1    0    0  502    0 -0.00000000000E+00  0.00000000000E+00  0.13917250700E+04  0.13917250700E+04  0.00000000000E+00 0. -1.
         21   -1    0    0  501  502  0.00000000000E+00 -0.00000000000E+00 -0.14657556800E+02  0.14657556800E+02  0.00000000000E+00 0. -1.
         24    2    1    2    0    0 -0.35686406647E+02  0.10461707273E+02  0.46892376227E+03  0.47746848844E+03  0.81876099673E+02 0.  0.
         23    2    1    2    0    0 -0.51348304550E+02  0.89899089929E+01  0.53810363008E+03  0.54827901469E+03  0.91306595616E+02 0.  0.
        -11    1    3    3    0    0 -0.41858296936E+02  0.14572137282E+02  0.11176287279E+03  0.12023062813E+03  0.00000000000E+00 0.  1.
         12    1    3    3    0    0  0.61718902891E+01 -0.41104300090E+01  0.35716088948E+03  0.35723786031E+03  0.00000000000E+00 0. -1.
        -13    1    4    4    0    0  0.22414064000E+02  0.19975391972E+02  0.13048550116E+03  0.13389500574E+03  0.00000000000E+00 0.  1.
         13    1    4    4    0    0 -0.73762368550E+02 -0.10985482979E+02  0.40761812892E+03  0.41438400895E+03  0.00000000000E+00 0. -1.
          1    1    1    2  501    0  0.87034711197E+02 -0.19451616266E+02  0.37004012089E+03  0.38063512370E+03  0.00000000000E+00 0. -1.
<scales pt_clust_5="13000.00000" pt_clust_6="13000.00000" pt_clust_7="13000.00000" pt_clust_8="13000.00000" pt_clust_9="89.18187"></scales>
<clustering>
<clus scale="   81.876">  5  6 -1 -1</clus>
<clus scale="   89.182">  2  9  1 -1</clus>
<clus scale="   81.991">  1  5  2 -1</clus>
<clus scale="   91.307">  7  8 -1 -1</clus>
<clus scale="   89.182">  2  5  1 -1</clus>
</clustering>
</event>
<event>
 9    2  0.3764910E-005  0.1063129E+03  0.7546771E-02  0.1271897E+00
         21   -1    0    0  501  502  0.00000000000E+00  0.00000000000E+00  0.89513744631E+02  0.89513744631E+02  0.00000000000E+00 0.  1.
          4   -1    0    0  502    0 -0.00000000000E+00 -0.00000000000E+00 -0.24168137438E+03  0.24168137438E+03  0.00000000000E+00 0. -1.
         24    2    1    2    0    0  0.21631168277E+02 -0.44307871303E+02 -0.13657350875E+03  0.16621124075E+03  0.80887318903E+02 0.  0.
         23    2    1    2    0    0 -0.30513376223E+02  0.74479059893E+02  0.13326390738E+02  0.12225695188E+03  0.91054780772E+02 0.  0.
        -13    1    3    3    0    0 -0.30816620053E+02 -0.20076900649E+02 -0.48241902084E+02  0.60663227147E+02  0.00000000000E+00 0.  1.
         14    1    3    3    0    0  0.52447788331E+02 -0.24230970654E+02 -0.88331606666E+02  0.10554801360E+03  0.00000000000E+00 0. -1.
        -11    1    4    4    0    0 -0.74008959836E+01  0.64602675404E+02  0.47003429680E+02  0.80234664157E+02  0.00000000000E+00 0.  1.
         11    1    4    4    0    0 -0.23112480239E+02  0.98763844889E+01 -0.33677038943E+02  0.42022287721E+02  0.00000000000E+00 0. -1.
          3    1    1    2  501    0  0.88822079456E+01 -0.30171188590E+02 -0.28920511740E+02  0.42726926384E+02  0.00000000000E+00 0. -1.
<scales pt_clust_5="13000.00000" pt_clust_6="13000.00000" pt_clust_7="13000.00000" pt_clust_8="13000.00000" pt_clust_9="31.45147"></scales>
<clustering>
<clus scale="   31.451">  1  9  2 -1</clus>
<clus scale="   80.887">  5  6 -1 -1</clus>
<clus scale="   91.055">  7  8 -1 -1</clus>
<clus scale="   97.746">  2  5  1 -1</clus>
<clus scale="   31.451">  1  5  2 -1</clus>
</clustering>
</event>
<event>
 9    2  0.3764910E-005  0.1450440E+03  0.7546771E-02  0.1209483E+00
         21   -1    0    0  501  502  0.00000000000E+00  0.00000000000E+00  0.24435669443E+03  0.24435669443E+03  0.00000000000E+00 0. -1.
          2   -1    0    0  502    0 -0.00000000000E+00 -0.00000000000E+00 -0.36088238729E+03  0.36088238729E+03  0.00000000000E+00 0. -1.
         24    2    1    2    0    0  0.10432703926E+03 -0.14031873239E+02 -0.25348713935E+03  0.28595028075E+03  0.80192322955E+02 0.  0.
         23    2    1    2    0    0 -0.13444092531E+03  0.19188628880E+02 -0.13654174227E+02  0.16560567416E+03  0.93788256005E+02 0.  0.
        -11    1    3    3    0    0  0.10012078716E+02 -0.24248770791E+02 -0.11587220090E+03  0.11880493065E+03  0.00000000000E+00 0.  1.
         12    1    3    3    0    0  0.94314960539E+02  0.10216897552E+02 -0.13761493845E+03  0.16714535010E+03  0.00000000000E+00 0. -1.
        -11    1    4    4    0    0 -0.12763655052E+02  0.38937347784E+02  0.36031194937E+01  0.41134054175E+02  0.00000000000E+00 0.  1.
         11    1    4    4    0    0 -0.12167727026E+03 -0.19748718904E+02 -0.17257293721E+02  0.12447161999E+03  0.00000000000E+00 0. -1.
          1    1    1    2  501    0  0.30113886054E+02 -0.51567556410E+01  0.15061562072E+03  0.15368312681E+03  0.00000000000E+00 0. -1.
<scales pt_clust_5="13000.00000" pt_clust_6="13000.00000" pt_clust_7="13000.00000" pt_clust_8="13000.00000" pt_clust_9="30.55222"></scales>
<clustering>
<clus scale="   30.552">  1  9  2 -1</clus>
<clus scale="   80.192">  5  6 -1 -1</clus>
<clus scale="   93.788">  7  8 -1 -1</clus>
<clus scale="  136.647">  2  5  1 -1</clus>
<clus scale="   30.552">  1  5  2 -1</clus>
</clustering>
</event>
<event>
 9    2  0.3764910E-005  0.1246207E+03  0.7546771E-02  0.1238601E+00
         21   -1    0    0  501  502  0.00000000000E+00  0.00000000000E+00  0.97014759775E+02  0.97014759775E+02  0.00000000000E+00 0. -1.
          2   -1    0    0  502    0 -0.00000000000E+00 -0.00000000000E+00 -0.47939182921E+03  0.47939182921E+03  0.00000000000E+00 0. -1.
         24    2    1    2    0    0  0.33363411069E+02  0.68671986752E+02 -0.26902622853E+03  0.29084132404E+03  0.79903724362E+02 0.  0.
         23    2    1    2    0    0 -0.39427739303E+02 -0.10141318823E+03 -0.16924475037E+03  0.22050458967E+03  0.90218108866E+02 0.  0.
        -11    1    3    3    0    0  0.14434649335E+02  0.38377741435E+02 -0.34429816046E+02  0.53540847696E+02  0.00000000000E+00 0.  1.
         12    1    3    3    0    0  0.18928761734E+02  0.30294245317E+02 -0.23459641249E+03  0.23730047634E+03  0.00000000000E+00 0. -1.
        -13    1    4    4    0    0 -0.16587138064E+01 -0.55435538372E+02 -0.18537419826E+02  0.58476372835E+02  0.00000000000E+00 0.  1.
         13    1    4    4    0    0 -0.37769025497E+02 -0.45977649854E+02 -0.15070733054E+03  0.16202821684E+03  0.00000000000E+00 0. -1.
          1    1    1    2  501    0  0.60643282346E+01  0.32741201474E+02  0.55893909469E+02  0.65060675270E+02  0.00000000000E+00 0. -1.
<scales pt_clust_5="13000.00000" pt_clust_6="13000.00000" pt_clust_7="13000.00000" pt_clust_8="13000.00000" pt_clust_9="33.29808"></scales>
<clustering>
<clus scale="   33.298">  1  9  2 -1</clus>
<clus scale="   79.904">  5  6 -1 -1</clus>
<clus scale="   90.218">  7  8 -1 -1</clus>
<clus scale="  117.370">  2  5  1 -1</clus>
<clus scale="   33.298">  1  5  2 -1</clus>
</clustering>
</event>
<event>
 9    2  0.3764910E-005  0.1782643E+03  0.7546771E-02  0.1198237E+00
         21   -1    0    0  501  502  0.00000000000E+00  0.00000000000E+00  0.90127480893E+02  0.90127480893E+02  0.00000000000E+00 0.  1.
          2   -1    0    0  502    0 -0.00000000000E+00 -0.00000000000E+00 -0.58035184260E+03  0.58035184260E+03  0.00000000000E+00 0. -1.
         23    2    1    2    0    0 -0.17008580154E+02 -0.14817873312E+02 -0.39088183667E+02  0.10163518591E+03  0.91065711136E+02 0.  0.
         24    2    1    2    0    0 -0.12090770585E+03 -0.80480465966E+02 -0.30199657967E+03  0.34446656469E+03  0.79746481549E+02 0.  0.
        -11    1    4    4    0    0 -0.11869958720E+03 -0.64073400397E+02 -0.20064230040E+03  0.24176915715E+03  0.00000000000E+00 0.  1.
         12    1    4    4    0    0 -0.22081186549E+01 -0.16407065569E+02 -0.10135427928E+03  0.10269740754E+03  0.00000000000E+00 0. -1.
        -11    1    3    3    0    0 -0.92728847289E+01 -0.48664496413E+02 -0.25006652100E+00  0.49540711901E+02  0.00000000000E+00 0.  1.
         11    1    3    3    0    0 -0.77356954246E+01  0.33846623102E+02 -0.38838117146E+02  0.52094474011E+02  0.00000000000E+00 0. -1.
          1    1    1    2  501    0  0.13791628601E+03  0.95298339278E+02 -0.14913959837E+03  0.22437757289E+03  0.00000000000E+00 0. -1.
<scales pt_clust_5="13000.00000" pt_clust_6="13000.00000" pt_clust_7="13000.00000" pt_clust_8="13000.00000" pt_clust_9="159.43225"></scales>
<clustering>
<clus scale="   79.746">  5  6 -1 -1</clus>
<clus scale="   91.066">  7  8 -1 -1</clus>
<clus scale="   93.818">  2  7  1 -1</clus>
<clus scale="  159.432">  1  9  2 -1</clus>
<clus scale="  159.432">  1  5  2 -1</clus>
</clustering>
</event>
<event>
 9    2  0.3764910E-005  0.9186678E+02  0.7546771E-02  0.1304380E+00
         -3   -1    0    0    0  501 -0.00000000000E+00  0.00000000000E+00  0.36254441942E+03  0.36254441942E+03  0.00000000000E+00 0.  1.
         21   -1    0    0  501  502  0.00000000000E+00 -0.00000000000E+00 -0.36223426659E+02  0.36223426659E+02  0.00000000000E+00 0. -1.
         23    2    1    2    0    0  0.19270332323E+02 -0.53632933431E+01  0.25912930741E+03  0.27522363725E+03  0.90553530693E+02 0.  0.
         24    2    1    2    0    0  0.16764407692E+01  0.11486723996E+02  0.49783526657E+02  0.95628125738E+02  0.80818213442E+02 0.  0.
        -13    1    4    4    0    0  0.27562171320E+02  0.33961675885E+01  0.60419855616E+02  0.66496362268E+02  0.00000000000E+00 0.  1.
         14    1    4    4    0    0 -0.25885730551E+02  0.80905564078E+01 -0.10636328960E+02  0.29131763470E+02  0.00000000000E+00 0. -1.
        -13    1    3    3    0    0  0.39504541659E+02 -0.34278528673E+02  0.19643107108E+03  0.20327516332E+03  0.00000000000E+00 0.  1.
         13    1    3    3    0    0 -0.20234209336E+02  0.28915235330E+02  0.62698236330E+02  0.71948473928E+02  0.00000000000E+00 0. -1.
         -4    1    1    2    0  502 -0.20946773093E+02 -0.61234306532E+01  0.17408158703E+02  0.27916083096E+02  0.00000000000E+00 0.  1.
<scales pt_clust_5="13000.00000" pt_clust_6="13000.00000" pt_clust_7="13000.00000" pt_clust_8="13000.00000" pt_clust_9="21.82347"></scales>
<clustering>
<clus scale="   21.823">  2  9  1 -1</clus>
<clus scale="   80.818">  5  6 -1 -1</clus>
<clus scale="   82.287">  2  5  1 -1</clus>
<clus scale="   90.554">  7  8 -1 -1</clus>
<clus scale="   21.823">  2  5  1 -1</clus>
</clustering>
</event>
<event>
 9    2  0.3764910E-005  0.1513125E+03  0.7546771E-02  0.1200795E+00
          2   -1    0    0  502    0 -0.00000000000E+00  0.00000000000E+00  0.15577352030E+04  0.15577352030E+04  0.00000000000E+00 0. -1.
         21   -1    0    0  501  502  0.00000000000E+00 -0.00000000000E+00 -0.23320836760E+02  0.23320836760E+02  0.00000000000E+00 0. -1.
         23    2    1    2    0    0 -0.79870535743E+02  0.33209467375E+02  0.41902342799E+03  0.43747779118E+03  0.91236031053E+02 0.  0.
         24    2    1    2    0    0  0.15020087683E+03 -0.53393837378E+02  0.75532981082E+03  0.77615780665E+03  0.80539508524E+02 0.  0.
        -13    1    4    4    0    0  0.10583457149E+03  0.16448865194E+00  0.52481502754E+03  0.53538004886E+03  0.00000000000E+00 0.  1.
         14    1    4    4    0    0  0.44366305345E+02 -0.53558326030E+02  0.23051478328E+03  0.24077775779E+03  0.00000000000E+00 0. -1.
        -11    1    3    3    0    0 -0.52804703707E+02 -0.23099583239E+02  0.26637246202E+03  0.27253663240E+03  0.00000000000E+00 0.  1.
         11    1    3    3    0    0 -0.27065832035E+02  0.56309050613E+02  0.15265096598E+03  0.16494115878E+03  0.00000000000E+00 0. -1.
          1    1    1    2  501    0 -0.70330341091E+02  0.20184370004E+02  0.36006112746E+03  0.36742044197E+03  0.00000000000E+00 0. -1.
<scales pt_clust_5="13000.00000" pt_clust_6="13000.00000" pt_clust_7="13000.00000" pt_clust_8="13000.00000" pt_clust_9="73.16947"></scales>
<clustering>
<clus scale="   73.169">  2  9  1 -1</clus>
<clus scale="   80.540">  5  6 -1 -1</clus>
<clus scale="   91.236">  7  8 -1 -1</clus>
<clus scale="  145.114">  2  5  1 -1</clus>
<clus scale="   73.169">  2  5  1 -1</clus>
</clustering>
</event>
<event>
 9    2  0.3764910E-005  0.1136511E+03  0.7546771E-02  0.1258010E+00
         21   -1    0    0  501  502  0.00000000000E+00  0.00000000000E+00  0.57897499251E+02  0.57897499251E+02  0.00000000000E+00 0. -1.
         -3   -1    0    0    0  501 -0.00000000000E+00 -0.00000000000E+00 -0.55154911741E+03  0.55154911741E+03  0.00000000000E+00 0.  1.
         23    2    1    2    0    0 -0.70648223676E+02  0.15604951514E+02 -0.45583107525E+03  0.47049294693E+03  0.91361687409E+02 0.  0.
         24    2    1    2    0    0  0.47848162668E+02 -0.15400917900E+02 -0.55838077777E+02  0.10989311270E+03  0.80199565747E+02 0.  0.
        -13    1    4    4    0    0  0.19169789477E+02 -0.45915575592E+02 -0.43884943436E+02  0.66344624281E+02  0.00000000000E+00 0.  1.
         14    1    4    4    0    0  0.28678373191E+02  0.30514657692E+02 -0.11953134341E+02  0.43548488418E+02  0.00000000000E+00 0. -1.
        -13    1    3    3    0    0 -0.84812695067E+02  0.30847542157E+02 -0.41460111710E+03  0.42430985188E+03  0.00000000000E+00 0.  1.
         13    1    3    3    0    0  0.14164471391E+02 -0.15242590643E+02 -0.41229958150E+02  0.46183095050E+02  0.00000000000E+00 0. -1.
         -4    1    1    2    0  502  0.22800061008E+02 -0.20403361364E+00  0.18017534875E+02  0.29060557025E+02  0.00000000000E+00 0.  1.
<scales pt_clust_5="13000.00000" pt_clust_6="13000.00000" pt_clust_7="13000.00000" pt_clust_8="13000.00000" pt_clust_9="22.80097"></scales>
<clustering>
<clus scale="   22.801">  1  9  2 -1</clus>
<clus scale="   80.200">  5  6 -1 -1</clus>
<clus scale="   91.362">  7  8 -1 -1</clus>
<clus scale="  104.888">  1  5  2 -1</clus>
<clus scale="   22.801">  1  5  2 -1</clus>
</clustering>
</event>
<event>
 9    2  0.3764910E-005  0.2602653E+03  0.7546771E-02  0.1107502E+00
          4   -1    0    0  502    0 -0.00000000000E+00  0.00000000000E+00  0.12991598667E+04  0.12991598667E+04  0.00000000000E+00 0. -1.
         21   -1    0    0  501  502  0.00000000000E+00 -0.00000000000E+00 -0.14205298125E+03  0.14205298125E+03  0.00000000000E+00 0.  1.
         23    2    1    2    0    0 -0.80013758247E+02 -0.23149582543E+03  0.11331525681E+04  0.11623380874E+04  0.83681349005E+02 0.  0.
         24    2    1    2    0    0  0.85906034062E+02  0.21129720712E+03  0.43223940014E+02  0.25034369943E+03  0.93687258644E+02 0.  0.
        -11    1    4    4    0    0  0.26622272714E+02  0.17125544013E+03  0.16979391483E+02  0.17414209978E+03  0.00000000000E+00 0.  1.
         12    1    4    4    0    0  0.59283761348E+02  0.40041766985E+02  0.26244548531E+02  0.76201599658E+02  0.00000000000E+00 0. -1.
        -13    1    3    3    0    0 -0.84804453570E+01 -0.10500639531E+03  0.33872116887E+03  0.35472565632E+03  0.00000000000E+00 0.  1.
         13    1    3    3    0    0 -0.71533312890E+02 -0.12648943011E+03  0.79443139918E+03  0.80761243105E+03  0.00000000000E+00 0. -1.
          3    1    1    2  501    0 -0.58922758155E+01  0.20198618309E+02 -0.19269622604E+02  0.28531061165E+02  0.00000000000E+00 0. -1.
<scales pt_clust_5="13000.00000" pt_clust_6="13000.00000" pt_clust_7="13000.00000" pt_clust_8="13000.00000" pt_clust_9="21.04051"></scales>
<clustering>
<clus scale="   21.041">  2  9  1 -1</clus>
<clus scale="   83.681">  7  8 -1 -1</clus>
<clus scale="   93.687">  5  6 -1 -1</clus>
<clus scale="  256.833">  1  7  2 -1</clus>
<clus scale="   21.041">  2  5  1 -1</clus>
</clustering>
</event>
<event>
 9    2  0.3764910E-005  0.1455969E+03  0.7546771E-02  0.1208505E+00
          2   -1    0    0  502    0 -0.00000000000E+00  0.00000000000E+00  0.98590915468E+03  0.98590915468E+03  0.00000000000E+00 0. -1.
         21   -1    0    0  501  502  0.00000000000E+00 -0.00000000000E+00 -0.30673241135E+02  0.30673241135E+02  0.00000000000E+00 0. -1.
         23    2    1    2    0    0  0.63053487133E+02 -0.96840998566E+02  0.72189527060E+03  0.73696580194E+03  0.92907966663E+02 0.  0.
         24    2    1    2    0    0 -0.71244081194E+02  0.75941075913E+02  0.19633705762E+03  0.23633659936E+03  0.80398892336E+02 0.  0.
        -11    1    4    4    0    0 -0.32733593788E+02  0.60474869908E+02  0.52171340325E+02  0.86316550000E+02  0.00000000000E+00 0.  1.
         12    1    4    4    0    0 -0.38510487407E+02  0.15466206004E+02  0.14416571729E+03  0.15002004936E+03  0.00000000000E+00 0. -1.
        -11    1    3    3    0    0 -0.20791510681E+02 -0.83648149445E+00  0.10335758878E+03  0.10543138895E+03  0.00000000000E+00 0.  1.
         11    1    3    3    0    0  0.83844997814E+02 -0.96004517071E+02  0.61853768181E+03  0.63153441298E+03  0.00000000000E+00 0. -1.
          1    1    1    2  501    0  0.81905940614E+01  0.20899922653E+02  0.37003585333E+02  0.43279994518E+02  0.00000000000E+00 0. -1.
<scales pt_clust_5="13000.00000" pt_clust_6="13000.00000" pt_clust_7="13000.00000" pt_clust_8="13000.00000" pt_clust_9="22.44755"></scales>
<clustering>
<clus scale="   22.448">  2  9  1 -1</clus>
<clus scale="   80.399">  5  6 -1 -1</clus>
<clus scale="   92.908">  7  8 -1 -1</clus>
<clus scale="  137.951">  2  5  1 -1</clus>
<clus scale="   22.448">  2  5  1 -1</clus>
</clustering>
</event>
<event>
 9    2  0.3764910E-005  0.9339405E+02  0.7546771E-02  0.1303065E+00
         -1   -1    0    0    0  501 -0.00000000000E+00  0.00000000000E+00  0.33344645193E+03  0.33344645193E+03  0.00000000000E+00 0.  1.
         21   -1    0    0  501  502  0.00000000000E+00 -0.00000000000E+00 -0.57969751165E+02  0.57969751165E+02  0.00000000000E+00 0. -1.
         23    2    1    2    0    0 -0.21446750490E+02 -0.20155488985E+02  0.23514370137E+03  0.25377515325E+03  0.90791306150E+02 0.  0.
         24    2    1    2    0    0  0.75145545444E+01  0.29569594091E+01  0.67324621422E+02  0.10273484462E+03  0.77179216830E+02 0.  0.
        -13    1    4    4    0    0  0.67681795452E+01 -0.23175254879E+02  0.72210153425E+02  0.76139391584E+02  0.00000000000E+00 0.  1.
         14    1    4    4    0    0  0.74637499926E+00  0.26132214288E+02 -0.48855320029E+01  0.26595453036E+02  0.00000000000E+00 0. -1.
        -11    1    3    3    0    0 -0.14165181336E+01  0.26524126203E+02  0.21491190906E+02  0.34167339391E+02  0.00000000000E+00 0. -1.
         11    1    3    3    0    0 -0.20030232356E+02 -0.46679615188E+02  0.21365251046E+03  0.21960781386E+03  0.00000000000E+00 0.  1.
         -2    1    1    2    0  502  0.13932195945E+02  0.17198529576E+02 -0.26991622026E+02  0.34906205222E+02  0.00000000000E+00 0.  1.
<scales pt_clust_5="13000.00000" pt_clust_6="13000.00000" pt_clust_7="13000.00000" pt_clust_8="13000.00000" pt_clust_9="22.13358"></scales>
<clustering>
<clus scale="   22.134">  2  9  1 -1</clus>
<clus scale="   77.179">  5  6 -1 -1</clus>
<clus scale="   80.225">  2  5  1 -1</clus>
<clus scale="   90.791">  7  8 -1 -1</clus>
<clus scale="   22.134">  2  5  1 -1</clus>
</clustering>
</event>
<event>
 9    2  0.3764910E-005  0.1061583E+03  0.7546771E-02  0.1272417E+00
         -1   -1    0    0    0  501 -0.00000000000E+00  0.00000000000E+00  0.30583180904E+03  0.30583180904E+03  0.00000000000E+00 0.  1.
         21   -1    0    0  501  502  0.00000000000E+00 -0.00000000000E+00 -0.48283766117E+02  0.48283766117E+02  0.00000000000E+00 0.  1.
         24    2    1    2    0    0 -0.47659238450E+02  0.32197268862E+02  0.14816821181E+03  0.17768002842E+03  0.79424847343E+02 0.  0.
         23    2    1    2    0    0  0.58588797246E+02 -0.33857501270E+01  0.83326481291E+02  0.13608290241E+03  0.90172852780E+02 0.  0.
        -11    1    3    3    0    0  0.22027228322E+02  0.10341452573E+02  0.46722678866E+02  0.52679722373E+02  0.00000000000E+00 0.  1.
         12    1    3    3    0    0 -0.69686466772E+02  0.21855816289E+02  0.10144553294E+03  0.12500030604E+03  0.00000000000E+00 0. -1.
        -11    1    4    4    0    0  0.19630138056E+02  0.41224614101E+02  0.21510563790E+02  0.50472918307E+02  0.00000000000E+00 0.  1.
         11    1    4    4    0    0  0.38958659190E+02 -0.44610364228E+02  0.61815917501E+02  0.85609984107E+02  0.00000000000E+00 0. -1.
         -2    1    1    2    0  502 -0.10929558795E+02 -0.28811518735E+02  0.26053349828E+02  0.40352644331E+02  0.00000000000E+00 0.  1.
<scales pt_clust_5="13000.00000" pt_clust_6="13000.00000" pt_clust_7="13000.00000" pt_clust_8="13000.00000" pt_clust_9="30.81491"></scales>
<clustering>
<clus scale="   30.815">  2  9  1 -1</clus>
<clus scale="   79.425">  5  6 -1 -1</clus>
<clus scale="   90.173">  7  8 -1 -1</clus>
<clus scale="   97.194">  1  5  2 -1</clus>
<clus scale="   30.815">  2  5  1 -1</clus>
</clustering>
</event>
<event>
 9    2  0.3764910E-005  0.1039219E+03  0.7546771E-02  0.1278117E+00
         -3   -1    0    0    0  501 -0.00000000000E+00  0.00000000000E+00  0.36762176769E+03  0.36762176769E+03  0.00000000000E+00 0.  1.
         21   -1    0    0  501  502  0.00000000000E+00 -0.00000000000E+00 -0.71775414588E+02  0.71775414588E+02  0.00000000000E+00 0. -1.
         23    2    1    2    0    0  0.25506645020E+02 -0.11015819596E+02  0.25988335743E+03  0.27644251496E+03  0.90050915534E+02 0.  0.
         24    2    1    2    0    0  0.19714668376E+01  0.15837046037E+02  0.65938622113E+02  0.12200556431E+03  0.10140393054E+03 0.  0.
        -11    1    4    4    0    0 -0.24643657948E+02 -0.18255640274E+02  0.72067854469E+02  0.78322116460E+02  0.00000000000E+00 0.  1.
         12    1    4    4    0    0  0.26615124786E+02  0.34092686311E+02 -0.61292323559E+01  0.43683447855E+02  0.00000000000E+00 0. -1.
        -11    1    3    3    0    0 -0.19866613845E+01  0.21643316537E+02  0.11835759744E+02  0.24748033920E+02  0.00000000000E+00 0. -1.
         11    1    3    3    0    0  0.27493306404E+02 -0.32659136133E+02  0.24804759768E+03  0.25169448104E+03  0.00000000000E+00 0.  1.
         -4    1    1    2    0  502 -0.27478111857E+02 -0.48212264402E+01 -0.29975626443E+02  0.40949102998E+02  0.00000000000E+00 0.  1.
<scales pt_clust_5="13000.00000" pt_clust_6="13000.00000" pt_clust_7="13000.00000" pt_clust_8="13000.00000" pt_clust_9="27.89786"></scales>
<clustering>
<clus scale="   27.898">  2  9  1 -1</clus>
<clus scale="   90.051">  7  8 -1 -1</clus>
<clus scale="   92.877">  1  7  2 -1</clus>
<clus scale="  101.404">  5  6 -1 -1</clus>
<clus scale="   27.898">  2  5  1 -1</clus>
</clustering>
</event>
<event>
 9    2  0.3764910E-005  0.1082383E+03  0.7546771E-02  0.1272079E+00
         21   -1    0    0  501  502  0.00000000000E+00  0.00000000000E+00  0.17994388837E+03  0.17994388837E+03  0.00000000000E+00 0. -1.
          2   -1    0    0  502    0 -0.00000000000E+00 -0.00000000000E+00 -0.30328846465E+03  0.30328846465E+03  0.00000000000E+00 0. -1.
         24    2    1    2    0    0 -0.41075575265E+02  0.19024354484E+02 -0.23685814186E+03  0.25491373566E+03  0.82644445164E+02 0.  0.
         23    2    1    2    0    0 -0.52081607175E+01 -0.40623199447E+02  0.49028943056E+01  0.10829790151E+03  0.10013504795E+03 0.  0.
        -11    1    3    3    0    0 -0.56884718762E+02 -0.12463267222E+02 -0.16279118635E+03  0.17289353548E+03  0.00000000000E+00 0.  1.
         12    1    3    3    0    0  0.15809143496E+02  0.31487621707E+02 -0.74066955507E+02  0.82020200176E+02  0.00000000000E+00 0. -1.
        -11    1    4    4    0    0  0.25390250524E+02  0.18648442308E+02  0.23207470780E+02  0.39128198556E+02  0.00000000000E+00 0.  1.
         11    1    4    4    0    0 -0.30598411242E+02 -0.59271641756E+02 -0.18304576474E+02  0.69169702955E+02  0.00000000000E+00 0. -1.
          1    1    1    2  501    0  0.46283735983E+02  0.21598844963E+02  0.10861067127E+03  0.12002071586E+03  0.00000000000E+00 0. -1.
<scales pt_clust_5="13000.00000" pt_clust_6="13000.00000" pt_clust_7="13000.00000" pt_clust_8="13000.00000" pt_clust_9="51.07538"></scales>
<clustering>
<clus scale="   51.075">  1  9  2 -1</clus>
<clus scale="   82.644">  5  6 -1 -1</clus>
<clus scale="   92.296">  2  5  1 -1</clus>
<clus scale="  100.135">  7  8 -1 -1</clus>
<clus scale="   51.075">  1  5  2 -1</clus>
</clustering>
</event>
<event>
 9    2  0.3764910E-005  0.9046416E+02  0.7546771E-02  0.1309255E+00
         -1   -1    0    0    0  501 -0.00000000000E+00  0.00000000000E+00  0.13757320415E+03  0.13757320415E+03  0.00000000000E+00 0.  1.
         21   -1    0    0  501  502  0.00000000000E+00 -0.00000000000E+00 -0.93326343509E+02  0.93326343509E+02  0.00000000000E+00 0.  1.
         24    2    1    2    0    0  0.36726923568E+01 -0.42231902836E+01  0.76290638523E+02  0.10979127770E+03  0.78756200565E+02 0.  0.
         23    2    1    2    0    0  0.17683765100E+02  0.72395154611E+00 -0.14481722688E+02  0.93237698935E+02  0.90389759136E+02 0.  0.
        -13    1    3    3    0    0  0.32674825105E+02  0.19531745656E+02  0.54344582003E+02  0.66351087987E+02  0.00000000000E+00 0.  1.
         14    1    3    3    0    0 -0.29002132748E+02 -0.23754935940E+02  0.21946056520E+02  0.43440189713E+02  0.00000000000E+00 0. -1.
        -11    1    4    4    0    0  0.72082303741E+01  0.20887281303E+02 -0.47943531654E+02  0.52790333706E+02  0.00000000000E+00 0.  1.
         11    1    4    4    0    0  0.10475534726E+02 -0.20163329757E+02  0.33461808966E+02  0.40447365229E+02  0.00000000000E+00 0. -1.
         -2    1    1    2    0  502 -0.21356457457E+02  0.34992387375E+01 -0.17562055191E+02  0.27870571027E+02  0.00000000000E+00 0.  1.
<scales pt_clust_5="13000.00000" pt_clust_6="13000.00000" pt_clust_7="13000.00000" pt_clust_8="13000.00000" pt_clust_9="21.64123"></scales>
<clustering>
<clus scale="   21.641">  2  9  1 -1</clus>
<clus scale="   78.756">  5  6 -1 -1</clus>
<clus scale="   78.842">  1  5  2 -1</clus>
<clus scale="   90.390">  7  8 -1 -1</clus>
<clus scale="   21.641">  2  5  1 -1</clus>
</clustering>
</event>
<event>
 9    2  0.3764910E-005  0.1216054E+03  0.7546771E-02  0.1245594E+00
          2   -1    0    0  502    0 -0.00000000000E+00  0.00000000000E+00  0.30468082228E+03  0.30468082228E+03  0.00000000000E+00 0. -1.
         21   -1    0    0  501  502  0.00000000000E+00 -0.00000000000E+00 -0.14044693410E+03  0.14044693410E+03  0.00000000000E+00 0. -1.
         24    2    1    2    0    0 -0.75255878091E+02 -0.25747064165E+02  0.22762894253E+03  0.25418771005E+03  0.80436919147E+02 0.  0.
         23    2    1    2    0    0  0.32885886040E+02  0.21402841441E+01 -0.89908083089E+02  0.13566403904E+03  0.96099977983E+02 0.  0.
        -11    1    3    3    0    0 -0.23634455853E+02 -0.22109504492E+02  0.15585977256E+02  0.35921308153E+02  0.00000000000E+00 0.  1.
         12    1    3    3    0    0 -0.51621422238E+02 -0.36375596731E+01  0.21204296528E+03  0.21826640190E+03  0.00000000000E+00 0. -1.
        -11    1    4    4    0    0  0.36840674504E+02 -0.42073420711E+02 -0.39327894026E+02  0.68367326091E+02  0.00000000000E+00 0.  1.
         11    1    4    4    0    0 -0.39547884642E+01  0.44213704855E+02 -0.50580189063E+02  0.67296712954E+02  0.00000000000E+00 0. -1.
          1    1    1    2  501    0  0.42369992050E+02  0.23606780021E+02  0.26513028732E+02  0.55276007290E+02  0.00000000000E+00 0. -1.
<scales pt_clust_5="13000.00000" pt_clust_6="13000.00000" pt_clust_7="13000.00000" pt_clust_8="13000.00000" pt_clust_9="48.50256"></scales>
<clustering>
<clus scale="   48.503">  2  9  1 -1</clus>
<clus scale="   80.437">  5  6 -1 -1</clus>
<clus scale="   96.100">  7  8 -1 -1</clus>
<clus scale="  109.648">  1  5  2 -1</clus>
<clus scale="   48.503">  2  5  1 -1</clus>
</clustering>
</event>
<event>
 9    2  0.3764910E-005  0.1301359E+03  0.7546771E-02  0.1237161E+00
         21   -1    0    0  501  502  0.00000000000E+00  0.00000000000E+00  0.15932938805E+03  0.15932938805E+03  0.00000000000E+00 0.  1.
          2   -1    0    0  502    0 -0.00000000000E+00 -0.00000000000E+00 -0.28803272762E+03  0.28803272762E+03  0.00000000000E+00 0. -1.
         23    2    1    2    0    0 -0.78926804483E+01 -0.82263122111E+02 -0.22619292406E+03  0.25993238752E+03  0.97837066205E+02 0.  0.
         24    2    1    2    0    0  0.24981665125E+02  0.99684552985E+02  0.42993694269E+02  0.12771924581E+03  0.62471227829E+02 0.  0.
        -13    1    4    4    0    0  0.18658141777E+02  0.69083031007E+02 -0.35643753345E+01  0.71647025055E+02  0.00000000000E+00 0.  1.
         14    1    4    4    0    0  0.63235233481E+01  0.30601521978E+02  0.46558069604E+02  0.56072220753E+02  0.00000000000E+00 0. -1.
        -11    1    3    3    0    0  0.22633314440E+02 -0.90773708511E+01 -0.14276049005E+03  0.14482825381E+03  0.00000000000E+00 0.  1.
         11    1    3    3    0    0 -0.30525994888E+02 -0.73185751260E+02 -0.83432434012E+02  0.11510413371E+03  0.00000000000E+00 0. -1.
          1    1    1    2  501    0 -0.17088984676E+02 -0.17421430874E+02  0.54495890223E+02  0.59710482347E+02  0.00000000000E+00 0. -1.
<scales pt_clust_5="13000.00000" pt_clust_6="13000.00000" pt_clust_7="13000.00000" pt_clust_8="13000.00000" pt_clust_9="24.40368"></scales>
<clustering>
<clus scale="   24.404">  1  9  2 -1</clus>
<clus scale="   62.471">  5  6 -1 -1</clus>
<clus scale="   97.837">  7  8 -1 -1</clus>
<clus scale="  106.141">  1  5  2 -1</clus>
<clus scale="   24.404">  1  5  2 -1</clus>
</clustering>
</event>
<event>
 9    2  0.3764910E-005  0.1358994E+03  0.7546771E-02  0.1221425E+00
          2   -1    0    0  502    0 -0.00000000000E+00  0.00000000000E+00  0.32150649132E+03  0.32150649132E+03  0.00000000000E+00 0. -1.
         21   -1    0    0  501  502  0.00000000000E+00 -0.00000000000E+00 -0.38495017321E+03  0.38495017321E+03  0.00000000000E+00 0. -1.
         24    2    1    2    0    0 -0.76787904558E+02 -0.72256365648E+02  0.24123804875E+03  0.27557558838E+03  0.81417099453E+02 0.  0.
         23    2    1    2    0    0 -0.78712397507E+01  0.10608841120E+03 -0.33133836032E+02  0.14443729967E+03  0.91910690560E+02 0.  0.
        -11    1    3    3    0    0 -0.82425013319E+02 -0.67571816958E+02  0.14981742021E+03  0.18386161281E+03  0.00000000000E+00 0.  1.
         12    1    3    3    0    0  0.56371087616E+01 -0.46845486908E+01  0.91420628546E+02  0.91713975573E+02  0.00000000000E+00 0. -1.
        -11    1    4    4    0    0  0.37640997811E+02  0.52459529041E+02 -0.36219502819E+02  0.74031745136E+02  0.00000000000E+00 0.  1.
         11    1    4    4    0    0 -0.45512237562E+02  0.53628882156E+02  0.30856667868E+01  0.70405554530E+02  0.00000000000E+00 0. -1.
          1    1    1    2  501    0  0.84659144308E+02 -0.33832045549E+02 -0.27154789461E+03  0.28644377649E+03  0.00000000000E+00 0. -1.
<scales pt_clust_5="13000.00000" pt_clust_6="13000.00000" pt_clust_7="13000.00000" pt_clust_8="13000.00000" pt_clust_9="91.16895"></scales>
<clustering>
<clus scale="   81.417">  5  6 -1 -1</clus>
<clus scale="   91.169">  2  9  1 -1</clus>
<clus scale="   91.911">  7  8 -1 -1</clus>
<clus scale="  129.034">  1  5  2 -1</clus>
<clus scale="   91.169">  2  5  1 -1</clus>
</clustering>
</event>
<event>
 9    2  0.3764910E-005  0.1488663E+03  0.7546771E-02  0.1203567E+00
         -1   -1    0    0    0  501 -0.00000000000E+00  0.00000000000E+00  0.35501407457E+03  0.35501407457E+03  0.00000000000E+00 0.  1.
         21   -1    0    0  501  502  0.00000000000E+00 -0.00000000000E+00 -0.23646893523E+03  0.23646893523E+03  0.00000000000E+00 0. -1.
         24    2    1    2    0    0  0.47754433451E+02  0.11610291333E+03  0.29152726811E+03  0.32752316584E+03  0.80764495346E+02 0.  0.
         23    2    1    2    0    0 -0.50898157121E+00 -0.86009151388E+02 -0.60649487728E+02  0.13843538629E+03  0.89934212789E+02 0.  0.
        -11    1    3    3    0    0  0.11093586217E+02  0.48563338776E+02  0.20859085403E+03  0.21445654551E+03  0.00000000000E+00 0.  1.
         12    1    3    3    0    0  0.36660847234E+02  0.67539574554E+02  0.82936414086E+02  0.11306662033E+03  0.00000000000E+00 0. -1.
        -13    1    4    4    0    0 -0.31174394961E+02 -0.76940732652E+01  0.39950590286E+01  0.32357412771E+02  0.00000000000E+00 0.  1.
         13    1    4    4    0    0  0.30665413390E+02 -0.78315078122E+02 -0.64644546756E+02  0.10607797351E+03  0.00000000000E+00 0. -1.
         -2    1    1    2    0  502 -0.47245451879E+02 -0.30093761943E+02 -0.11233264105E+03  0.12552445768E+03  0.00000000000E+00 0.  1.
<scales pt_clust_5="13000.00000" pt_clust_6="13000.00000" pt_clust_7="13000.00000" pt_clust_8="13000.00000" pt_clust_9="56.01578"></scales>
<clustering>
<clus scale="   56.016">  2  9  1 -1</clus>
<clus scale="   80.764">  5  6 -1 -1</clus>
<clus scale="   89.934">  7  8 -1 -1</clus>
<clus scale="  143.513">  1  5  2 -1</clus>
<clus scale="   56.016">  2  5  1 -1</clus>
</clustering>
</event>
<event>
 9    2  0.3764910E-005  0.1105692E+03  0.7546771E-02  0.1268342E+00
         21   -1    0    0  501  502  0.00000000000E+00  0.00000000000E+00  0.54047428241E+02  0.54047428241E+02  0.00000000000E+00 0. -1.
          2   -1    0    0  502    0 -0.00000000000E+00 -0.00000000000E+00 -0.61041383668E+03  0.61041383668E+03  0.00000000000E+00 0. -1.
         24    2    1    2    0    0  0.23182374886E+01  0.31133168984E+02 -0.31577952043E+03  0.32927184956E+03  0.87912439108E+02 0.  0.
         23    2    1    2    0    0  0.21657843462E+02 -0.27586176932E+02 -0.27280987581E+03  0.29486876863E+03  0.10626524845E+03 0.  0.
        -13    1    3    3    0    0 -0.20931597452E+02 -0.71930324239E+01 -0.19130036413E+02  0.29254568541E+02  0.00000000000E+00 0.  1.
         14    1    3    3    0    0  0.23249834941E+02  0.38326201408E+02 -0.29664948402E+03  0.30001728102E+03  0.00000000000E+00 0. -1.
        -11    1    4    4    0    0 -0.19576975656E+02 -0.33919481419E+02 -0.32292621370E+02  0.50760246163E+02  0.00000000000E+00 0.  1.
         11    1    4    4    0    0  0.41234819118E+02  0.63333044874E+01 -0.24051725444E+03  0.24410852246E+03  0.00000000000E+00 0. -1.
          1    1    1    2  501    0 -0.23976080950E+02 -0.35469920519E+01  0.32222987806E+02  0.40320646740E+02  0.00000000000E+00 0. -1.
<scales pt_clust_5="13000.00000" pt_clust_6="13000.00000" pt_clust_7="13000.00000" pt_clust_8="13000.00000" pt_clust_9="24.23703"></scales>
<clustering>
<clus scale="   24.237">  1  9  2 -1</clus>
<clus scale="   87.912">  5  6 -1 -1</clus>
<clus scale="   93.069">  2  5  1 -1</clus>
<clus scale="  106.265">  7  8 -1 -1</clus>
<clus scale="   24.237">  1  5  2 -1</clus>
</clustering>
</event>
<event>
 9    2  0.3764910E-005  0.9444348E+02  0.7546771E-02  0.1300052E+00
         21   -1    0    0  501  502  0.00000000000E+00  0.00000000000E+00  0.55931463820E+03  0.55931463820E+03  0.00000000000E+00 0.  1.
          2   -1    0    0  502    0 -0.00000000000E+00 -0.00000000000E+00 -0.40497168504E+02  0.40497168504E+02  0.00000000000E+00 0. -1.
         23    2    1    2    0    0 -0.16014797887E+00 -0.18289850141E+02  0.16974792822E+03  0.19471293953E+03  0.93617441851E+02 0.  0.
         24    2    1    2    0    0  0.15510319659E+02 -0.58674225497E+02  0.28913301520E+03  0.30634926520E+03  0.81047745508E+02 0.  0.
        -11    1    4    4    0    0 -0.19118008359E+02 -0.37220609911E+02  0.23448549830E+03  0.23818967433E+03  0.00000000000E+00 0.  1.
         12    1    4    4    0    0  0.34628328018E+02 -0.21453615586E+02  0.54647516907E+02  0.68159590867E+02  0.00000000000E+00 0. -1.
        -11    1    3    3    0    0  0.16059264666E+02 -0.52126391219E+02  0.12454610759E+03  0.13596614858E+03  0.00000000000E+00 0.  1.
         11    1    3    3    0    0 -0.16219412645E+02  0.33836541078E+02  0.45201820633E+02  0.58746790952E+02  0.00000000000E+00 0. -1.
          1    1    1    2  501    0 -0.15350171681E+02  0.76964075638E+02  0.59936526271E+02  0.98749601978E+02  0.00000000000E+00 0. -1.
<scales pt_clust_5="13000.00000" pt_clust_6="13000.00000" pt_clust_7="13000.00000" pt_clust_8="13000.00000" pt_clust_9="78.47995"></scales>
<clustering>
<clus scale="   78.480">  1  9  2 -1</clus>
<clus scale="   81.048">  5  6 -1 -1</clus>
<clus scale="   82.001">  1  5  2 -1</clus>
<clus scale="   93.617">  7  8 -1 -1</clus>
<clus scale="   78.480">  1  5  2 -1</clus>
</clustering>
</event>
<event>
 9    2  0.3764910E-005  0.1092287E+03  0.7546771E-02  0.1270836E+00
          2   -1    0    0  502    0 -0.00000000000E+00  0.00000000000E+00  0.49588867083E+02  0.49588867083E+02  0.00000000000E+00 0. -1.
         21   -1    0    0  501  502  0.00000000000E+00 -0.00000000000E+00 -0.27242933789E+03  0.27242933789E+03  0.00000000000E+00 0. -1.
         23    2    1    2    0    0 -0.51667747900E+02  0.22085445294E+02 -0.95178971839E+02  0.14764483795E+03  0.97890951712E+02 0.  0.
         24    2    1    2    0    0  0.27779721351E+02 -0.32608621438E+02 -0.11456616013E+03  0.14516954967E+03  0.78190523687E+02 0.  0.
        -11    1    4    4    0    0 -0.44940441870E+01 -0.48198920182E+02 -0.41403567697E+02  0.63699197466E+02  0.00000000000E+00 0.  1.
         12    1    4    4    0    0  0.32273765538E+02  0.15590298743E+02 -0.73162592429E+02  0.81470352201E+02  0.00000000000E+00 0. -1.
        -13    1    3    3    0    0 -0.24106899260E+01  0.20756581006E+02  0.15814115750E+02  0.26205597454E+02  0.00000000000E+00 0.  1.
         13    1    3    3    0    0 -0.49257057974E+02  0.13288642883E+01 -0.11099308759E+03  0.12143924050E+03  0.00000000000E+00 0. -1.
          1    1    1    2  501    0  0.23888026549E+02  0.10523176145E+02 -0.13095338846E+02  0.29203817354E+02  0.00000000000E+00 0. -1.
<scales pt_clust_5="13000.00000" pt_clust_6="13000.00000" pt_clust_7="13000.00000" pt_clust_8="13000.00000" pt_clust_9="26.10317"></scales>
<clustering>
<clus scale="   26.103">  2  9  1 -1</clus>
<clus scale="   78.191">  5  6 -1 -1</clus>
<clus scale="   91.989">  2  5  1 -1</clus>
<clus scale="   97.891">  7  8 -1 -1</clus>
<clus scale="   26.103">  2  5  1 -1</clus>
</clustering>
</event>
<event>
 9    2  0.3764910E-005  0.1766737E+03  0.7546771E-02  0.1171738E+00
         -3   -1    0    0    0  501 -0.00000000000E+00  0.00000000000E+00  0.38483622769E+03  0.38483622769E+03  0.00000000000E+00 0.  1.
         21   -1    0    0  501  502  0.00000000000E+00 -0.00000000000E+00 -0.15444765881E+03  0.15444765881E+03  0.00000000000E+00 0. -1.
         23    2    1    2    0    0 -0.72840150547E+01  0.18318672994E+03  0.12715850077E+03  0.23920755743E+03  0.86258543398E+02 0.  0.
         24    2    1    2    0    0  0.24478233163E+02 -0.10690978627E+03 -0.35664122490E+02  0.14068558450E+03  0.80570576237E+02 0.  0.
        -13    1    4    4    0    0 -0.19211056704E+02 -0.67189080470E+01  0.94499628940E+01  0.22439033484E+02  0.00000000000E+00 0.  1.
         14    1    4    4    0    0  0.43689289866E+02 -0.10019087822E+03 -0.45114085384E+02  0.11824655102E+03  0.00000000000E+00 0. -1.
        -11    1    3    3    0    0 -0.16546967179E+02  0.27991932291E+02 -0.76781908270E+01  0.33411150992E+02  0.00000000000E+00 0. -1.
         11    1    3    3    0    0  0.92629521243E+01  0.15519479765E+03  0.13483669160E+03  0.20579640644E+03  0.00000000000E+00 0.  1.
         -4    1    1    2    0  502 -0.17194218108E+02 -0.76276943678E+02  0.13889419059E+03  0.15939074457E+03  0.00000000000E+00 0.  1.
<scales pt_clust_5="13000.00000" pt_clust_6="13000.00000" pt_clust_7="13000.00000" pt_clust_8="13000.00000" pt_clust_9="78.19092"></scales>
<clustering>
<clus scale="   78.191">  2  9  1 -1</clus>
<clus scale="   80.571">  5  6 -1 -1</clus>
<clus scale="   86.259">  7  8 -1 -1</clus>
<clus scale="  173.967">  2  5  1 -1</clus>
<clus scale="   78.191">  2  5  1 -1</clus>
</clustering>
</event>
<event>
 9    2  0.3764910E-005  0.9990288E+02  0.7546771E-02  0.1287582E+00
         -3   -1    0    0    0  501 -0.00000000000E+00  0.00000000000E+00  0.36016670121E+02  0.36016670121E+02  0.00000000000E+00 0.  1.
         21   -1    0    0  501  502  0.00000000000E+00 -0.00000000000E+00 -0.56299548953E+03  0.56299548953E+03  0.00000000000E+00 0.  1.
         24    2    1    2    0    0 -0.45045411933E+02  0.49073084300E+01 -0.13694747555E+03  0.16405682041E+03  0.78146391164E+02 0.  0.
         23    2    1    2    0    0  0.10948537518E+02  0.65543959781E+02 -0.21090454134E+03  0.23947544406E+03  0.91934115613E+02 0.  0.
        -13    1    3    3    0    0 -0.56632072719E+02  0.28318007183E+02 -0.10688258886E+03  0.12422958180E+03  0.00000000000E+00 0.  1.
         14    1    3    3    0    0  0.11586660786E+02 -0.23410698753E+02 -0.30064886685E+02  0.39827238615E+02  0.00000000000E+00 0. -1.
        -13    1    4    4    0    0 -0.10724346694E+02 -0.20657757618E+02 -0.59757183855E+02  0.64130145674E+02  0.00000000000E+00 0. -1.
         13    1    4    4    0    0  0.21672884212E+02  0.86201717398E+02 -0.15114735748E+03  0.17534529839E+03  0.00000000000E+00 0.  1.
         -4    1    1    2    0  502  0.34096874415E+02 -0.70451268211E+02 -0.17912680252E+03  0.19547989517E+03  0.00000000000E+00 0.  1.
<scales pt_clust_5="13000.00000" pt_clust_6="13000.00000" pt_clust_7="13000.00000" pt_clust_8="13000.00000" pt_clust_9="78.26863"></scales>
<clustering>
<clus scale="   78.146">  5  6 -1 -1</clus>
<clus scale="   78.269">  2  9  1 -1</clus>
<clus scale="   87.382">  1  5  2 -1</clus>
<clus scale="   91.934">  7  8 -1 -1</clus>
<clus scale="   78.269">  2  5  1 -1</clus>
</clustering>
</event>
<event>
 9    2  0.3764910E-005  0.1424753E+03  0.7546771E-02  0.1235086E+00
          2   -1    0    0  502    0 -0.00000000000E+00  0.00000000000E+00  0.39363251284E+03  0.39363251284E+03  0.00000000000E+00 0. -1.
         21   -1    0    0  501  502  0.00000000000E+00 -0.00000000000E+00 -0.84278038938E+02  0.84278038938E+02  0.00000000000E+00 0. -1.
         24    2    1    2    0    0 -0.12888799966E+02 -0.14746784483E+02  0.13268227606E+03  0.15724401156E+03  0.82082300016E+02 0.  0.
         23    2    1    2    0    0 -0.87233847434E+02 -0.54002267289E+02  0.51274080027E+02  0.14609373422E+03  0.90489551242E+02 0.  0.
        -13    1    3    3    0    0  0.20959989472E+01 -0.32044688493E+02  0.11797029645E+02  0.34211477323E+02  0.00000000000E+00 0.  1.
         14    1    3    3    0    0 -0.14984798913E+02  0.17297904010E+02  0.12088524641E+03  0.12303253424E+03  0.00000000000E+00 0. -1.
        -11    1    4    4    0    0 -0.66679453594E+02 -0.26448599141E+02 -0.13284842283E+02  0.72953169654E+02  0.00000000000E+00 0. -1.
         11    1    4    4    0    0 -0.20554393840E+02 -0.27553668148E+02  0.64558922310E+02  0.73140564562E+02  0.00000000000E+00 0.  1.
          1    1    1    2  501    0  0.10012264740E+03  0.68749051772E+02  0.12539811782E+03  0.17457280600E+03  0.00000000000E+00 0. -1.
<scales pt_clust_5="13000.00000" pt_clust_6="13000.00000" pt_clust_7="13000.00000" pt_clust_8="13000.00000" pt_clust_9="110.04937"></scales>
<clustering>
<clus scale="   82.082">  5  6 -1 -1</clus>
<clus scale="   84.387">  1  5  2 -1</clus>
<clus scale="   90.490">  7  8 -1 -1</clus>
<clus scale="  110.049">  2  9  1 -1</clus>
<clus scale="  110.049">  2  5  1 -1</clus>
</clustering>
</event>
<event>
 9    2  0.3764910E-005  0.1272468E+03  0.7546771E-02  0.1235588E+00
         21   -1    0    0  501  502  0.00000000000E+00  0.00000000000E+00  0.44420432605E+02  0.44420432605E+02  0.00000000000E+00 0.  1.
         -1   -1    0    0    0  501 -0.00000000000E+00 -0.00000000000E+00 -0.60702670219E+03  0.60702670219E+03  0.00000000000E+00 0.  1.
         24    2    1    2    0    0  0.93786545005E+02  0.40271677640E+02 -0.23178086476E+03  0.26614890600E+03  0.81823877009E+02 0.  0.
         23    2    1    2    0    0 -0.36634800236E+02 -0.56817767084E+02 -0.12601429992E+03  0.17201981054E+03  0.95607762174E+02 0.  0.
        -13    1    3    3    0    0  0.85001064032E+02  0.60379046531E+02 -0.21346222040E+03  0.23756458003E+03  0.00000000000E+00 0.  1.
         14    1    3    3    0    0  0.87854809734E+01 -0.20107368892E+02 -0.18318644364E+02  0.28584325968E+02  0.00000000000E+00 0. -1.
        -13    1    4    4    0    0  0.20740917498E+02 -0.24330030761E+02 -0.25748522655E+01  0.32074381049E+02  0.00000000000E+00 0.  1.
         13    1    4    4    0    0 -0.57375717735E+02 -0.32487736323E+02 -0.12343944766E+03  0.13994542949E+03  0.00000000000E+00 0. -1.
         -2    1    1    2    0  502 -0.57151744769E+02  0.16546089444E+02 -0.20481110490E+03  0.21327841826E+03  0.00000000000E+00 0.  1.
<scales pt_clust_5="13000.00000" pt_clust_6="13000.00000" pt_clust_7="13000.00000" pt_clust_8="13000.00000" pt_clust_9="59.49873"></scales>
<clustering>
<clus scale="   59.499">  1  9  2 -1</clus>
<clus scale="   81.824">  5  6 -1 -1</clus>
<clus scale="   95.608">  7  8 -1 -1</clus>
<clus scale="  117.244">  2  5  1 -1</clus>
<clus scale="   59.499">  1  5  2 -1</clus>
</clustering>
</event>
<event>
 9    2  0.3764910E-005  0.1695955E+03  0.7546771E-02  0.1202679E+00
         21   -1    0    0  501  502  0.00000000000E+00  0.00000000000E+00  0.57239339111E+02  0.57239339111E+02  0.00000000000E+00 0. -1.
          2   -1    0    0  502    0 -0.00000000000E+00 -0.00000000000E+00 -0.77949249996E+03  0.77949249996E+03  0.00000000000E+00 0. -1.
         23    2    1    2    0    0  0.38737361954E+02  0.65036933520E+01 -0.19656579587E+03  0.22006159535E+03  0.90808107597E+02 0.  0.
         24    2    1    2    0    0 -0.43418754832E+02 -0.14771096165E+03 -0.33811524401E+03  0.38184113857E+03  0.88187416376E+02 0.  0.
        -13    1    4    4    0    0  0.26658891735E+02 -0.27638102983E+02 -0.72511358077E+02  0.82051558762E+02  0.00000000000E+00 0.  1.
         14    1    4    4    0    0 -0.70077646567E+02 -0.12007285867E+03 -0.26560388593E+03  0.29978957980E+03  0.00000000000E+00 0. -1.
        -13    1    3    3    0    0  0.35576348783E+01 -0.38885906028E+02 -0.10446096266E+03  0.11152068496E+03  0.00000000000E+00 0.  1.
         13    1    3    3    0    0  0.35179727076E+02  0.45389599380E+02 -0.92104833210E+02  0.10854091040E+03  0.00000000000E+00 0. -1.
          1    1    1    2  501    0  0.46813928775E+01  0.14120726830E+03 -0.18757212098E+03  0.23482910515E+03  0.00000000000E+00 0. -1.
<scales pt_clust_5="13000.00000" pt_clust_6="13000.00000" pt_clust_7="13000.00000" pt_clust_8="13000.00000" pt_clust_9="144.86416"></scales>
<clustering>
<clus scale="   88.187">  5  6 -1 -1</clus>
<clus scale="   90.808">  7  8 -1 -1</clus>
<clus scale="   98.939">  2  7  1 -1</clus>
<clus scale="  144.864">  1  9  2 -1</clus>
<clus scale="  144.864">  1  5  2 -1</clus>
</clustering>
</event>
<event>
 9    2  0.3764910E-005  0.1829720E+03  0.7546771E-02  0.1188733E+00
         21   -1    0    0  501  502  0.00000000000E+00  0.00000000000E+00  0.82527172407E+02  0.82527172407E+02  0.00000000000E+00 0.  1.
         -1   -1    0    0    0  501 -0.00000000000E+00 -0.00000000000E+00 -0.63261313903E+03  0.63261313903E+03  0.00000000000E+00 0.  1.
         24    2    1    2    0    0 -0.78272810677E+01 -0.67720912060E+02 -0.15564067087E+03  0.18881574965E+03  0.82340637758E+02 0.  0.
         23    2    1    2    0    0 -0.66810146284E+02  0.17765023513E+03 -0.19683100094E+03  0.28819306210E+03  0.91047220835E+02 0.  0.
        -13    1    3    3    0    0 -0.38920895414E+02 -0.85860821581E+01 -0.64242138881E+02  0.75601648888E+02  0.00000000000E+00 0.  1.
         14    1    3    3    0    0  0.31093614346E+02 -0.59134829902E+02 -0.91398531992E+02  0.11321410076E+03  0.00000000000E+00 0. -1.
        -11    1    4    4    0    0 -0.27866605415E+02  0.18096976900E+02 -0.80043217548E+02  0.86665823401E+02  0.00000000000E+00 0. -1.
         11    1    4    4    0    0 -0.38943540869E+02  0.15955325823E+03 -0.11678778339E+03  0.20152723870E+03  0.00000000000E+00 0.  1.
         -2    1    1    2    0  502  0.74637427352E+02 -0.10992932307E+03 -0.19761429481E+03  0.23813149969E+03  0.00000000000E+00 0.  1.
<scales pt_clust_5="13000.00000" pt_clust_6="13000.00000" pt_clust_7="13000.00000" pt_clust_8="13000.00000" pt_clust_9="158.71104"></scales>
<clustering>
<clus scale="   82.341">  5  6 -1 -1</clus>
<clus scale="   91.047">  7  8 -1 -1</clus>
<clus scale="  106.899">  2  5  1 -1</clus>
<clus scale="  158.711">  1  9  2 -1</clus>
<clus scale="  158.711">  1  5  2 -1</clus>
</clustering>
</event>
<event>
 9    2  0.3764910E-005  0.9214865E+02  0.7546771E-02  0.1304288E+00
         21   -1    0    0  501  502  0.00000000000E+00  0.00000000000E+00  0.12065192119E+03  0.12065192119E+03  0.00000000000E+00 0. -1.
          2   -1    0    0  502    0 -0.00000000000E+00 -0.00000000000E+00 -0.22552861874E+03  0.22552861874E+03  0.00000000000E+00 0. -1.
         23    2    1    2    0    0  0.12154630916E+02 -0.78110891407E+01 -0.14330269372E+03  0.17073352337E+03  0.91681654700E+02 0.  0.
         24    2    1    2    0    0  0.24927315344E+02  0.12305494637E+02 -0.35335581637E+02  0.92766663518E+02  0.81143417985E+02 0.  0.
        -11    1    4    4    0    0 -0.24933714264E+02  0.23827727747E+02 -0.11933652457E+02  0.36494695198E+02  0.00000000000E+00 0.  1.
         12    1    4    4    0    0  0.49861029608E+02 -0.11522233110E+02 -0.23401929180E+02  0.56271968321E+02  0.00000000000E+00 0. -1.
        -11    1    3    3    0    0  0.41344929657E+02  0.20528868267E+02 -0.10567139862E+03  0.11531384187E+03  0.00000000000E+00 0. -1.
         11    1    3    3    0    0 -0.29190298741E+02 -0.28339957408E+02 -0.37631295096E+02  0.55419681495E+02  0.00000000000E+00 0.  1.
          1    1    1    2  501    0 -0.37081946259E+02 -0.44944054968E+01  0.73761577808E+02  0.82680353047E+02  0.00000000000E+00 0. -1.
<scales pt_clust_5="13000.00000" pt_clust_6="13000.00000" pt_clust_7="13000.00000" pt_clust_8="13000.00000" pt_clust_9="37.35332"></scales>
<clustering>
<clus scale="   37.353">  1  9  2 -1</clus>
<clus scale="   81.143">  5  6 -1 -1</clus>
<clus scale="   81.671">  1  5  2 -1</clus>
<clus scale="   91.682">  7  8 -1 -1</clus>
<clus scale="   37.353">  1  5  2 -1</clus>
</clustering>
</event>
<event>
 9    2  0.3764910E-005  0.9922374E+02  0.7546771E-02  0.1286194E+00
         21   -1    0    0  501  502  0.00000000000E+00  0.00000000000E+00  0.74112227631E+02  0.74112227631E+02  0.00000000000E+00 0. -1.
          2   -1    0    0  502    0 -0.00000000000E+00 -0.00000000000E+00 -0.34692044782E+03  0.34692044782E+03  0.00000000000E+00 0. -1.
         23    2    1    2    0    0  0.10588480872E+01 -0.23498761028E+02 -0.33472604748E+02  0.99587321584E+02  0.90795960387E+02 0.  0.
         24    2    1    2    0    0 -0.49062030279E+02  0.42660575954E+02 -0.34883026197E+02  0.11056068894E+03  0.82339740507E+02 0.  0.
        -13    1    4    4    0    0 -0.60803085480E+01 -0.20681381995E+02  0.77906200790E+01  0.22921245047E+02  0.00000000000E+00 0.  1.
         14    1    4    4    0    0 -0.42981721731E+02  0.63341957949E+02 -0.42673646276E+02  0.87639443895E+02  0.00000000000E+00 0. -1.
        -11    1    3    3    0    0 -0.21195676410E+02 -0.52823038345E+02 -0.18526286740E+02  0.59856105611E+02  0.00000000000E+00 0. -1.
         11    1    3    3    0    0  0.22254524497E+02  0.29324277317E+02 -0.14946318008E+02  0.39731215974E+02  0.00000000000E+00 0.  1.
          1    1    1    2  501    0  0.48003182192E+02 -0.19161814926E+02 -0.20445258925E+03  0.21088466493E+03  0.00000000000E+00 0. -1.
<scales pt_clust_5="13000.00000" pt_clust_6="13000.00000" pt_clust_7="13000.00000" pt_clust_8="13000.00000" pt_clust_9="51.68639"></scales>
<clustering>
<clus scale="   51.686">  1  9  2 -1</clus>
<clus scale="   82.340">  5  6 -1 -1</clus>
<clus scale="   90.796">  7  8 -1 -1</clus>
<clus scale="   91.549">  1  5  2 -1</clus>
<clus scale="   51.686">  1  5  2 -1</clus>
</clustering>
</event>
<event>
 9    2  0.3764910E-005  0.1792815E+03  0.7546771E-02  0.1169597E+00
          2   -1    0    0  502    0 -0.00000000000E+00  0.00000000000E+00  0.99221609526E+03  0.99221609526E+03  0.00000000000E+00 0. -1.
         21   -1    0    0  501  502  0.00000000000E+00 -0.00000000000E+00 -0.62532202112E+02  0.62532202112E+02  0.00000000000E+00 0. -1.
         24    2    1    2    0    0 -0.98293521766E+02  0.11988193946E+03  0.37379356580E+03  0.41304502064E+03  0.82772358997E+02 0.  0.
         23    2    1    2    0    0  0.32625452802E+02 -0.16132346168E+03  0.18981106026E+03  0.26747911284E+03  0.91799552010E+02 0.  0.
        -13    1    3    3    0    0 -0.76659925466E+02  0.35867458561E+02  0.23035638666E+03  0.24541247652E+03  0.00000000000E+00 0.  1.
         14    1    3    3    0    0 -0.21633596301E+02  0.84014480899E+02  0.14343717914E+03  0.16763254412E+03  0.00000000000E+00 0. -1.
        -11    1    4    4    0    0  0.55097991432E+02 -0.11921391848E+03  0.17228353932E+03  0.21663186502E+03  0.00000000000E+00 0. -1.
         11    1    4    4    0    0 -0.22472538631E+02 -0.42109543198E+02  0.17527520939E+02  0.50847247823E+02  0.00000000000E+00 0.  1.
          1    1    1    2  501    0  0.65668068965E+02  0.41441522222E+02  0.36607926709E+03  0.37422416389E+03  0.00000000000E+00 0. -1.
<scales pt_clust_5="13000.00000" pt_clust_6="13000.00000" pt_clust_7="13000.00000" pt_clust_8="13000.00000" pt_clust_9="77.65115"></scales>
<clustering>
<clus scale="   77.651">  2  9  1 -1</clus>
<clus scale="   82.772">  5  6 -1 -1</clus>
<clus scale="   91.800">  7  8 -1 -1</clus>
<clus scale="  174.831">  1  5  2 -1</clus>
<clus scale="   77.651">  2  5  1 -1</clus>
</clustering>
</event>
<event>
 9    2  0.3764910E-005  0.1030483E+03  0.7546771E-02  0.1279011E+00
          2   -1    0    0  502    0 -0.00000000000E+00  0.00000000000E+00  0.30052570713E+03  0.30052570713E+03  0.00000000000E+00 0. -1.
         21   -1    0    0  501  502  0.00000000000E+00 -0.00000000000E+00 -0.32237299329E+03  0.32237299329E+03  0.00000000000E+00 0. -1.
         23    2    1    2    0    0  0.25590290768E+02  0.39039770481E+02  0.27586023163E+03  0.29456456451E+03  0.92143630322E+02 0.  0.
         24    2    1    2    0    0 -0.37005597018E+02 -0.20574332574E+02 -0.12966029801E+03  0.15889048838E+03  0.81496484875E+02 0.  0.
        -11    1    4    4    0    0 -0.15288978093E+02 -0.38225980372E+02 -0.12357266082E+03  0.13025045462E+03  0.00000000000E+00 0.  1.
         12    1    4    4    0    0 -0.21716618925E+02  0.17651647798E+02 -0.60876371923E+01  0.28640033765E+02  0.00000000000E+00 0. -1.
        -11    1    3    3    0    0  0.27087492978E+02  0.65979315447E+02  0.15344267266E+03  0.16920891270E+03  0.00000000000E+00 0. -1.
         11    1    3    3    0    0 -0.14972022092E+01 -0.26939544966E+02  0.12241755897E+03  0.12535565181E+03  0.00000000000E+00 0.  1.
          1    1    1    2  501    0  0.11415306249E+02 -0.18465437907E+02 -0.16804721978E+03  0.16944364753E+03  0.00000000000E+00 0. -1.
<scales pt_clust_5="13000.00000" pt_clust_6="13000.00000" pt_clust_7="13000.00000" pt_clust_8="13000.00000" pt_clust_9="21.70902"></scales>
<clustering>
<clus scale="   21.709">  2  9  1 -1</clus>
<clus scale="   81.496">  5  6 -1 -1</clus>
<clus scale="   92.144">  7  8 -1 -1</clus>
<clus scale="   93.649">  2  5  1 -1</clus>
<clus scale="   21.709">  2  5  1 -1</clus>
</clustering>
</event>
<event>
 9    2  0.3764910E-005  0.1078300E+03  0.7546771E-02  0.1268658E+00
          4   -1    0    0  502    0 -0.00000000000E+00  0.00000000000E+00  0.30425833099E+03  0.30425833099E+03  0.00000000000E+00 0. -1.
         21   -1    0    0  501  502  0.00000000000E+00 -0.00000000000E+00 -0.14669122300E+03  0.14669122300E+03  0.00000000000E+00 0.  1.
         23    2    1    2    0    0 -0.53838856422E+02  0.28993605942E+02  0.26267412197E+03  0.28431440606E+03  0.89987418547E+02 0.  0.
         24    2    1    2    0    0  0.27214451671E+02 -0.32701804665E+02 -0.10628836335E+03  0.13972780223E+03  0.80103733526E+02 0.  0.
        -13    1    4    4    0    0  0.23864178063E+02  0.13474860848E+02 -0.83973906587E+02  0.88332824346E+02  0.00000000000E+00 0.  1.
         14    1    4    4    0    0  0.33502736084E+01 -0.46176665513E+02 -0.22314456759E+02  0.51394977883E+02  0.00000000000E+00 0. -1.
        -13    1    3    3    0    0 -0.36134528860E+02  0.44985535116E+02  0.25138234641E+03  0.25791953519E+03  0.00000000000E+00 0. -1.
         13    1    3    3    0    0 -0.17704327562E+02 -0.15991929174E+02  0.11291775556E+02  0.26394870872E+02  0.00000000000E+00 0.  1.
          3    1    1    2  501    0  0.26624404751E+02  0.37081987223E+01  0.11813493618E+01  0.26907345696E+02  0.00000000000E+00 0. -1.
<scales pt_clust_5="13000.00000" pt_clust_6="13000.00000" pt_clust_7="13000.00000" pt_clust_8="13000.00000" pt_clust_9="26.88140"></scales>
<clustering>
<clus scale="   26.881">  2  9  1 -1</clus>
<clus scale="   80.104">  5  6 -1 -1</clus>
<clus scale="   89.987">  7  8 -1 -1</clus>
<clus scale="   99.731">  2  5  1 -1</clus>
<clus scale="   26.881">  2  5  1 -1</clus>
</clustering>
</event>
<event>
 9    2  0.3764910E-005  0.1109935E+03  0.7546771E-02  0.1267136E+00
         -1   -1    0    0    0  501 -0.00000000000E+00  0.00000000000E+00  0.41383901720E+03  0.41383901720E+03  0.00000000000E+00 0.  1.
         21   -1    0    0  501  502  0.00000000000E+00 -0.00000000000E+00 -0.57931137555E+02  0.57931137555E+02  0.00000000000E+00 0. -1.
         24    2    1    2    0    0 -0.10449981900E+02 -0.64736505008E+02  0.27213994582E+03  0.29061492928E+03  0.78082455185E+02 0.  0.
         23    2    1    2    0    0  0.54182231894E+01  0.44935895674E+01  0.36946387605E+02  0.10469095508E+03  0.97701642916E+02 0.  0.
        -11    1    3    3    0    0 -0.10953098799E+02 -0.82979469847E+02  0.22142393008E+03  0.23671527117E+03  0.00000000000E+00 0.  1.
         12    1    3    3    0    0  0.50311689889E+00  0.18242964839E+02  0.50716015737E+02  0.53899658116E+02  0.00000000000E+00 0. -1.
        -11    1    4    4    0    0  0.34610298409E+02  0.20596014367E+02 -0.14990837947E+02  0.42974338693E+02  0.00000000000E+00 0. -1.
         11    1    4    4    0    0 -0.29192075220E+02 -0.16102424800E+02  0.51937225552E+02  0.61716616385E+02  0.00000000000E+00 0.  1.
         -2    1    1    2    0  502  0.50317587107E+01  0.60242915440E+02  0.46821546217E+02  0.76464270392E+02  0.00000000000E+00 0.  1.
<scales pt_clust_5="13000.00000" pt_clust_6="13000.00000" pt_clust_7="13000.00000" pt_clust_8="13000.00000" pt_clust_9="60.45269"></scales>
<clustering>
<clus scale="   60.453">  2  9  1 -1</clus>
<clus scale="   78.082">  5  6 -1 -1</clus>
<clus scale="   94.185">  1  5  2 -1</clus>
<clus scale="   97.702">  7  8 -1 -1</clus>
<clus scale="   60.453">  2  5  1 -1</clus>
</clustering>
</event>
<event>
 9    2  0.3764910E-005  0.1556571E+03  0.7546771E-02  0.1195317E+00
         21   -1    0    0  501  502  0.00000000000E+00  0.00000000000E+00  0.11861017355E+03  0.11861017355E+03  0.00000000000E+00 0.  1.
         -1   -1    0    0    0  501 -0.00000000000E+00 -0.00000000000E+00 -0.94488340414E+03  0.94488340414E+03  0.00000000000E+00 0.  1.
         24    2    1    2    0    0 -0.25123889399E+02 -0.13050493924E+03 -0.66495369988E+03  0.68300887743E+03  0.81700395859E+02 0.  0.
         23    2    1    2    0    0  0.27349390945E+02  0.10809920166E+03 -0.25022405269E+03  0.28877328351E+03  0.91348268380E+02 0.  0.
        -11    1    3    3    0    0 -0.47506248825E+02 -0.10684897659E+03 -0.58686788501E+03  0.59840409585E+03  0.00000000000E+00 0.  1.
         12    1    3    3    0    0  0.22382359426E+02 -0.23655962658E+02 -0.78085814867E+02  0.84604781580E+02  0.00000000000E+00 0. -1.
        -13    1    4    4    0    0 -0.35456026413E+01  0.11131723756E+03 -0.17558015361E+03  0.20792423865E+03  0.00000000000E+00 0. -1.
         13    1    4    4    0    0  0.30894993587E+02 -0.32180359021E+01 -0.74643899087E+02  0.80849044860E+02  0.00000000000E+00 0.  1.
         -2    1    1    2    0  502 -0.22255015466E+01  0.22405737587E+02  0.88904521981E+02  0.91711416752E+02  0.00000000000E+00 0.  1.
<scales pt_clust_5="13000.00000" pt_clust_6="13000.00000" pt_clust_7="13000.00000" pt_clust_8="13000.00000" pt_clust_9="22.51599"></scales>
<clustering>
<clus scale="   22.516">  1  9  2 -1</clus>
<clus scale="   81.700">  5  6 -1 -1</clus>
<clus scale="   91.348">  7  8 -1 -1</clus>
<clus scale="  150.198">  2  5  1 -1</clus>
<clus scale="   22.516">  1  5  2 -1</clus>
</clustering>
</event>
<event>
 9    2  0.3764910E-005  0.2277108E+03  0.7546771E-02  0.1135517E+00
          2   -1    0    0  502    0 -0.00000000000E+00  0.00000000000E+00  0.14618357563E+04  0.14618357563E+04  0.00000000000E+00 0. -1.
         21   -1    0    0  501  502  0.00000000000E+00 -0.00000000000E+00 -0.16234322595E+03  0.16234322595E+03  0.00000000000E+00 0. -1.
         23    2    1    2    0    0  0.16760924267E+03 -0.13724752444E+02  0.68180705726E+02  0.20248564878E+03  0.89836530811E+02 0.  0.
         24    2    1    2    0    0 -0.31176851035E+03  0.15546732228E+03  0.11503458380E+04  0.12039128441E+04  0.68854170094E+02 0.  0.
        -13    1    4    4    0    0 -0.48061020803E+02  0.42970012911E+02  0.14939920261E+03  0.16271571980E+03  0.00000000000E+00 0.  1.
         14    1    4    4    0    0 -0.26370748955E+03  0.11249730937E+03  0.10009466354E+04  0.10411971243E+04  0.00000000000E+00 0. -1.
        -11    1    3    3    0    0  0.89953965581E+02  0.16048152197E+02 -0.52715110110E+01  0.91526214502E+02  0.00000000000E+00 0. -1.
         11    1    3    3    0    0  0.77655277091E+02 -0.29772904641E+02  0.73452216737E+02  0.11095943427E+03  0.00000000000E+00 0.  1.
          1    1    1    2  501    0  0.14415926768E+03 -0.14174256984E+03  0.80965986574E+02  0.21778048936E+03  0.00000000000E+00 0. -1.
<scales pt_clust_5="13000.00000" pt_clust_6="13000.00000" pt_clust_7="13000.00000" pt_clust_8="13000.00000" pt_clust_9="217.05137"></scales>
<clustering>
<clus scale="   68.854">  5  6 -1 -1</clus>
<clus scale="   89.837">  7  8 -1 -1</clus>
<clus scale="  190.662">  1  7  2 -1</clus>
<clus scale="  217.051">  2  9  1 -1</clus>
<clus scale="  217.051">  2  5  1 -1</clus>
</clustering>
</event>
<event>
 9    2  0.3764910E-005  0.1228631E+03  0.7546771E-02  0.1241583E+00
         -1   -1    0    0    0  501 -0.00000000000E+00  0.00000000000E+00  0.57551837481E+03  0.57551837481E+03  0.00000000000E+00 0.  1.
         21   -1    0    0  501  502  0.00000000000E+00 -0.00000000000E+00 -0.57944107281E+02  0.57944107281E+02  0.00000000000E+00 0.  1.
         23    2    1    2    0    0  0.60234707179E+02 -0.61769529750E+02  0.35302957252E+03  0.37480883519E+03  0.91695632984E+02 0.  0.
         24    2    1    2    0    0 -0.92583357233E+02 -0.26779899908E+01  0.12853248561E+03  0.17805093487E+03  0.81256912830E+02 0.  0.
        -13    1    4    4    0    0 -0.98454353885E+02 -0.95152348183E+01  0.13471032536E+03  0.16712471766E+03  0.00000000000E+00 0.  1.
         14    1    4    4    0    0  0.58709966519E+01  0.68372448275E+01 -0.61778397518E+01  0.10926217210E+02  0.00000000000E+00 0. -1.
        -13    1    3    3    0    0  0.70635061757E+02 -0.82049102840E+01  0.21086575415E+03  0.22253314085E+03  0.00000000000E+00 0.  1.
         13    1    3    3    0    0 -0.10400354579E+02 -0.53564619466E+02  0.14216381837E+03  0.15227569434E+03  0.00000000000E+00 0. -1.
         -2    1    1    2    0  502  0.32348650055E+02  0.64447519741E+02  0.36012209394E+02  0.80602712030E+02  0.00000000000E+00 0.  1.
<scales pt_clust_5="13000.00000" pt_clust_6="13000.00000" pt_clust_7="13000.00000" pt_clust_8="13000.00000" pt_clust_9="72.11046"></scales>
<clustering>
<clus scale="   72.110">  2  9  1 -1</clus>
<clus scale="   81.257">  5  6 -1 -1</clus>
<clus scale="   91.696">  7  8 -1 -1</clus>
<clus scale="  115.282">  2  5  1 -1</clus>
<clus scale="   72.110">  2  5  1 -1</clus>
</clustering>
</event>
<event>
 9    2  0.3764910E-005  0.1967660E+03  0.7546771E-02  0.1166467E+00
         21   -1    0    0  501  502  0.00000000000E+00  0.00000000000E+00  0.19773067515E+03  0.19773067515E+03  0.00000000000E+00 0.  1.
         -3   -1    0    0    0  501 -0.00000000000E+00 -0.00000000000E+00 -0.49151286723E+03  0.49151286723E+03  0.00000000000E+00 0.  1.
         24    2    1    2    0    0  0.43114499727E+02 -0.10868167212E+03  0.66554523625E+02  0.15690906121E+03  0.80748888137E+02 0.  0.
         23    2    1    2    0    0 -0.19919127126E+03  0.55147572483E+02 -0.21974784110E+03  0.31556019742E+03  0.92578114205E+02 0.  0.
        -13    1    3    3    0    0  0.19915125867E+02 -0.11416064650E+03  0.65350328008E+02  0.13304108696E+03  0.00000000000E+00 0.  1.
         14    1    3    3    0    0  0.23199373860E+02  0.54789743897E+01  0.12041956174E+01  0.23867974253E+02  0.00000000000E+00 0. -1.
        -13    1    4    4    0    0 -0.15047384642E+02  0.30236664092E+02 -0.97518563541E+01  0.35153639105E+02  0.00000000000E+00 0. -1.
         13    1    4    4    0    0 -0.18414388662E+03  0.24910908391E+02 -0.20999598475E+03  0.28040655831E+03  0.00000000000E+00 0.  1.
         -4    1    1    2    0  502  0.15607677153E+03  0.53534099632E+02 -0.14058887460E+03  0.21677428375E+03  0.00000000000E+00 0.  1.
<scales pt_clust_5="13000.00000" pt_clust_6="13000.00000" pt_clust_7="13000.00000" pt_clust_8="13000.00000" pt_clust_9="173.62649"></scales>
<clustering>
<clus scale="   80.749">  5  6 -1 -1</clus>
<clus scale="   92.578">  7  8 -1 -1</clus>
<clus scale="  142.095">  2  5  1 -1</clus>
<clus scale="  173.626">  1  9  2 -1</clus>
<clus scale="  173.626">  1  5  2 -1</clus>
</clustering>
</event>
<event>
 9    2  0.3764910E-005  0.1612163E+03  0.7546771E-02  0.1189348E+00
         21   -1    0    0  501  502  0.00000000000E+00  0.00000000000E+00  0.91989816603E+02  0.91989816603E+02  0.00000000000E+00 0.  1.
         -3   -1    0    0    0  501 -0.00000000000E+00 -0.00000000000E+00 -0.41627487552E+03  0.41627487552E+03  0.00000000000E+00 0.  1.
         24    2    1    2    0    0  0.10703591022E+03  0.39928120353E+02 -0.12235375139E+03  0.18591963071E+03  0.80899491553E+02 0.  0.
         23    2    1    2    0    0 -0.12145736181E+03 -0.92046326873E+02 -0.19988883620E+03  0.26822983799E+03  0.93633765926E+02 0.  0.
        -13    1    3    3    0    0  0.58485319167E+02  0.63035129565E+01 -0.11122569245E+03  0.12582297681E+03  0.00000000000E+00 0.  1.
         14    1    3    3    0    0  0.48550591055E+02  0.33624607396E+02 -0.11128058944E+02  0.60096653902E+02  0.00000000000E+00 0. -1.
        -11    1    4    4    0    0 -0.28864277656E+02 -0.29583878526E+02 -0.24704369157E+01  0.41405983285E+02  0.00000000000E+00 0.  1.
         11    1    4    4    0    0 -0.92593084155E+02 -0.62462448347E+02 -0.19741839929E+03  0.22682385470E+03  0.00000000000E+00 0. -1.
         -4    1    1    2    0  502  0.14421451589E+02  0.52118206521E+02 -0.20424713291E+01  0.54115223422E+02  0.00000000000E+00 0.  1.
<scales pt_clust_5="13000.00000" pt_clust_6="13000.00000" pt_clust_7="13000.00000" pt_clust_8="13000.00000" pt_clust_9="54.07667"></scales>
<clustering>
<clus scale="   54.077">  1  9  2 -1</clus>
<clus scale="   80.899">  5  6 -1 -1</clus>
<clus scale="   93.634">  7  8 -1 -1</clus>
<clus scale="  154.169">  2  5  1 -1</clus>
<clus scale="   54.077">  1  5  2 -1</clus>
</clustering>
</event>
<event>
 9    2  0.3764910E-005  0.1295981E+03  0.7546771E-02  0.1245257E+00
         21   -1    0    0  501  502  0.00000000000E+00  0.00000000000E+00  0.10522388999E+04  0.10522388999E+04  0.00000000000E+00 0.  1.
         -1   -1    0    0    0  501 -0.00000000000E+00 -0.00000000000E+00 -0.42312554898E+02  0.42312554898E+02  0.00000000000E+00 0.  1.
         23    2    1    2    0    0  0.35533334104E+01  0.49514785200E+01  0.29829253063E+03  0.31192365823E+03  0.90998853937E+02 0.  0.
         24    2    1    2    0    0  0.80344472532E+02 -0.66087497793E+02  0.10431029462E+03  0.16649606362E+03  0.77572611192E+02 0.  0.
        -13    1    4    4    0    0  0.71216797634E+02 -0.69258258131E+02  0.49777994727E+02  0.11111429856E+03  0.00000000000E+00 0.  1.
         14    1    4    4    0    0  0.91276748982E+01  0.31707603381E+01  0.54532299895E+02  0.55381765068E+02  0.00000000000E+00 0. -1.
        -11    1    3    3    0    0  0.37739113315E+02  0.29210132031E+02  0.18715394970E+03  0.19314262444E+03  0.00000000000E+00 0.  1.
         11    1    3    3    0    0 -0.34185779905E+02 -0.24258653511E+02  0.11113858093E+03  0.11878103379E+03  0.00000000000E+00 0. -1.
         -2    1    1    2    0  502 -0.83897805942E+02  0.61136019273E+02  0.60732351971E+03  0.61613173291E+03  0.00000000000E+00 0.  1.
<scales pt_clust_5="13000.00000" pt_clust_6="13000.00000" pt_clust_7="13000.00000" pt_clust_8="13000.00000" pt_clust_9="103.81795"></scales>
<clustering>
<clus scale="   77.573">  5  6 -1 -1</clus>
<clus scale="   90.999">  7  8 -1 -1</clus>
<clus scale="   91.203">  2  7  1 -1</clus>
<clus scale="  103.818">  1  9  2 -1</clus>
<clus scale="  103.818">  1  5  2 -1</clus>
</clustering>
</event>
<event>
 9    2  0.3764910E-005  0.1943946E+03  0.7546771E-02  0.1155480E+00
         21   -1    0    0  501  502  0.00000000000E+00  0.00000000000E+00  0.20434997665E+03  0.20434997665E+03  0.00000000000E+00 0. -1.
          2   -1    0    0  502    0 -0.00000000000E+00 -0.00000000000E+00 -0.66206097694E+03  0.66206097694E+03  0.00000000000E+00 0. -1.
         23    2    1    2    0    0  0.13251910328E+03 -0.11250430362E+03 -0.54983325604E+03  0.58352092470E+03  0.89227400732E+02 0.  0.
         24    2    1    2    0    0 -0.10990778361E+03  0.12734316686E+03 -0.75359084170E+00  0.18615644362E+03  0.79734876682E+02 0.  0.
        -13    1    4    4    0    0 -0.11181832935E+03  0.13667509593E+03  0.14833943862E+00  0.17658834228E+03  0.00000000000E+00 0.  1.
         14    1    4    4    0    0  0.19105457373E+01 -0.93319290658E+01 -0.90193028032E+00  0.95681013443E+01  0.00000000000E+00 0. -1.
        -11    1    3    3    0    0 -0.83437028339E+01 -0.27309200164E+02 -0.54179494898E+02  0.61243999363E+02  0.00000000000E+00 0.  1.
         11    1    3    3    0    0  0.14086280611E+03 -0.85195103456E+02 -0.49565376114E+03  0.52227692533E+03  0.00000000000E+00 0. -1.
          1    1    1    2  501    0 -0.22611319671E+02 -0.14838863242E+02  0.92875846587E+02  0.96733585268E+02  0.00000000000E+00 0. -1.
<scales pt_clust_5="13000.00000" pt_clust_6="13000.00000" pt_clust_7="13000.00000" pt_clust_8="13000.00000" pt_clust_9="27.04558"></scales>
<clustering>
<clus scale="   27.046">  1  9  2 -1</clus>
<clus scale="   79.735">  5  6 -1 -1</clus>
<clus scale="   89.227">  7  8 -1 -1</clus>
<clus scale="  190.225">  1  5  2 -1</clus>
<clus scale="   27.046">  1  5  2 -1</clus>
</clustering>
</event>
<event>
 9    2  0.3764910E-005  0.2661074E+03  0.7546771E-02  0.1104130E+00
          2   -1    0    0  502    0 -0.00000000000E+00  0.00000000000E+00  0.31083030868E+03  0.31083030868E+03  0.00000000000E+00 0. -1.
         21   -1    0    0  501  502  0.00000000000E+00 -0.00000000000E+00 -0.37623093199E+03  0.37623093199E+03  0.00000000000E+00 0. -1.
         23    2    1    2    0    0 -0.24697366204E+03 -0.11552974246E+03  0.15212461514E+03  0.32547680948E+03  0.91924663934E+02 0.  0.
         24    2    1    2    0    0  0.17907872634E+03  0.79226748983E+02 -0.14911573075E+03  0.25859175974E+03  0.79297724222E+02 0.  0.
        -13    1    4    4    0    0  0.15310631108E+03  0.95196948407E+02 -0.13350543455E+03  0.22433836616E+03  0.00000000000E+00 0.  1.
         14    1    4    4    0    0  0.25972415261E+02 -0.15970199424E+02 -0.15610296197E+02  0.34253393576E+02  0.00000000000E+00 0. -1.
        -13    1    3    3    0    0 -0.16449242275E+03 -0.48436406113E+02  0.51388008423E+02  0.17900997176E+03  0.00000000000E+00 0. -1.
         13    1    3    3    0    0 -0.82481239290E+02 -0.67093336351E+02  0.10073660672E+03  0.14646683772E+03  0.00000000000E+00 0.  1.
          1    1    1    2  501    0  0.67894935704E+02  0.36302993482E+02 -0.68409507699E+02  0.10299267146E+03  0.00000000000E+00 0. -1.
<scales pt_clust_5="13000.00000" pt_clust_6="13000.00000" pt_clust_7="13000.00000" pt_clust_8="13000.00000" pt_clust_9="76.99110"></scales>
<clustering>
<clus scale="   76.991">  2  9  1 -1</clus>
<clus scale="   79.298">  5  6 -1 -1</clus>
<clus scale="   91.925">  7  8 -1 -1</clus>
<clus scale="  262.014">  2  5  1 -1</clus>
<clus scale="   76.991">  2  5  1 -1</clus>
</clustering>
</event>
<event>
 9    2  0.3764910E-005  0.9406699E+02  0.7546771E-02  0.1298002E+00
         21   -1    0    0  501  502  0.00000000000E+00  0.00000000000E+00  0.44671586385E+03  0.44671586385E+03  0.00000000000E+00 0. -1.
         -3   -1    0    0    0  501 -0.00000000000E+00 -0.00000000000E+00 -0.50815555559E+02  0.50815555559E+02  0.00000000000E+00 0.  1.
         24    2    1    2    0    0  0.38360781469E+01  0.32961393953E+02  0.10669602256E+03  0.13921136720E+03  0.83033695215E+02 0.  0.
         23    2    1    2    0    0 -0.42419409878E+02  0.19269339495E+02  0.27274135159E+03  0.29132937222E+03  0.91182478986E+02 0.  0.
        -11    1    3    3    0    0 -0.37503675225E+01 -0.26422920588E+02  0.50415912145E+02  0.57043844421E+02  0.00000000000E+00 0.  1.
         12    1    3    3    0    0  0.75864456695E+01  0.59384314541E+02  0.56280110419E+02  0.82167522783E+02  0.00000000000E+00 0. -1.
        -11    1    4    4    0    0 -0.13674084543E+02 -0.19084608589E+02  0.12281279609E+02  0.26495899719E+02  0.00000000000E+00 0.  1.
         11    1    4    4    0    0 -0.28745325335E+02  0.38353948084E+02  0.26046007198E+03  0.26483347250E+03  0.00000000000E+00 0. -1.
         -4    1    1    2    0  502  0.38583331731E+02 -0.52230733448E+02  0.16462934138E+02  0.66990679981E+02  0.00000000000E+00 0.  1.
<scales pt_clust_5="13000.00000" pt_clust_6="13000.00000" pt_clust_7="13000.00000" pt_clust_8="13000.00000" pt_clust_9="64.93633"></scales>
<clustering>
<clus scale="   64.936">  1  9  2 -1</clus>
<clus scale="   83.034">  5  6 -1 -1</clus>
<clus scale="   86.191">  2  5  1 -1</clus>
<clus scale="   91.182">  7  8 -1 -1</clus>
<clus scale="   64.936">  1  5  2 -1</clus>
</clustering>
</event>
<event>
 9    2  0.3764910E-005  0.9400777E+02  0.7546771E-02  0.1311781E+00
         -3   -1    0    0    0  501 -0.00000000000E+00  0.00000000000E+00  0.14856381309E+03  0.14856381309E+03  0.00000000000E+00 0.  1.
         21   -1    0    0  501  502  0.00000000000E+00 -0.00000000000E+00 -0.26542345596E+03  0.26542345596E+03  0.00000000000E+00 0. -1.
         23    2    1    2    0    0 -0.19236518281E+02  0.25749066041E+01  0.11388153762E+03  0.14745622502E+03  0.91638746768E+02 0.  0.
         24    2    1    2    0    0  0.43255552017E+02 -0.29183397799E+00 -0.22981635104E+03  0.24238602981E+03  0.63751896385E+02 0.  0.
        -13    1    4    4    0    0  0.28341009229E+02 -0.76449212332E+01 -0.30332832692E+02  0.42210642780E+02  0.00000000000E+00 0.  1.
         14    1    4    4    0    0  0.14914542788E+02  0.73530872552E+01 -0.19948351835E+03  0.20017538703E+03  0.00000000000E+00 0. -1.
        -13    1    3    3    0    0  0.50158964248E+00 -0.24352937471E+02 -0.42245731061E+01  0.24721734841E+02  0.00000000000E+00 0.  1.
         13    1    3    3    0    0 -0.19738107924E+02  0.26927844075E+02  0.11810611072E+03  0.12273449018E+03  0.00000000000E+00 0. -1.
         -4    1    1    2    0  502 -0.24019033736E+02 -0.22830726261E+01 -0.92482943880E+00  0.24145014221E+02  0.00000000000E+00 0.  1.
<scales pt_clust_5="13000.00000" pt_clust_6="13000.00000" pt_clust_7="13000.00000" pt_clust_8="13000.00000" pt_clust_9="24.12731"></scales>
<clustering>
<clus scale="   24.127">  2  9  1 -1</clus>
<clus scale="   63.752">  5  6 -1 -1</clus>
<clus scale="   67.113">  2  5  1 -1</clus>
<clus scale="   91.639">  7  8 -1 -1</clus>
<clus scale="   24.127">  2  5  1 -1</clus>
</clustering>
</event>
<event>
 9    2  0.3764910E-005  0.1061716E+03  0.7546771E-02  0.1271752E+00
         -1   -1    0    0    0  501 -0.00000000000E+00  0.00000000000E+00  0.14834932120E+03  0.14834932120E+03  0.00000000000E+00 0.  1.
         21   -1    0    0  501  502  0.00000000000E+00 -0.00000000000E+00 -0.17633340809E+03  0.17633340809E+03  0.00000000000E+00 0. -1.
         23    2    1    2    0    0  0.30660493443E+01 -0.64510776955E+02  0.89498905461E+02  0.14238814641E+03  0.89962709823E+02 0.  0.
         24    2    1    2    0    0 -0.16688655880E+02  0.18959011992E+02 -0.10161589760E+03  0.13217169992E+03  0.80657375639E+02 0.  0.
        -11    1    4    4    0    0  0.18924383874E+02  0.11680920712E+02  0.20349813283E+01  0.22331980716E+02  0.00000000000E+00 0.  1.
         12    1    4    4    0    0 -0.35613039754E+02  0.72780912795E+01 -0.10365087893E+03  0.10983971921E+03  0.00000000000E+00 0. -1.
        -13    1    3    3    0    0 -0.32777485245E+02 -0.66855504452E+02  0.65693008701E+02  0.99295485329E+02  0.00000000000E+00 0. -1.
         13    1    3    3    0    0  0.35843534589E+02  0.23447274969E+01  0.23805896760E+02  0.43092661086E+02  0.00000000000E+00 0.  1.
         -2    1    1    2    0  502  0.13622606536E+02  0.45551764963E+02 -0.15867094746E+02  0.50122882956E+02  0.00000000000E+00 0.  1.
<scales pt_clust_5="13000.00000" pt_clust_6="13000.00000" pt_clust_7="13000.00000" pt_clust_8="13000.00000" pt_clust_9="47.54512"></scales>
<clustering>
<clus scale="   47.545">  2  9  1 -1</clus>
<clus scale="   80.657">  5  6 -1 -1</clus>
<clus scale="   89.963">  7  8 -1 -1</clus>
<clus scale="   98.411">  2  5  1 -1</clus>
<clus scale="   47.545">  2  5  1 -1</clus>
</clustering>
</event>
<event>
 9    2  0.3764910E-005  0.9613790E+02  0.7546771E-02  0.1293797E+00
         21   -1    0    0  501  502  0.00000000000E+00  0.00000000000E+00  0.58085323545E+02  0.58085323545E+02  0.00000000000E+00 0. -1.
          2   -1    0    0  502    0 -0.00000000000E+00 -0.00000000000E+00 -0.21716618636E+03  0.21716618636E+03  0.00000000000E+00 0. -1.
         23    2    1    2    0    0 -0.36802080032E+02  0.42256337995E+01 -0.11610362818E+03  0.15177041219E+03  0.90454167756E+02 0.  0.
         24    2    1    2    0    0  0.19608383487E+02 -0.20737723225E+02 -0.15768692995E+02  0.87306838409E+02  0.80989446762E+02 0.  0.
        -13    1    4    4    0    0  0.49719202165E+02 -0.99812150889E+01  0.19548269393E+01  0.50748843011E+02  0.00000000000E+00 0.  1.
         14    1    4    4    0    0 -0.30110818678E+02 -0.10756508136E+02 -0.17723519934E+02  0.36557995399E+02  0.00000000000E+00 0. -1.
        -11    1    3    3    0    0 -0.30381606715E+02  0.46192293814E+02 -0.66221919309E+02  0.86267680108E+02  0.00000000000E+00 0.  1.
         11    1    3    3    0    0 -0.64204733166E+01 -0.41966660014E+02 -0.49881708868E+02  0.65502732080E+02  0.00000000000E+00 0. -1.
          1    1    1    2  501    0  0.17193696545E+02  0.16512089425E+02 -0.27208541647E+02  0.36174259309E+02  0.00000000000E+00 0. -1.
<scales pt_clust_5="13000.00000" pt_clust_6="13000.00000" pt_clust_7="13000.00000" pt_clust_8="13000.00000" pt_clust_9="23.83847"></scales>
<clustering>
<clus scale="   23.838">  1  9  2 -1</clus>
<clus scale="   80.989">  5  6 -1 -1</clus>
<clus scale="   87.292">  1  5  2 -1</clus>
<clus scale="   90.454">  7  8 -1 -1</clus>
<clus scale="   23.838">  1  5  2 -1</clus>
</clustering>
</event>
<event>
 9    2  0.3764910E-005  0.1516517E+03  0.7546771E-02  0.1201001E+00
         -1   -1    0    0    0  501 -0.00000000000E+00  0.00000000000E+00  0.20896246660E+03  0.20896246660E+03  0.00000000000E+00 0.  1.
         21   -1    0    0  501  502  0.00000000000E+00 -0.00000000000E+00 -0.29517414631E+03  0.29517414631E+03  0.00000000000E+00 0. -1.
         23    2    1    2    0    0 -0.86650220551E+02  0.80527359278E+02  0.14652679302E+03  0.20991779400E+03  0.92749462806E+02 0.  0.
         24    2    1    2    0    0  0.10946116995E+03 -0.74739370441E+02 -0.18359726237E+03  0.23973305212E+03  0.78716328080E+02 0.  0.
        -13    1    4    4    0    0  0.45766783975E+02 -0.76499863748E+02 -0.91538449855E+02  0.12777368849E+03  0.00000000000E+00 0.  1.
         14    1    4    4    0    0  0.63694385980E+02  0.17604933069E+01 -0.92058812515E+02  0.11195936363E+03  0.00000000000E+00 0. -1.
        -11    1    3    3    0    0 -0.22169674622E+02 -0.20675977052E+02  0.30114279729E+02  0.42730087100E+02  0.00000000000E+00 0.  1.
         11    1    3    3    0    0 -0.64480545928E+02  0.10120333633E+03  0.11641251329E+03  0.16718770690E+03  0.00000000000E+00 0. -1.
         -2    1    1    2    0  502 -0.22810949404E+02 -0.57879888369E+01 -0.49141210358E+02  0.54485766793E+02  0.00000000000E+00 0.  1.
<scales pt_clust_5="13000.00000" pt_clust_6="13000.00000" pt_clust_7="13000.00000" pt_clust_8="13000.00000" pt_clust_9="23.53381"></scales>
<clustering>
<clus scale="   23.534">  2  9  1 -1</clus>
<clus scale="   78.716">  5  6 -1 -1</clus>
<clus scale="   92.749">  7  8 -1 -1</clus>
<clus scale="  143.499">  2  5  1 -1</clus>
<clus scale="   23.534">  2  5  1 -1</clus>
</clustering>
</event>
<event>
 9    2  0.3764910E-005  0.1513679E+03  0.7546771E-02  0.1217750E+00
         21   -1    0    0  501  502  0.00000000000E+00  0.00000000000E+00  0.29180339991E+02  0.29180339991E+02  0.00000000000E+00 0.  1.
          2   -1    0    0  502    0 -0.00000000000E+00 -0.00000000000E+00 -0.16476211064E+04  0.16476211064E+04  0.00000000000E+00 0. -1.
         23    2    1    2    0    0  0.18987700431E+02 -0.41061303133E+02 -0.45200120300E+03  0.46312137090E+03  0.90165144563E+02 0.  0.
         24    2    1    2    0    0  0.12377236490E+03  0.30676693714E+02 -0.29424001601E+03  0.32981338483E+03  0.77065063029E+02 0.  0.
        -11    1    4    4    0    0  0.12377309773E+03  0.44010424540E+02 -0.28429989067E+03  0.31318225528E+03  0.00000000000E+00 0.  1.
         12    1    4    4    0    0 -0.73282045932E-03 -0.13333730826E+02 -0.99401253429E+01  0.16631129550E+02  0.00000000000E+00 0. -1.
        -13    1    3    3    0    0  0.48319518407E+02 -0.20510422630E+01 -0.16284278856E+03  0.16987276538E+03  0.00000000000E+00 0. -1.
         13    1    3    3    0    0 -0.29331817976E+02 -0.39010260870E+02 -0.28915841444E+03  0.29324860552E+03  0.00000000000E+00 0.  1.
          1    1    1    2  501    0 -0.14276006534E+03  0.10384609419E+02 -0.87219954741E+03  0.88386669066E+03  0.00000000000E+00 0. -1.
<scales pt_clust_5="13000.00000" pt_clust_6="13000.00000" pt_clust_7="13000.00000" pt_clust_8="13000.00000" pt_clust_9="130.28134"></scales>
<clustering>
<clus scale="   77.065">  5  6 -1 -1</clus>
<clus scale="   90.165">  7  8 -1 -1</clus>
<clus scale="  100.878">  2  7  1 -1</clus>
<clus scale="  130.281">  1  9  2 -1</clus>
<clus scale="  130.281">  1  5  2 -1</clus>
</clustering>
</event>
<event>
 9    2  0.3764910E-005  0.2466964E+03  0.7546771E-02  0.1149877E+00
         21   -1    0    0  501  502  0.00000000000E+00  0.00000000000E+00  0.41987299251E+02  0.41987299251E+02  0.00000000000E+00 0. -1.
          2   -1    0    0  502    0 -0.00000000000E+00 -0.00000000000E+00 -0.21825999656E+04  0.21825999656E+04  0.00000000000E+00 0. -1.
         23    2    1    2    0    0 -0.38716212912E+02  0.40066230964E+02 -0.29629123211E+03  0.31475644355E+03  0.90437141294E+02 0.  0.
         24    2    1    2    0    0  0.21087173496E+03 -0.16479244958E+03 -0.11616507505E+04  0.11948249362E+04  0.80936529661E+02 0.  0.
        -11    1    4    4    0    0  0.37348160456E+02 -0.16015408597E+02 -0.85472879993E+02  0.94641384269E+02  0.00000000000E+00 0.  1.
         12    1    4    4    0    0  0.17352357450E+03 -0.14877704099E+03 -0.10761778705E+04  0.11001835519E+04  0.00000000000E+00 0. -1.
        -11    1    3    3    0    0 -0.21329316692E+02  0.69134741464E+02 -0.20146852545E+03  0.21406568846E+03  0.00000000000E+00 0.  1.
         11    1    3    3    0    0 -0.17386896220E+02 -0.29068510500E+02 -0.94822706662E+02  0.10069075509E+03  0.00000000000E+00 0. -1.
          1    1    1    2  501    0 -0.17215552205E+03  0.12472621862E+03 -0.68267068371E+03  0.71500588514E+03  0.00000000000E+00 0. -1.
<scales pt_clust_5="13000.00000" pt_clust_6="13000.00000" pt_clust_7="13000.00000" pt_clust_8="13000.00000" pt_clust_9="233.04157"></scales>
<clustering>
<clus scale="   80.937">  5  6 -1 -1</clus>
<clus scale="   90.437">  7  8 -1 -1</clus>
<clus scale="  106.222">  2  7  1 -1</clus>
<clus scale="  233.042">  1  9  2 -1</clus>
<clus scale="  233.042">  1  5  2 -1</clus>
</clustering>
</event>
<event>
 9    2  0.3764910E-005  0.1528160E+03  0.7546771E-02  0.1199044E+00
         21   -1    0    0  501  502  0.00000000000E+00  0.00000000000E+00  0.14455138885E+03  0.14455138885E+03  0.00000000000E+00 0.  1.
         -1   -1    0    0    0  501 -0.00000000000E+00 -0.00000000000E+00 -0.81273453873E+03  0.81273453873E+03  0.00000000000E+00 0.  1.
         23    2    1    2    0    0  0.75029016834E+02 -0.91876735352E+02 -0.33971298815E+03  0.37125148722E+03  0.91389630605E+02 0.  0.
         24    2    1    2    0    0  0.40333448351E+02  0.15484810937E+03 -0.39870420190E+03  0.43701527140E+03  0.80078603825E+02 0.  0.
        -13    1    4    4    0    0  0.40772665327E+02  0.22883419518E+02 -0.95158146997E+02  0.10602421453E+03  0.00000000000E+00 0.  1.
         14    1    4    4    0    0 -0.43921697609E+00  0.13196468986E+03 -0.30354605490E+03  0.33099105687E+03  0.00000000000E+00 0. -1.
        -11    1    3    3    0    0 -0.17209428882E+02 -0.17381327699E+02 -0.25135955942E+02  0.35072657101E+02  0.00000000000E+00 0. -1.
         11    1    3    3    0    0  0.92238445717E+02 -0.74495407652E+02 -0.31457703220E+03  0.33617883012E+03  0.00000000000E+00 0.  1.
         -2    1    1    2    0  502 -0.11536246519E+03 -0.62971374021E+02  0.70234040164E+02  0.14901916896E+03  0.00000000000E+00 0.  1.
<scales pt_clust_5="13000.00000" pt_clust_6="13000.00000" pt_clust_7="13000.00000" pt_clust_8="13000.00000" pt_clust_9="131.43018"></scales>
<clustering>
<clus scale="   80.079">  5  6 -1 -1</clus>
<clus scale="   91.390">  7  8 -1 -1</clus>
<clus scale="  131.430">  1  9  2 -1</clus>
<clus scale="  146.333">  1  5  2 -1</clus>
<clus scale="  131.430">  1  5  2 -1</clus>
</clustering>
</event>
<event>
 9    2  0.3764910E-005  0.1470097E+03  0.7546771E-02  0.1205994E+00
         21   -1    0    0  501  502  0.00000000000E+00  0.00000000000E+00  0.41590629435E+03  0.41590629435E+03  0.00000000000E+00 0. -1.
         -1   -1    0    0    0  501 -0.00000000000E+00 -0.00000000000E+00 -0.15517571949E+03  0.15517571949E+03  0.00000000000E+00 0.  1.
         23    2    1    2    0    0 -0.11408250814E+03 -0.31233294366E+02 -0.10102440708E+03  0.17982885843E+03  0.90233863701E+02 0.  0.
         24    2    1    2    0    0  0.96587828121E+02  0.21127138122E+02  0.29367991266E+03  0.32024320343E+03  0.80822359139E+02 0.  0.
        -13    1    4    4    0    0 -0.91391016912E+01  0.19977347225E+02  0.50248521315E+02  0.54840965310E+02  0.00000000000E+00 0.  1.
         14    1    4    4    0    0  0.10572692981E+03  0.11497908977E+01  0.24343139134E+03  0.26540223812E+03  0.00000000000E+00 0. -1.
        -13    1    3    3    0    0 -0.49087090630E+02  0.10921250131E+02  0.27094097671E+01  0.50360272758E+02  0.00000000000E+00 0. -1.
         13    1    3    3    0    0 -0.64995417512E+02 -0.42154544497E+02 -0.10373381684E+03  0.12946858567E+03  0.00000000000E+00 0.  1.
         -2    1    1    2    0  502  0.17494680021E+02  0.10106156244E+02  0.68075069283E+02  0.71009951985E+02  0.00000000000E+00 0.  1.
<scales pt_clust_5="13000.00000" pt_clust_6="13000.00000" pt_clust_7="13000.00000" pt_clust_8="13000.00000" pt_clust_9="20.20392"></scales>
<clustering>
<clus scale="   20.204">  1  9  2 -1</clus>
<clus scale="   80.822">  5  6 -1 -1</clus>
<clus scale="   90.234">  7  8 -1 -1</clus>
<clus scale="  141.428">  1  5  2 -1</clus>
<clus scale="   20.204">  1  5  2 -1</clus>
</clustering>
</event>
<event>
 9    2  0.5493396E-005  0.9437349E+02  0.7546771E-02  0.1299728E+00
          2   -1    0    0  502    0 -0.00000000000E+00  0.00000000000E+00  0.52481961321E+03  0.52481961321E+03  0.00000000000E+00 0. -1.
         21   -1    0    0  501  502  0.00000000000E+00 -0.00000000000E+00 -0.87917114813E+02  0.87917114813E+02  0.00000000000E+00 0.  1.
         24    2    1    2    0    0 -0.28340560105E+01 -0.24533137148E+02  0.45950981870E+03  0.46680078070E+03  0.78382323835E+02 0.  0.
         23    2    1    2    0    0  0.62054498826E+01  0.57345729320E+02 -0.31158070115E+02  0.11186032811E+03  0.90635905651E+02 0.  0.
        -11    1    3    3    0    0 -0.26342622521E+02  0.96525657805E+01  0.75287678526E+02  0.80345132555E+02  0.00000000000E+00 0.  1.
         12    1    3    3    0    0  0.23508566511E+02 -0.34185702928E+02  0.38422214018E+03  0.38645564815E+03  0.00000000000E+00 0. -1.
        -13    1    4    4    0    0 -0.80241095572E+01  0.75329773276E+02 -0.41861790641E+02  0.86552704126E+02  0.00000000000E+00 0.  1.
         13    1    4    4    0    0  0.14229559440E+02 -0.17984043956E+02  0.10703720526E+02  0.25307623988E+02  0.00000000000E+00 0. -1.
          1    1    1    2  501    0 -0.33713938720E+01 -0.32812592172E+02  0.85507498049E+01  0.34075619201E+02  0.00000000000E+00 0. -1.
<scales pt_clust_5="13000.00000" pt_clust_6="13000.00000" pt_clust_7="13000.00000" pt_clust_8="13000.00000" pt_clust_9="32.98534"></scales>
<clustering>
<clus scale="   32.985">  2  9  1 -1</clus>
<clus scale="   78.382">  5  6 -1 -1</clus>
<clus scale="   82.676">  1  5  2 -1</clus>
<clus scale="   90.636">  7  8 -1 -1</clus>
<clus scale="   32.985">  2  5  1 -1</clus>
</clustering>
</event>
<event>
 9    2  0.3764910E-005  0.1997665E+03  0.7546771E-02  0.1154613E+00
          2   -1    0    0  502    0 -0.00000000000E+00  0.00000000000E+00  0.11927377762E+04  0.11927377762E+04  0.00000000000E+00 0. -1.
         21   -1    0    0  501  502  0.00000000000E+00 -0.00000000000E+00 -0.17384069118E+03  0.17384069118E+03  0.00000000000E+00 0. -1.
         23    2    1    2    0    0  0.28714346395E+02  0.13135119927E+03  0.53941721409E+03  0.56891383258E+03  0.12088989538E+03 0.  0.
         24    2    1    2    0    0 -0.16566650304E+03 -0.14239916888E+03  0.58148312565E+03  0.62654299738E+03  0.81918182465E+02 0.  0.
        -13    1    4    4    0    0 -0.48766368371E+02 -0.86012504208E+02  0.19132753033E+03  0.21536604520E+03  0.00000000000E+00 0.  1.
         14    1    4    4    0    0 -0.11690013467E+03 -0.56386664671E+02  0.39015559533E+03  0.41117695218E+03  0.00000000000E+00 0. -1.
        -11    1    3    3    0    0  0.31397970999E+02  0.15236778805E+03  0.50573862284E+03  0.52912506088E+03  0.00000000000E+00 0.  1.
         11    1    3    3    0    0 -0.26836246044E+01 -0.21016588779E+02  0.33678591249E+02  0.39788771701E+02  0.00000000000E+00 0. -1.
          1    1    1    2  501    0  0.13695215665E+03  0.11047969612E+02 -0.10200325468E+03  0.17112163746E+03  0.00000000000E+00 0. -1.
<scales pt_clust_5="13000.00000" pt_clust_6="13000.00000" pt_clust_7="13000.00000" pt_clust_8="13000.00000" pt_clust_9="137.39706"></scales>
<clustering>
<clus scale="   81.918">  5  6 -1 -1</clus>
<clus scale="  120.890">  7  8 -1 -1</clus>
<clus scale="  137.397">  2  9  1 -1</clus>
<clus scale="  178.894">  2  5  1 -1</clus>
<clus scale="  137.397">  2  5  1 -1</clus>
</clustering>
</event>
<event>
 9    2  0.3764910E-005  0.1614069E+03  0.7546771E-02  0.1214582E+00
          2   -1    0    0  502    0 -0.00000000000E+00  0.00000000000E+00  0.15091919140E+04  0.15091919140E+04  0.00000000000E+00 0. -1.
         21   -1    0    0  501  502  0.00000000000E+00 -0.00000000000E+00 -0.26754382515E+02  0.26754382515E+02  0.00000000000E+00 0. -1.
         24    2    1    2    0    0  0.59973036880E+00  0.43230239444E+02  0.42914367485E+03  0.43826744228E+03  0.77748594923E+02 0.  0.
         23    2    1    2    0    0 -0.78119774179E+02  0.80820876837E+02  0.71255819005E+03  0.72687050599E+03  0.89257184760E+02 0.  0.
        -11    1    3    3    0    0  0.53597485833E+01 -0.21652264361E+02  0.77045433438E+02  0.80209390164E+02  0.00000000000E+00 0.  1.
         12    1    3    3    0    0 -0.47600182145E+01  0.64882503806E+02  0.35209824142E+03  0.35805805211E+03  0.00000000000E+00 0. -1.
        -13    1    4    4    0    0 -0.95701753646E+02  0.50104839631E+02  0.54900731984E+03  0.55953405423E+03  0.00000000000E+00 0. -1.
         13    1    4    4    0    0  0.17581979467E+02  0.30716037206E+02  0.16355087021E+03  0.16733645176E+03  0.00000000000E+00 0.  1.
          1    1    1    2  501    0  0.77520043810E+02 -0.12405111628E+03  0.34073566655E+03  0.37080834821E+03  0.00000000000E+00 0. -1.
<scales pt_clust_5="13000.00000" pt_clust_6="13000.00000" pt_clust_7="13000.00000" pt_clust_8="13000.00000" pt_clust_9="134.48171"></scales>
<clustering>
<clus scale="   77.749">  5  6 -1 -1</clus>
<clus scale="   88.961">  1  5  2 -1</clus>
<clus scale="   89.257">  7  8 -1 -1</clus>
<clus scale="  134.482">  2  9  1 -1</clus>
<clus scale="  134.482">  2  5  1 -1</clus>
</clustering>
</event>
<event>
 9    2  0.3764910E-005  0.1357390E+03  0.7546771E-02  0.1221102E+00
         -1   -1    0    0    0  501 -0.00000000000E+00  0.00000000000E+00  0.32374507666E+03  0.32374507666E+03  0.00000000000E+00 0.  1.
         21   -1    0    0  501  502  0.00000000000E+00 -0.00000000000E+00 -0.76760237927E+02  0.76760237927E+02  0.00000000000E+00 0.  1.
         23    2    1    2    0    0  0.17330147737E+02  0.88037973548E+02  0.67969915344E+02  0.14266120524E+03  0.87642976220E+02 0.  0.
         24    2    1    2    0    0 -0.11674422058E+02 -0.11700264145E+03  0.99819905770E+02  0.17332908089E+03  0.79076206642E+02 0.  0.
        -11    1    4    4    0    0  0.56789293931E+01 -0.11666610258E+03  0.10294317232E+03  0.15569369434E+03  0.00000000000E+00 0.  1.
         12    1    4    4    0    0 -0.17353351451E+02 -0.33653887631E+00 -0.31232665461E+01  0.17635386554E+02  0.00000000000E+00 0. -1.
        -11    1    3    3    0    0  0.31046960785E+02 -0.25890447841E+01  0.52417140065E+01  0.31592601865E+02  0.00000000000E+00 0.  1.
         11    1    3    3    0    0 -0.13716813048E+02  0.90627018333E+02  0.62728201337E+02  0.11106860337E+03  0.00000000000E+00 0. -1.
         -2    1    1    2    0  502 -0.56557256786E+01  0.28964667905E+02  0.79195017622E+02  0.84515028462E+02  0.00000000000E+00 0.  1.
<scales pt_clust_5="13000.00000" pt_clust_6="13000.00000" pt_clust_7="13000.00000" pt_clust_8="13000.00000" pt_clust_9="29.51169"></scales>
<clustering>
<clus scale="   29.512">  2  9  1 -1</clus>
<clus scale="   79.076">  5  6 -1 -1</clus>
<clus scale="   87.643">  7  8 -1 -1</clus>
<clus scale="  130.372">  2  5  1 -1</clus>
<clus scale="   29.512">  2  5  1 -1</clus>
</clustering>
</event>
<event>
 9    2  0.3764910E-005  0.1295719E+03  0.7546771E-02  0.1231628E+00
         21   -1    0    0  501  502  0.00000000000E+00  0.00000000000E+00  0.23841216386E+02  0.23841216386E+02  0.00000000000E+00 0.  1.
          2   -1    0    0  502    0 -0.00000000000E+00 -0.00000000000E+00 -0.14538526602E+04  0.14538526602E+04  0.00000000000E+00 0. -1.
         24    2    1    2    0    0  0.89054134435E+02 -0.66178744283E+02 -0.47804150392E+03  0.49732577808E+03  0.80616282609E+02 0.  0.
         23    2    1    2    0    0 -0.78732241109E+02 -0.14082896536E+02 -0.31426797333E+03  0.33755220680E+03  0.93701864917E+02 0.  0.
        -11    1    3    3    0    0  0.58148064931E+02 -0.67394463851E+02 -0.21831333027E+03  0.23576242573E+03  0.00000000000E+00 0.  1.
         12    1    3    3    0    0  0.30906069503E+02  0.12157195679E+01 -0.25972817366E+03  0.26156335236E+03  0.00000000000E+00 0. -1.
        -13    1    4    4    0    0 -0.62367215011E+02  0.24808501223E+02 -0.26156480520E+03  0.27003940187E+03  0.00000000000E+00 0. -1.
         13    1    4    4    0    0 -0.16365026098E+02 -0.38891397759E+02 -0.52703168130E+02  0.67512804932E+02  0.00000000000E+00 0.  1.
          1    1    1    2  501    0 -0.10321893326E+02  0.80261640819E+02 -0.63770196661E+03  0.64281589175E+03  0.00000000000E+00 0. -1.
<scales pt_clust_5="13000.00000" pt_clust_6="13000.00000" pt_clust_7="13000.00000" pt_clust_8="13000.00000" pt_clust_9="80.92267"></scales>
<clustering>
<clus scale="   80.616">  5  6 -1 -1</clus>
<clus scale="   80.923">  1  9  2 -1</clus>
<clus scale="   93.702">  7  8 -1 -1</clus>
<clus scale="  120.448">  2  5  1 -1</clus>
<clus scale="   80.923">  1  5  2 -1</clus>
</clustering>
</event>
<event>
 9    2  0.3764910E-005  0.1182660E+03  0.7546771E-02  0.1271125E+00
          2   -1    0    0  502    0 -0.00000000000E+00  0.00000000000E+00  0.31804997883E+03  0.31804997883E+03  0.00000000000E+00 0. -1.
         21   -1    0    0  501  502  0.00000000000E+00 -0.00000000000E+00 -0.17102384692E+03  0.17102384692E+03  0.00000000000E+00 0. -1.
         24    2    1    2    0    0 -0.40587099759E+02  0.19461881560E+02  0.21907396126E+03  0.23062348807E+03  0.56282459504E+02 0.  0.
         23    2    1    2    0    0 -0.41222022578E+02 -0.26436392215E+02  0.47976973562E+02  0.11302912324E+03  0.89864646710E+02 0.  0.
        -13    1    3    3    0    0 -0.25739020881E+02 -0.18164432566E+02  0.10241762863E+03  0.10715322889E+03  0.00000000000E+00 0.  1.
         14    1    3    3    0    0 -0.14848078878E+02  0.37626314126E+02  0.11665633263E+03  0.12347025919E+03  0.00000000000E+00 0. -1.
        -13    1    4    4    0    0  0.20415408137E+02 -0.10513776238E+02 -0.11698418669E+02  0.25771716658E+02  0.00000000000E+00 0.  1.
         13    1    4    4    0    0 -0.61637430714E+02 -0.15922615977E+02  0.59675392231E+02  0.87257406577E+02  0.00000000000E+00 0. -1.
          1    1    1    2  501    0  0.81809122337E+02  0.69745106545E+01 -0.12002480291E+03  0.14542121444E+03  0.00000000000E+00 0. -1.
<scales pt_clust_5="13000.00000" pt_clust_6="13000.00000" pt_clust_7="13000.00000" pt_clust_8="13000.00000" pt_clust_9="76.88432"></scales>
<clustering>
<clus scale="   56.282">  5  6 -1 -1</clus>
<clus scale="   72.068">  1  5  2 -1</clus>
<clus scale="   76.884">  2  9  1 -1</clus>
<clus scale="   89.865">  7  8 -1 -1</clus>
<clus scale="   76.884">  2  5  1 -1</clus>
</clustering>
</event>
<event>
 9    2  0.3764910E-005  0.9380412E+02  0.7546771E-02  0.1314979E+00
         -3   -1    0    0    0  501 -0.00000000000E+00  0.00000000000E+00  0.20864900018E+03  0.20864900018E+03  0.00000000000E+00 0.  1.
         21   -1    0    0  501  502  0.00000000000E+00 -0.00000000000E+00 -0.93223540178E+02  0.93223540178E+02  0.00000000000E+00 0.  1.
         23    2    1    2    0    0  0.45126578420E+01  0.19131506420E+02  0.16641749847E+03  0.19066673688E+03  0.90954066085E+02 0.  0.
         24    2    1    2    0    0 -0.21201800446E+02 -0.30157087224E+02 -0.17408913184E+02  0.72117221804E+02  0.59488294399E+02 0.  0.
        -13    1    4    4    0    0 -0.36095519036E+02 -0.24449061508E+02  0.57743086756E+01  0.43977104768E+02  0.00000000000E+00 0.  1.
         14    1    4    4    0    0  0.14893718590E+02 -0.57080257166E+01 -0.23183221860E+02  0.28140117036E+02  0.00000000000E+00 0. -1.
        -13    1    3    3    0    0  0.43290120282E+02  0.14407440017E+02  0.12795344791E+03  0.13584437300E+03  0.00000000000E+00 0.  1.
         13    1    3    3    0    0 -0.38777462440E+02  0.47240664033E+01  0.38464050555E+02  0.54822363883E+02  0.00000000000E+00 0. -1.
         -4    1    1    2    0  502  0.16689142604E+02  0.11025580804E+02 -0.33583125286E+02  0.39088581669E+02  0.00000000000E+00 0.  1.
<scales pt_clust_5="13000.00000" pt_clust_6="13000.00000" pt_clust_7="13000.00000" pt_clust_8="13000.00000" pt_clust_9="20.00227"></scales>
<clustering>
<clus scale="   20.002">  2  9  1 -1</clus>
<clus scale="   59.488">  5  6 -1 -1</clus>
<clus scale="   63.761">  2  5  1 -1</clus>
<clus scale="   90.954">  7  8 -1 -1</clus>
<clus scale="   20.002">  2  5  1 -1</clus>
</clustering>
</event>
<event>
 9    2  0.3764910E-005  0.1272599E+03  0.7546771E-02  0.1250766E+00
         21   -1    0    0  501  502  0.00000000000E+00  0.00000000000E+00  0.32414072102E+02  0.32414072102E+02  0.00000000000E+00 0. -1.
          2   -1    0    0  502    0 -0.00000000000E+00 -0.00000000000E+00 -0.99664625547E+03  0.99664625547E+03  0.00000000000E+00 0. -1.
         24    2    1    2    0    0  0.15431515142E+02  0.33653713163E+02 -0.12258113677E+03  0.14988614094E+03  0.77903890053E+02 0.  0.
         23    2    1    2    0    0  0.26419910783E+02  0.77295411069E+02 -0.26434807729E+03  0.28981863318E+03  0.86269008973E+02 0.  0.
        -11    1    3    3    0    0  0.29309022939E+02  0.38580244226E+02 -0.12580418794E+03  0.13481152686E+03  0.00000000000E+00 0.  1.
         12    1    3    3    0    0 -0.13877507797E+02 -0.49265310636E+01  0.32230511702E+01  0.15074614085E+02  0.00000000000E+00 0. -1.
        -11    1    4    4    0    0  0.54972337690E+02  0.29452734359E+02 -0.15549815849E+03  0.16753835014E+03  0.00000000000E+00 0. -1.
         11    1    4    4    0    0 -0.28552426907E+02  0.47842676710E+02 -0.10884991880E+03  0.12228028304E+03  0.00000000000E+00 0.  1.
          1    1    1    2  501    0 -0.41851425925E+02 -0.11094912423E+03 -0.57730296931E+03  0.58935555346E+03  0.00000000000E+00 0. -1.
<scales pt_clust_5="13000.00000" pt_clust_6="13000.00000" pt_clust_7="13000.00000" pt_clust_8="13000.00000" pt_clust_9="93.55612"></scales>
<clustering>
<clus scale="   77.904">  5  6 -1 -1</clus>
<clus scale="   86.254">  2  5  1 -1</clus>
<clus scale="   86.269">  7  8 -1 -1</clus>
<clus scale="   93.556">  1  9  2 -1</clus>
<clus scale="   93.556">  1  5  2 -1</clus>
</clustering>
</event>
<event>
 9    2  0.3764910E-005  0.1082827E+03  0.7546771E-02  0.1266638E+00
          2   -1    0    0  502    0 -0.00000000000E+00  0.00000000000E+00  0.58312267332E+03  0.58312267332E+03  0.00000000000E+00 0. -1.
         21   -1    0    0  501  502  0.00000000000E+00 -0.00000000000E+00 -0.13818152266E+03  0.13818152266E+03  0.00000000000E+00 0. -1.
         23    2    1    2    0    0 -0.52786200318E+02  0.28947389400E+02  0.50707164743E+03  0.51885937770E+03  0.92027517069E+02 0.  0.
         24    2    1    2    0    0  0.50621140128E+02  0.24873587392E+02  0.20221519966E+02  0.10404136463E+03  0.85055866975E+02 0.  0.
        -11    1    4    4    0    0  0.31105247018E+02  0.18632353047E+02 -0.31738440944E+02  0.48187442407E+02  0.00000000000E+00 0.  1.
         12    1    4    4    0    0  0.19515893110E+02  0.62412343449E+01  0.51959960910E+02  0.55853922224E+02  0.00000000000E+00 0. -1.
        -13    1    3    3    0    0  0.25875513131E+02  0.19506176810E+01  0.95066468438E+02  0.98544307346E+02  0.00000000000E+00 0.  1.
         13    1    3    3    0    0 -0.78661713449E+02  0.26996771719E+02  0.41200517900E+03  0.42031507035E+03  0.00000000000E+00 0. -1.
          1    1    1    2  501    0  0.21650601902E+01 -0.53820976792E+02 -0.82352016739E+02  0.98403453646E+02  0.00000000000E+00 0. -1.
<scales pt_clust_5="13000.00000" pt_clust_6="13000.00000" pt_clust_7="13000.00000" pt_clust_8="13000.00000" pt_clust_9="53.86451"></scales>
<clustering>
<clus scale="   53.865">  2  9  1 -1</clus>
<clus scale="   85.056">  5  6 -1 -1</clus>
<clus scale="   92.028">  7  8 -1 -1</clus>
<clus scale="  102.424">  2  5  1 -1</clus>
<clus scale="   53.865">  2  5  1 -1</clus>
</clustering>
</event>
<event>
 9    2  0.3764910E-005  0.1634350E+03  0.7546771E-02  0.1194306E+00
         21   -1    0    0  501  502  0.00000000000E+00  0.00000000000E+00  0.40721318818E+03  0.40721318818E+03  0.00000000000E+00 0. -1.
          2   -1    0    0  502    0 -0.00000000000E+00 -0.00000000000E+00 -0.97568302476E+02  0.97568302476E+02  0.00000000000E+00 0. -1.
         23    2    1    2    0    0 -0.89748842006E+02  0.84502058482E+01  0.16447426286E+03  0.22455939213E+03  0.12348634268E+03 0.  0.
         24    2    1    2    0    0  0.10050320584E+03 -0.83318379813E+02  0.13578141968E+03  0.20400492887E+03  0.78349028551E+02 0.  0.
        -13    1    4    4    0    0  0.37601098624E+02  0.98354014378E+01  0.45460760969E+02  0.59810187485E+02  0.00000000000E+00 0.  1.
         14    1    4    4    0    0  0.62902107215E+02 -0.93153781250E+02  0.90320658713E+02  0.14419474139E+03  0.00000000000E+00 0. -1.
        -13    1    3    3    0    0 -0.10111785941E+03 -0.35011181599E+02  0.10395347900E+03  0.14918756692E+03  0.00000000000E+00 0. -1.
         13    1    3    3    0    0  0.11369017404E+02  0.43461387447E+02  0.60520783857E+02  0.75371825202E+02  0.00000000000E+00 0.  1.
          1    1    1    2  501    0 -0.10754363833E+02  0.74868173964E+02  0.93892031622E+01  0.76217169655E+02  0.00000000000E+00 0. -1.
<scales pt_clust_5="13000.00000" pt_clust_6="13000.00000" pt_clust_7="13000.00000" pt_clust_8="13000.00000" pt_clust_9="75.63667"></scales>
<clustering>
<clus scale="   75.637">  1  9  2 -1</clus>
<clus scale="   78.349">  5  6 -1 -1</clus>
<clus scale="  123.486">  7  8 -1 -1</clus>
<clus scale="  132.668">  1  5  2 -1</clus>
<clus scale="   75.637">  1  5  2 -1</clus>
</clustering>
</event>
<event>
 9    2  0.3764910E-005  0.1245630E+03  0.7546771E-02  0.1238960E+00
         -1   -1    0    0    0  501 -0.00000000000E+00  0.00000000000E+00  0.25215831765E+03  0.25215831765E+03  0.00000000000E+00 0.  1.
         21   -1    0    0  501  502  0.00000000000E+00 -0.00000000000E+00 -0.97848693087E+02  0.97848693087E+02  0.00000000000E+00 0.  1.
         23    2    1    2    0    0  0.99923287044E+02 -0.18056558898E+02  0.14487581765E+03  0.19898074725E+03  0.91069383565E+02 0.  0.
         24    2    1    2    0    0 -0.49163565873E+02  0.27043397280E+02 -0.40100843523E+01  0.97752904573E+02  0.79944656046E+02 0.  0.
        -11    1    4    4    0    0 -0.23479182382E+02  0.23217031101E+02  0.36761703492E+02  0.49413817724E+02  0.00000000000E+00 0.  1.
         12    1    4    4    0    0 -0.25684383491E+02  0.38263661789E+01 -0.40771787844E+02  0.48339086849E+02  0.00000000000E+00 0. -1.
        -13    1    3    3    0    0  0.10357670898E+03 -0.39994937363E+02  0.10243258465E+03  0.15106344381E+03  0.00000000000E+00 0.  1.
         13    1    3    3    0    0 -0.36534219330E+01  0.21938378465E+02  0.42443233000E+02  0.47917303440E+02  0.00000000000E+00 0. -1.
         -2    1    1    2    0  502 -0.50759721171E+02 -0.89868383817E+01  0.13443891263E+02  0.53273358912E+02  0.00000000000E+00 0.  1.
<scales pt_clust_5="13000.00000" pt_clust_6="13000.00000" pt_clust_7="13000.00000" pt_clust_8="13000.00000" pt_clust_9="51.54913"></scales>
<clustering>
<clus scale="   51.549">  2  9  1 -1</clus>
<clus scale="   79.945">  5  6 -1 -1</clus>
<clus scale="   91.069">  7  8 -1 -1</clus>
<clus scale="  116.677">  2  5  1 -1</clus>
<clus scale="   51.549">  2  5  1 -1</clus>
</clustering>
</event>
<event>
 9    2  0.3764910E-005  0.1083632E+03  0.7546771E-02  0.1267210E+00
         -3   -1    0    0    0  501 -0.00000000000E+00  0.00000000000E+00  0.10547666723E+03  0.10547666723E+03  0.00000000000E+00 0.  1.
         21   -1    0    0  501  502  0.00000000000E+00 -0.00000000000E+00 -0.25485175517E+03  0.25485175517E+03  0.00000000000E+00 0. -1.
         23    2    1    2    0    0 -0.37820222517E+02 -0.49464545203E+02  0.44798467320E+02  0.11931579453E+03  0.91390621444E+02 0.  0.
         24    2    1    2    0    0  0.25971717828E+02  0.25507524130E+02 -0.19434285712E+03  0.21428521526E+03  0.82606558163E+02 0.  0.
        -11    1    4    4    0    0 -0.28811242850E+02 -0.10531223091E+01 -0.51752460917E+02  0.59241151171E+02  0.00000000000E+00 0.  1.
         12    1    4    4    0    0  0.54782960678E+02  0.26560646439E+02 -0.14259039620E+03  0.15504406409E+03  0.00000000000E+00 0. -1.
        -13    1    3    3    0    0 -0.37916418970E+02  0.18798467639E+02  0.17549315431E+02  0.45815015936E+02  0.00000000000E+00 0.  1.
         13    1    3    3    0    0  0.96196452701E-01 -0.68263012842E+02  0.27249151889E+02  0.73500778599E+02  0.00000000000E+00 0. -1.
         -4    1    1    2    0  502  0.11848504689E+02  0.23957021073E+02  0.16930185661E+00  0.26727412617E+02  0.00000000000E+00 0.  1.
<scales pt_clust_5="13000.00000" pt_clust_6="13000.00000" pt_clust_7="13000.00000" pt_clust_8="13000.00000" pt_clust_9="26.72689"></scales>
<clustering>
<clus scale="   26.727">  2  9  1 -1</clus>
<clus scale="   82.607">  5  6 -1 -1</clus>
<clus scale="   91.391">  7  8 -1 -1</clus>
<clus scale="  101.065">  2  5  1 -1</clus>
<clus scale="   26.727">  2  5  1 -1</clus>
</clustering>
</event>
<event>
 9    2  0.3764910E-005  0.1379262E+03  0.7546771E-02  0.1218667E+00
         -1   -1    0    0    0  501 -0.00000000000E+00  0.00000000000E+00  0.20644895396E+03  0.20644895396E+03  0.00000000000E+00 0.  1.
         21   -1    0    0  501  502  0.00000000000E+00 -0.00000000000E+00 -0.23851267460E+03  0.23851267460E+03  0.00000000000E+00 0.  1.
         23    2    1    2    0    0  0.15717326172E+02  0.90982961387E+02 -0.64864029691E+02  0.14518988407E+03  0.91366440694E+02 0.  0.
         24    2    1    2    0    0 -0.12199178502E+02 -0.11665310830E+03 -0.93994547472E+02  0.17035663931E+03  0.80185048293E+02 0.  0.
        -11    1    4    4    0    0 -0.42790345066E+02 -0.83862926665E+02 -0.46393629024E+02  0.10495891060E+03  0.00000000000E+00 0.  1.
         12    1    4    4    0    0  0.30591166564E+02 -0.32790181631E+02 -0.47600918448E+02  0.65397728709E+02  0.00000000000E+00 0. -1.
        -11    1    3    3    0    0  0.48839669055E+02  0.73801758194E+02 -0.28212633655E+02  0.92886842360E+02  0.00000000000E+00 0.  1.
         11    1    3    3    0    0 -0.33122342882E+02  0.17181203193E+02 -0.36651396036E+02  0.52303041714E+02  0.00000000000E+00 0. -1.
         -2    1    1    2    0  502 -0.35181476708E+01  0.25670146909E+02  0.12679485653E+03  0.12941510518E+03  0.00000000000E+00 0.  1.
<scales pt_clust_5="13000.00000" pt_clust_6="13000.00000" pt_clust_7="13000.00000" pt_clust_8="13000.00000" pt_clust_9="25.91012"></scales>
<clustering>
<clus scale="   25.910">  2  9  1 -1</clus>
<clus scale="   80.185">  5  6 -1 -1</clus>
<clus scale="   91.366">  7  8 -1 -1</clus>
<clus scale="  130.788">  2  5  1 -1</clus>
<clus scale="   25.910">  2  5  1 -1</clus>
</clustering>
</event>
<event>
 9    2  0.3764910E-005  0.1412762E+03  0.7546771E-02  0.1222662E+00
         21   -1    0    0  501  502  0.00000000000E+00  0.00000000000E+00  0.38934811544E+02  0.38934811544E+02  0.00000000000E+00 0.  1.
          2   -1    0    0  502    0 -0.00000000000E+00 -0.00000000000E+00 -0.95736566990E+03  0.95736566990E+03  0.00000000000E+00 0. -1.
         24    2    1    2    0    0  0.75987056592E+02 -0.18731272318E+02 -0.17433602736E+03  0.20716969816E+03  0.80008374996E+02 0.  0.
         23    2    1    2    0    0  0.49406150348E+02  0.66688396086E+02 -0.33877581962E+03  0.36215672898E+03  0.97468612985E+02 0.  0.
        -13    1    3    3    0    0  0.87246419127E+02 -0.29778170039E+02 -0.12462637152E+03  0.15501744914E+03  0.00000000000E+00 0.  1.
         14    1    3    3    0    0 -0.11259362535E+02  0.11046897721E+02 -0.49709655837E+02  0.52152249015E+02  0.00000000000E+00 0. -1.
        -13    1    4    4    0    0 -0.11527165549E+02  0.58703307774E+02 -0.10937414701E+03  0.12466618596E+03  0.00000000000E+00 0.  1.
         13    1    4    4    0    0  0.60933315897E+02  0.79850883116E+01 -0.22940167262E+03  0.23749054302E+03  0.00000000000E+00 0. -1.
          1    1    1    2  501    0 -0.12539320694E+03 -0.47957123768E+02 -0.40531901138E+03  0.42697405431E+03  0.00000000000E+00 0. -1.
<scales pt_clust_5="13000.00000" pt_clust_6="13000.00000" pt_clust_7="13000.00000" pt_clust_8="13000.00000" pt_clust_9="102.26852"></scales>
<clustering>
<clus scale="   80.008">  5  6 -1 -1</clus>
<clus scale="   97.469">  7  8 -1 -1</clus>
<clus scale="  111.921">  2  5  1 -1</clus>
<clus scale="  102.269">  1  9  2 -1</clus>
<clus scale="  102.269">  1  5  2 -1</clus>
</clustering>
</event>
<event>
 9    2  0.3764910E-005  0.1880598E+03  0.7546771E-02  0.1184957E+00
         21   -1    0    0  501  502  0.00000000000E+00  0.00000000000E+00  0.84705809727E+02  0.84705809727E+02  0.00000000000E+00 0.  1.
          2   -1    0    0  502    0 -0.00000000000E+00 -0.00000000000E+00 -0.82129356731E+03  0.82129356731E+03  0.00000000000E+00 0. -1.
         23    2    1    2    0    0 -0.54184108249E+02 -0.16752818658E+02 -0.17965668578E+03  0.20914257541E+03  0.90815844338E+02 0.  0.
         24    2    1    2    0    0 -0.10559197148E+03 -0.11602963227E+03 -0.12044906518E+03  0.21345622547E+03  0.80268567215E+02 0.  0.
        -13    1    4    4    0    0 -0.10385688280E+03 -0.12662713341E+03 -0.11938326455E+03  0.20266486345E+03  0.00000000000E+00 0.  1.
         14    1    4    4    0    0 -0.17350886859E+01  0.10597501148E+02 -0.10658006316E+01  0.10791362023E+02  0.00000000000E+00 0. -1.
        -11    1    3    3    0    0 -0.26872094943E+02  0.35390021777E+02 -0.50891333743E+02  0.67561016704E+02  0.00000000000E+00 0. -1.
         11    1    3    3    0    0 -0.27312013306E+02 -0.52142840435E+02 -0.12876535204E+03  0.14158155870E+03  0.00000000000E+00 0.  1.
          1    1    1    2  501    0  0.15977607973E+03  0.13278245092E+03 -0.43648200662E+03  0.48340057616E+03  0.00000000000E+00 0. -1.
<scales pt_clust_5="13000.00000" pt_clust_6="13000.00000" pt_clust_7="13000.00000" pt_clust_8="13000.00000" pt_clust_9="170.06901"></scales>
<clustering>
<clus scale="   80.269">  5  6 -1 -1</clus>
<clus scale="   90.816">  7  8 -1 -1</clus>
<clus scale="  107.071">  2  7  1 -1</clus>
<clus scale="  170.069">  1  9  2 -1</clus>
<clus scale="  170.069">  1  5  2 -1</clus>
</clustering>
</event>
<event>
 9    2  0.3764910E-005  0.1076991E+03  0.7546771E-02  0.1273353E+00
         21   -1    0    0  501  502  0.00000000000E+00  0.00000000000E+00  0.10365310668E+03  0.10365310668E+03  0.00000000000E+00 0. -1.
          2   -1    0    0  502    0 -0.00000000000E+00 -0.00000000000E+00 -0.24973972419E+03  0.24973972419E+03  0.00000000000E+00 0. -1.
         24    2    1    2    0    0 -0.20430995947E+02 -0.72616723981E+02 -0.10201925617E+03  0.14587532111E+03  0.71979625461E+02 0.  0.
         23    2    1    2    0    0 -0.44197430838E+02  0.33645043309E+02 -0.69566325659E+02  0.12785683800E+03  0.91774154992E+02 0.  0.
        -11    1    3    3    0    0 -0.29173430172E+02 -0.14003210533E+02 -0.73081689089E+02  0.79925666799E+02  0.00000000000E+00 0.  1.
         12    1    3    3    0    0  0.87424342243E+01 -0.58613513448E+02 -0.28937567085E+02  0.65949654311E+02  0.00000000000E+00 0. -1.
        -11    1    4    4    0    0 -0.63179948968E+02 -0.19752553844E+01 -0.25669783168E+02  0.68224228492E+02  0.00000000000E+00 0. -1.
         11    1    4    4    0    0  0.18982518129E+02  0.35620298693E+02 -0.43896542491E+02  0.59632609504E+02  0.00000000000E+00 0.  1.
          1    1    1    2  501    0  0.64628426786E+02  0.38971680672E+02  0.25498964323E+02  0.79660671757E+02  0.00000000000E+00 0. -1.
<scales pt_clust_5="13000.00000" pt_clust_6="13000.00000" pt_clust_7="13000.00000" pt_clust_8="13000.00000" pt_clust_9="75.46937"></scales>
<clustering>
<clus scale="   71.980">  5  6 -1 -1</clus>
<clus scale="   75.469">  1  9  2 -1</clus>
<clus scale="   91.420">  2  5  1 -1</clus>
<clus scale="   91.774">  7  8 -1 -1</clus>
<clus scale="   75.469">  1  5  2 -1</clus>
</clustering>
</event>
<event>
 9    2  0.3764910E-005  0.1337204E+03  0.7546771E-02  0.1237551E+00
          2   -1    0    0  502    0 -0.00000000000E+00  0.00000000000E+00  0.11269905664E+04  0.11269905664E+04  0.00000000000E+00 0. -1.
         21   -1    0    0  501  502  0.00000000000E+00 -0.00000000000E+00 -0.65888770511E+02  0.65888770511E+02  0.00000000000E+00 0.  1.
         23    2    1    2    0    0 -0.12621943734E+02 -0.24178714851E+02  0.47003230053E+03  0.47994837148E+03  0.93145864252E+02 0.  0.
         24    2    1    2    0    0  0.77265902429E+02 -0.72220299222E+02  0.25265806725E+02  0.13534510568E+03  0.80586260276E+02 0.  0.
        -13    1    4    4    0    0  0.51678057974E+02 -0.14388606434E+02 -0.20346237233E+02  0.57372668063E+02  0.00000000000E+00 0.  1.
         14    1    4    4    0    0  0.25587844455E+02 -0.57831692787E+02  0.45612043959E+02  0.77972437621E+02  0.00000000000E+00 0. -1.
        -13    1    3    3    0    0 -0.14159287700E+02 -0.59769307639E+02  0.30075596240E+03  0.30696417459E+03  0.00000000000E+00 0.  1.
         13    1    3    3    0    0  0.15373439664E+01  0.35590592788E+02  0.16927633813E+03  0.17298419689E+03  0.00000000000E+00 0. -1.
          1    1    1    2  501    0 -0.64643958695E+02  0.96399014073E+02  0.56580368862E+03  0.57758585974E+03  0.00000000000E+00 0. -1.
<scales pt_clust_5="13000.00000" pt_clust_6="13000.00000" pt_clust_7="13000.00000" pt_clust_8="13000.00000" pt_clust_9="106.70989"></scales>
<clustering>
<clus scale="   80.586">  5  6 -1 -1</clus>
<clus scale="   93.146">  7  8 -1 -1</clus>
<clus scale="   97.057">  1  7  2 -1</clus>
<clus scale="  106.710">  2  9  1 -1</clus>
<clus scale="  106.710">  2  5  1 -1</clus>
</clustering>
</event>
<event>
 9    2  0.3764910E-005  0.1012619E+03  0.7546771E-02  0.1283248E+00
         -1   -1    0    0    0  501 -0.00000000000E+00  0.00000000000E+00  0.21893081533E+03  0.21893081533E+03  0.00000000000E+00 0.  1.
         21   -1    0    0  501  502  0.00000000000E+00 -0.00000000000E+00 -0.24010802999E+03  0.24010802999E+03  0.00000000000E+00 0. -1.
         23    2    1    2    0    0  0.47891051427E+02  0.46962449060E+01  0.12162139886E+03  0.15980944263E+03  0.91824211246E+02 0.  0.
         24    2    1    2    0    0  0.19995252254E+02 -0.41751223632E+02 -0.18799231090E+03  0.20965210669E+03  0.80435825928E+02 0.  0.
        -13    1    4    4    0    0  0.16473805591E+02 -0.42684799009E+02 -0.37614860313E+02  0.59230533118E+02  0.00000000000E+00 0.  1.
         14    1    4    4    0    0  0.35214466629E+01  0.93357537672E+00 -0.15037745059E+03  0.15042157357E+03  0.00000000000E+00 0. -1.
        -13    1    3    3    0    0  0.28243496016E+02  0.39952337925E+02  0.10560132570E+03  0.11638524117E+03  0.00000000000E+00 0.  1.
         13    1    3    3    0    0  0.19647555411E+02 -0.35256093019E+02  0.16020073161E+02  0.43424201463E+02  0.00000000000E+00 0. -1.
         -2    1    1    2    0  502 -0.67886303681E+02  0.37054978726E+02  0.45193697388E+02  0.89577296004E+02  0.00000000000E+00 0.  1.
<scales pt_clust_5="13000.00000" pt_clust_6="13000.00000" pt_clust_7="13000.00000" pt_clust_8="13000.00000" pt_clust_9="77.34098"></scales>
<clustering>
<clus scale="   77.341">  2  9  1 -1</clus>
<clus scale="   80.436">  5  6 -1 -1</clus>
<clus scale="   91.062">  2  5  1 -1</clus>
<clus scale="   91.824">  7  8 -1 -1</clus>
<clus scale="   77.341">  2  5  1 -1</clus>
</clustering>
</event>
<event>
 9    2  0.3764910E-005  0.2133259E+03  0.7546771E-02  0.1139640E+00
         21   -1    0    0  501  502  0.00000000000E+00  0.00000000000E+00  0.11552891625E+03  0.11552891625E+03  0.00000000000E+00 0.  1.
          2   -1    0    0  502    0 -0.00000000000E+00 -0.00000000000E+00 -0.94433034318E+03  0.94433034318E+03  0.00000000000E+00 0. -1.
         23    2    1    2    0    0  0.18812319545E+03  0.60349666444E+02 -0.68345453202E+03  0.71704420404E+03  0.89497901145E+02 0.  0.
         24    2    1    2    0    0 -0.18067952340E+03  0.34938210568E+01 -0.16296312551E+02  0.19864344945E+03  0.80847716403E+02 0.  0.
        -11    1    4    4    0    0 -0.16746265992E+03  0.25160173588E+02 -0.16687418413E+01  0.16935041040E+03  0.00000000000E+00 0.  1.
         12    1    4    4    0    0 -0.13216863475E+02 -0.21666352531E+02 -0.14627570710E+02  0.29293039054E+02  0.00000000000E+00 0. -1.
        -13    1    3    3    0    0  0.19060699012E+03  0.40083164751E+02 -0.64092018000E+03  0.66986294263E+03  0.00000000000E+00 0. -1.
         13    1    3    3    0    0 -0.24837946703E+01  0.20266501693E+02 -0.42534352017E+02  0.47181261411E+02  0.00000000000E+00 0.  1.
          1    1    1    2  501    0 -0.74436720488E+01 -0.63843487500E+02 -0.12905058237E+03  0.14417160594E+03  0.00000000000E+00 0. -1.
<scales pt_clust_5="13000.00000" pt_clust_6="13000.00000" pt_clust_7="13000.00000" pt_clust_8="13000.00000" pt_clust_9="64.27599"></scales>
<clustering>
<clus scale="   64.276">  1  9  2 -1</clus>
<clus scale="   80.848">  5  6 -1 -1</clus>
<clus scale="   89.498">  7  8 -1 -1</clus>
<clus scale="  209.844">  1  5  2 -1</clus>
<clus scale="   64.276">  1  5  2 -1</clus>
</clustering>
</event>
<event>
 9    2  0.3764910E-005  0.2133466E+03  0.7546771E-02  0.1148352E+00
         21   -1    0    0  501  502  0.00000000000E+00  0.00000000000E+00  0.35317962453E+03  0.35317962453E+03  0.00000000000E+00 0. -1.
          2   -1    0    0  502    0 -0.00000000000E+00 -0.00000000000E+00 -0.51526691301E+03  0.51526691301E+03  0.00000000000E+00 0. -1.
         23    2    1    2    0    0 -0.13129332282E+03 -0.58465525550E+02 -0.34043469165E+03  0.38064561493E+03  0.91318949812E+02 0.  0.
         24    2    1    2    0    0 -0.12366389071E+03  0.11890006276E+03  0.10059747209E+03  0.21448688015E+03  0.80341692649E+02 0.  0.
        -13    1    4    4    0    0 -0.32190232271E+02  0.65623391499E+02  0.76729257559E+02  0.10597178649E+03  0.00000000000E+00 0.  1.
         14    1    4    4    0    0 -0.91473658441E+02  0.53276671257E+02  0.23868214532E+02  0.10851509367E+03  0.00000000000E+00 0. -1.
        -13    1    3    3    0    0 -0.11288238019E+03 -0.48505044591E+02 -0.33792016121E+03  0.35956252093E+03  0.00000000000E+00 0. -1.
         13    1    3    3    0    0 -0.18410942625E+02 -0.99604809587E+01 -0.25145304419E+01  0.21083094000E+02  0.00000000000E+00 0.  1.
          1    1    1    2  501    0  0.25495721353E+03 -0.60434537206E+02  0.77749931078E+02  0.27331404245E+03  0.00000000000E+00 0. -1.
<scales pt_clust_5="13000.00000" pt_clust_6="13000.00000" pt_clust_7="13000.00000" pt_clust_8="13000.00000" pt_clust_9="197.64119"></scales>
<clustering>
<clus scale="   80.342">  5  6 -1 -1</clus>
<clus scale="   91.319">  7  8 -1 -1</clus>
<clus scale="  170.280">  2  7  1 -1</clus>
<clus scale="  197.641">  1  9  2 -1</clus>
<clus scale="  197.641">  1  5  2 -1</clus>
</clustering>
</event>
<event>
 9    2  0.3764910E-005  0.1300285E+03  0.7546771E-02  0.1227817E+00
         21   -1    0    0  501  502  0.00000000000E+00  0.00000000000E+00  0.10054051723E+03  0.10054051723E+03  0.00000000000E+00 0. -1.
          2   -1    0    0  502    0 -0.00000000000E+00 -0.00000000000E+00 -0.32235066136E+03  0.32235066136E+03  0.00000000000E+00 0. -1.
         24    2    1    2    0    0  0.38370219628E+02 -0.68624812634E+02 -0.10003389819E+03  0.15622322434E+03  0.90649194004E+02 0.  0.
         23    2    1    2    0    0 -0.94543938566E+00  0.13139727075E+03 -0.55988220042E+02  0.16833657560E+03  0.89086392256E+02 0.  0.
        -13    1    3    3    0    0  0.32458708228E+02 -0.80574313271E+02 -0.41647925085E+02  0.96334507643E+02  0.00000000000E+00 0.  1.
         14    1    3    3    0    0  0.59115114004E+01  0.11949500638E+02 -0.58385973104E+02  0.59888716699E+02  0.00000000000E+00 0. -1.
        -11    1    4    4    0    0 -0.43070380871E+02  0.89573991060E+02 -0.34717116628E+02  0.10527979754E+03  0.00000000000E+00 0.  1.
         11    1    4    4    0    0  0.42124941485E+02  0.41823279693E+02 -0.21271103414E+02  0.63056778064E+02  0.00000000000E+00 0. -1.
          1    1    1    2  501    0 -0.37424780243E+02 -0.62772458119E+02 -0.65788025904E+02  0.98331378649E+02  0.00000000000E+00 0. -1.
<scales pt_clust_5="13000.00000" pt_clust_6="13000.00000" pt_clust_7="13000.00000" pt_clust_8="13000.00000" pt_clust_9="73.08215"></scales>
<clustering>
<clus scale="   73.082">  1  9  2 -1</clus>
<clus scale="   89.086">  7  8 -1 -1</clus>
<clus scale="   90.649">  5  6 -1 -1</clus>
<clus scale="  128.944">  1  7  2 -1</clus>
<clus scale="   73.082">  1  5  2 -1</clus>
</clustering>
</event>
<event>
 9    2  0.3764910E-005  0.1078223E+03  0.7546771E-02  0.1267030E+00
         21   -1    0    0  501  502  0.00000000000E+00  0.00000000000E+00  0.28435573431E+02  0.28435573431E+02  0.00000000000E+00 0. -1.
          2   -1    0    0  502    0 -0.00000000000E+00 -0.00000000000E+00 -0.11050780222E+04  0.11050780222E+04  0.00000000000E+00 0. -1.
         23    2    1    2    0    0 -0.28630551991E+02  0.40410200044E+02 -0.54271328227E+03  0.55234231054E+03  0.89953479527E+02 0.  0.
         24    2    1    2    0    0  0.59730013612E+02 -0.84891145673E+02 -0.18573867176E+03  0.22877612103E+03  0.84056399062E+02 0.  0.
        -13    1    4    4    0    0  0.47626932337E+02 -0.11759991061E+01 -0.51917411269E+02  0.70463644886E+02  0.00000000000E+00 0.  1.
         14    1    4    4    0    0  0.12103081275E+02 -0.83715146567E+02 -0.13382126050E+03  0.15831247614E+03  0.00000000000E+00 0. -1.
        -13    1    3    3    0    0  0.22246388289E+02  0.46399633631E+02 -0.27138895575E+03  0.27622417182E+03  0.00000000000E+00 0.  1.
         13    1    3    3    0    0 -0.50876940280E+02 -0.59894335872E+01 -0.27132432652E+03  0.27611813872E+03  0.00000000000E+00 0. -1.
          1    1    1    2  501    0 -0.31099461621E+02  0.44480945629E+02 -0.34819049471E+03  0.35239516405E+03  0.00000000000E+00 0. -1.
<scales pt_clust_5="13000.00000" pt_clust_6="13000.00000" pt_clust_7="13000.00000" pt_clust_8="13000.00000" pt_clust_9="54.27462"></scales>
<clustering>
<clus scale="   54.275">  1  9  2 -1</clus>
<clus scale="   84.056">  5  6 -1 -1</clus>
<clus scale="   89.953">  7  8 -1 -1</clus>
<clus scale="  102.954">  1  5  2 -1</clus>
<clus scale="   54.275">  1  5  2 -1</clus>
</clustering>
</event>
<event>
 9    2  0.3764910E-005  0.9471931E+02  0.7546771E-02  0.1296268E+00
         21   -1    0    0  501  502  0.00000000000E+00  0.00000000000E+00  0.28936851762E+02  0.28936851762E+02  0.00000000000E+00 0. -1.
         -1   -1    0    0    0  501 -0.00000000000E+00 -0.00000000000E+00 -0.84235707506E+03  0.84235707506E+03  0.00000000000E+00 0.  1.
         24    2    1    2    0    0 -0.18725953637E+02 -0.41952637176E+02 -0.58049827389E+03  0.58787490033E+03  0.80671973742E+02 0.  0.
         23    2    1    2    0    0  0.19525356164E+02 -0.22409084339E+02 -0.16593509924E+03  0.19051957366E+03  0.88768486486E+02 0.  0.
        -11    1    3    3    0    0 -0.45975953065E+02 -0.41716168373E+01 -0.27607838819E+03  0.27991153437E+03  0.00000000000E+00 0.  1.
         12    1    3    3    0    0  0.27249999428E+02 -0.37781020338E+02 -0.30441988570E+03  0.30796336596E+03  0.00000000000E+00 0. -1.
        -13    1    4    4    0    0 -0.28895745668E+02  0.12977647804E+02 -0.76909185118E+02  0.83176957240E+02  0.00000000000E+00 0.  1.
         13    1    4    4    0    0  0.48421101832E+02 -0.35386732143E+02 -0.89025914127E+02  0.10734261642E+03  0.00000000000E+00 0. -1.
         -2    1    1    2    0  502 -0.79940252668E+00  0.64361721514E+02 -0.66986850166E+02  0.92899452828E+02  0.00000000000E+00 0.  1.
<scales pt_clust_5="13000.00000" pt_clust_6="13000.00000" pt_clust_7="13000.00000" pt_clust_8="13000.00000" pt_clust_9="64.36669"></scales>
<clustering>
<clus scale="   64.367">  1  9  2 -1</clus>
<clus scale="   80.672">  5  6 -1 -1</clus>
<clus scale="   87.177">  2  5  1 -1</clus>
<clus scale="   88.768">  7  8 -1 -1</clus>
<clus scale="   64.367">  1  5  2 -1</clus>
</clustering>
</event>
<event>
 9    2  0.3764910E-005  0.9813968E+02  0.7546771E-02  0.1292241E+00
         21   -1    0    0  501  502  0.00000000000E+00  0.00000000000E+00  0.24270229395E+03  0.24270229395E+03  0.00000000000E+00 0. -1.
         -1   -1    0    0    0  501 -0.00000000000E+00 -0.00000000000E+00 -0.59267312053E+02  0.59267312053E+02  0.00000000000E+00 0.  1.
         23    2    1    2    0    0  0.27749707822E+02 -0.19942852870E+01  0.12036907901E+02  0.98604400110E+02  0.93829191147E+02 0.  0.
         24    2    1    2    0    0 -0.30333862022E+02 -0.18586495204E+02  0.12266626020E+03  0.15040261481E+03  0.79425022259E+02 0.  0.
        -11    1    4    4    0    0 -0.52680013489E+01  0.29823812803E+02  0.60933944498E+02  0.68045258765E+02  0.00000000000E+00 0.  1.
         12    1    4    4    0    0 -0.25065860674E+02 -0.48410308007E+02  0.61732315704E+02  0.82357356046E+02  0.00000000000E+00 0. -1.
        -13    1    3    3    0    0 -0.19076417753E+02  0.30864032980E+02 -0.94559289837E+01  0.37495504251E+02  0.00000000000E+00 0. -1.
         13    1    3    3    0    0  0.46826125575E+02 -0.32858318267E+02  0.21492836885E+02  0.61108895859E+02  0.00000000000E+00 0.  1.
         -2    1    1    2    0  502  0.25841542004E+01  0.20580780491E+02  0.48731813794E+02  0.52962591083E+02  0.00000000000E+00 0.  1.
<scales pt_clust_5="13000.00000" pt_clust_6="13000.00000" pt_clust_7="13000.00000" pt_clust_8="13000.00000" pt_clust_9="20.74238"></scales>
<clustering>
<clus scale="   20.742">  1  9  2 -1</clus>
<clus scale="   79.425">  5  6 -1 -1</clus>
<clus scale="   84.474">  1  5  2 -1</clus>
<clus scale="   93.829">  7  8 -1 -1</clus>
<clus scale="   20.742">  1  5  2 -1</clus>
</clustering>
</event>
<event>
 9    2  0.3764910E-005  0.9457977E+02  0.7546771E-02  0.1299149E+00
          2   -1    0    0  502    0 -0.00000000000E+00  0.00000000000E+00  0.21903976267E+03  0.21903976267E+03  0.00000000000E+00 0. -1.
         21   -1    0    0  501  502  0.00000000000E+00 -0.00000000000E+00 -0.94377666186E+02  0.94377666186E+02  0.00000000000E+00 0.  1.
         24    2    1    2    0    0 -0.13991664037E+02  0.15952010823E+02  0.16057616665E+03  0.18036643624E+03  0.79354349060E+02 0.  0.
         23    2    1    2    0    0  0.22098551918E+02 -0.39592430962E+02 -0.21678723868E+02  0.10428927884E+03  0.91380413796E+02 0.  0.
        -13    1    3    3    0    0 -0.24335166777E+02 -0.21619887499E+02  0.30608790431E+02  0.44682411855E+02  0.00000000000E+00 0.  1.
         14    1    3    3    0    0  0.10343502740E+02  0.37571898322E+02  0.12996737622E+03  0.13568402439E+03  0.00000000000E+00 0. -1.
        -13    1    4    4    0    0  0.15379160777E+02  0.21337080451E+02  0.17452141284E+02  0.31565278770E+02  0.00000000000E+00 0. -1.
         13    1    4    4    0    0  0.67193911402E+01 -0.60929511413E+02 -0.39130865152E+02  0.72724000068E+02  0.00000000000E+00 0.  1.
          1    1    1    2  501    0 -0.81068878807E+01  0.23640420139E+02 -0.14235346294E+02  0.28761713780E+02  0.00000000000E+00 0. -1.
<scales pt_clust_5="13000.00000" pt_clust_6="13000.00000" pt_clust_7="13000.00000" pt_clust_8="13000.00000" pt_clust_9="24.99182"></scales>
<clustering>
<clus scale="   24.992">  2  9  1 -1</clus>
<clus scale="   79.354">  5  6 -1 -1</clus>
<clus scale="   83.018">  1  5  2 -1</clus>
<clus scale="   91.380">  7  8 -1 -1</clus>
<clus scale="   24.992">  2  5  1 -1</clus>
</clustering>
</event>
<event>
 9    2  0.3764910E-005  0.1363158E+03  0.7546771E-02  0.1221441E+00
         -1   -1    0    0    0  501 -0.00000000000E+00  0.00000000000E+00  0.11350454595E+03  0.11350454595E+03  0.00000000000E+00 0.  1.
         21   -1    0    0  501  502  0.00000000000E+00 -0.00000000000E+00 -0.27826823213E+03  0.27826823213E+03  0.00000000000E+00 0.  1.
         24    2    1    2    0    0 -0.59364651725E+02 -0.68510190261E+02 -0.11309409413E+02  0.12164832244E+03  0.80328099483E+02 0.  0.
         23    2    1    2    0    0  0.99161683318E+02  0.78898815827E+02 -0.16440197912E+03  0.22756180240E+03  0.93264680315E+02 0.  0.
        -11    1    3    3    0    0 -0.30763839247E+02 -0.75920322984E+02 -0.29367475724E+02  0.87021594318E+02  0.00000000000E+00 0.  1.
         12    1    3    3    0    0 -0.28600812478E+02  0.74101327230E+01  0.18058066311E+02  0.34626728119E+02  0.00000000000E+00 0. -1.
        -11    1    4    4    0    0  0.77568909782E+02  0.13655308123E+02 -0.12667319414E+03  0.14916266731E+03  0.00000000000E+00 0.  1.
         11    1    4    4    0    0  0.21592773536E+02  0.65243507705E+02 -0.37728784978E+02  0.78399135088E+02  0.00000000000E+00 0. -1.
         -2    1    1    2    0  502 -0.39797031594E+02 -0.10388625566E+02  0.10947702353E+02  0.42562653249E+02  0.00000000000E+00 0.  1.
<scales pt_clust_5="13000.00000" pt_clust_6="13000.00000" pt_clust_7="13000.00000" pt_clust_8="13000.00000" pt_clust_9="41.13063"></scales>
<clustering>
<clus scale="   41.131">  2  9  1 -1</clus>
<clus scale="   80.328">  5  6 -1 -1</clus>
<clus scale="   93.265">  7  8 -1 -1</clus>
<clus scale="  127.814">  1  5  2 -1</clus>
<clus scale="   41.131">  2  5  1 -1</clus>
</clustering>
</event>
<event>
 9    2  0.3764910E-005  0.9678524E+02  0.7546771E-02  0.1289544E+00
         -1   -1    0    0    0  501 -0.00000000000E+00  0.00000000000E+00  0.33028348379E+03  0.33028348379E+03  0.00000000000E+00 0.  1.
         21   -1    0    0  501  502  0.00000000000E+00 -0.00000000000E+00 -0.17220857432E+03  0.17220857432E+03  0.00000000000E+00 0.  1.
         23    2    1    2    0    0 -0.10888707625E+02  0.51575252778E+02  0.26555177360E+03  0.28372518348E+03  0.84874405013E+02 0.  0.
         24    2    1    2    0    0  0.32645593228E+02 -0.13031919608E+02  0.14809599264E+02  0.88717154400E+02  0.80098961095E+02 0.  0.
        -11    1    4    4    0    0  0.33909426559E+02  0.28019344130E+02 -0.26980261548E+01  0.44070536645E+02  0.00000000000E+00 0.  1.
         12    1    4    4    0    0 -0.12638333313E+01 -0.41051263738E+02  0.17507625419E+02  0.44646617755E+02  0.00000000000E+00 0. -1.
        -13    1    3    3    0    0  0.13040410649E+02  0.69004265366E+02  0.18146934381E+03  0.19458356480E+03  0.00000000000E+00 0.  1.
         13    1    3    3    0    0 -0.23929118273E+02 -0.17429012588E+02  0.84082429798E+02  0.89141618685E+02  0.00000000000E+00 0. -1.
         -2    1    1    2    0  502 -0.21756885603E+02 -0.38543333170E+02 -0.12228646339E+03  0.13004972023E+03  0.00000000000E+00 0.  1.
<scales pt_clust_5="13000.00000" pt_clust_6="13000.00000" pt_clust_7="13000.00000" pt_clust_8="13000.00000" pt_clust_9="44.26003"></scales>
<clustering>
<clus scale="   44.260">  2  9  1 -1</clus>
<clus scale="   80.099">  5  6 -1 -1</clus>
<clus scale="   84.874">  7  8 -1 -1</clus>
<clus scale="   92.626">  2  5  1 -1</clus>
<clus scale="   44.260">  2  5  1 -1</clus>
</clustering>
</event>
<event>
 9    2  0.3764910E-005  0.8997326E+02  0.7546771E-02  0.1307056E+00
         21   -1    0    0  501  502  0.00000000000E+00  0.00000000000E+00  0.12052174467E+03  0.12052174467E+03  0.00000000000E+00 0. -1.
          4   -1    0    0  502    0 -0.00000000000E+00 -0.00000000000E+00 -0.11079463384E+03  0.11079463384E+03  0.00000000000E+00 0. -1.
         24    2    1    2    0    0 -0.12578763785E+02  0.68329650623E+00 -0.27877476289E+02  0.85838276937E+02  0.80202019369E+02 0.  0.
         23    2    1    2    0    0  0.36985192778E+02  0.23417718291E+02  0.40300051414E+01  0.97480338657E+02  0.87005065764E+02 0.  0.
        -13    1    3    3    0    0 -0.34717254392E+02 -0.24549806157E+02 -0.50299465181E+00  0.42523331696E+02  0.00000000000E+00 0.  1.
         14    1    3    3    0    0  0.22138490607E+02  0.25233102663E+02 -0.27374481637E+02  0.43314945242E+02  0.00000000000E+00 0. -1.
        -11    1    4    4    0    0 -0.11901013378E+02  0.42402119828E+02  0.84774401347E+01  0.44849090031E+02  0.00000000000E+00 0.  1.
         11    1    4    4    0    0  0.48886206156E+02 -0.18984401537E+02 -0.44474349933E+01  0.52631248627E+02  0.00000000000E+00 0. -1.
          3    1    1    2  501    0 -0.24406428993E+02 -0.24101014798E+02  0.33574581979E+02  0.47997762922E+02  0.00000000000E+00 0. -1.
<scales pt_clust_5="13000.00000" pt_clust_6="13000.00000" pt_clust_7="13000.00000" pt_clust_8="13000.00000" pt_clust_9="34.30062"></scales>
<clustering>
<clus scale="   34.301">  1  9  2 -1</clus>
<clus scale="   80.202">  5  6 -1 -1</clus>
<clus scale="   83.413">  2  5  1 -1</clus>
<clus scale="   87.005">  7  8 -1 -1</clus>
<clus scale="   34.301">  1  5  2 -1</clus>
</clustering>
</event>
<event>
 9    2  0.3764910E-005  0.1384842E+03  0.7546771E-02  0.1217113E+00
          2   -1    0    0  502    0 -0.00000000000E+00  0.00000000000E+00  0.42804777631E+02  0.42804777631E+02  0.00000000000E+00 0. -1.
         21   -1    0    0  501  502  0.00000000000E+00 -0.00000000000E+00 -0.78473755287E+03  0.78473755287E+03  0.00000000000E+00 0. -1.
         23    2    1    2    0    0  0.94737861037E+02 -0.61620382862E+02 -0.12744845799E+03  0.19330806831E+03  0.91392373480E+02 0.  0.
         24    2    1    2    0    0 -0.72027575798E+02  0.27830427753E+02 -0.49770402304E+03  0.51056067877E+03  0.83668439523E+02 0.  0.
        -13    1    4    4    0    0 -0.22705884673E+02  0.84007635381E+01 -0.24667891031E+02  0.34563490488E+02  0.00000000000E+00 0.  1.
         14    1    4    4    0    0 -0.49321691125E+02  0.19429664215E+02 -0.47303613200E+03  0.47599718828E+03  0.00000000000E+00 0. -1.
        -13    1    3    3    0    0  0.43252554857E+02 -0.58154163457E+02 -0.12135233324E+03  0.14134737002E+03  0.00000000000E+00 0. -1.
         13    1    3    3    0    0  0.51485306180E+02 -0.34662194047E+01 -0.60961247513E+01  0.51960698286E+02  0.00000000000E+00 0.  1.
          1    1    1    2  501    0 -0.22710285239E+02  0.33789955108E+02 -0.11678029421E+03  0.12367358343E+03  0.00000000000E+00 0. -1.
<scales pt_clust_5="13000.00000" pt_clust_6="13000.00000" pt_clust_7="13000.00000" pt_clust_8="13000.00000" pt_clust_9="40.71263"></scales>
<clustering>
<clus scale="   40.713">  2  9  1 -1</clus>
<clus scale="   83.668">  5  6 -1 -1</clus>
<clus scale="   91.392">  7  8 -1 -1</clus>
<clus scale="  133.513">  2  5  1 -1</clus>
<clus scale="   40.713">  2  5  1 -1</clus>
</clustering>
</event>
<event>
 9    2  0.3764910E-005  0.1428844E+03  0.7546771E-02  0.1211866E+00
         21   -1    0    0  501  502  0.00000000000E+00  0.00000000000E+00  0.51365325987E+02  0.51365325987E+02  0.00000000000E+00 0.  1.
         -1   -1    0    0    0  501 -0.00000000000E+00 -0.00000000000E+00 -0.85254637800E+03  0.85254637800E+03  0.00000000000E+00 0.  1.
         23    2    1    2    0    0 -0.11582599978E+03  0.26385408276E+02 -0.51245549214E+03  0.53377699788E+03  0.90528448856E+02 0.  0.
         24    2    1    2    0    0  0.72402257681E+02 -0.84960046462E+02 -0.25597152729E+03  0.29020075670E+03  0.78960496431E+02 0.  0.
        -13    1    4    4    0    0  0.63516183156E+02 -0.96613650510E+02 -0.18833295574E+03  0.22099277184E+03  0.00000000000E+00 0.  1.
         14    1    4    4    0    0  0.88860745256E+01  0.11653604048E+02 -0.67638571547E+02  0.69207984862E+02  0.00000000000E+00 0. -1.
        -13    1    3    3    0    0 -0.31348660159E+02 -0.29685565207E+02 -0.97807821938E+02  0.10691277430E+03  0.00000000000E+00 0. -1.
         13    1    3    3    0    0 -0.84477339623E+02  0.56070973483E+02 -0.41464767020E+03  0.42686422359E+03  0.00000000000E+00 0.  1.
         -2    1    1    2    0  502  0.43423742101E+02  0.58574638186E+02 -0.32754032593E+02  0.79933949407E+02  0.00000000000E+00 0.  1.
<scales pt_clust_5="13000.00000" pt_clust_6="13000.00000" pt_clust_7="13000.00000" pt_clust_8="13000.00000" pt_clust_9="72.91508"></scales>
<clustering>
<clus scale="   72.915">  1  9  2 -1</clus>
<clus scale="   78.960">  5  6 -1 -1</clus>
<clus scale="   90.528">  7  8 -1 -1</clus>
<clus scale="  135.850">  1  5  2 -1</clus>
<clus scale="   72.915">  1  5  2 -1</clus>
</clustering>
</event>
<event>
 9    2  0.3764910E-005  0.1157339E+03  0.7546771E-02  0.1250546E+00
         21   -1    0    0  501  502  0.00000000000E+00  0.00000000000E+00  0.60322643234E+02  0.60322643234E+02  0.00000000000E+00 0. -1.
          2   -1    0    0  502    0 -0.00000000000E+00 -0.00000000000E+00 -0.55385589303E+03  0.55385589303E+03  0.00000000000E+00 0. -1.
         24    2    1    2    0    0 -0.47553302456E+02 -0.52505230508E+02 -0.24164480891E+03  0.26893346766E+03  0.94418645156E+02 0.  0.
         23    2    1    2    0    0  0.55949919249E+02  0.20231268085E+02 -0.22292144523E+02  0.11323952744E+03  0.93736616084E+02 0.  0.
        -13    1    3    3    0    0 -0.54205957939E+02 -0.59925319895E+01 -0.19592822763E+03  0.20337666213E+03  0.00000000000E+00 0.  1.
         14    1    3    3    0    0  0.66526554821E+01 -0.46512698519E+02 -0.45716581272E+02  0.65556805533E+02  0.00000000000E+00 0. -1.
        -11    1    4    4    0    0 -0.69727866923E+01 -0.29799490704E+02 -0.49623822070E+01  0.31004106787E+02  0.00000000000E+00 0.  1.
         11    1    4    4    0    0  0.62922705941E+02  0.50030758789E+02 -0.17329762316E+02  0.82235420652E+02  0.00000000000E+00 0. -1.
          1    1    1    2  501    0 -0.83966167922E+01  0.32273962423E+02 -0.22959629636E+03  0.23200554116E+03  0.00000000000E+00 0. -1.
<scales pt_clust_5="13000.00000" pt_clust_6="13000.00000" pt_clust_7="13000.00000" pt_clust_8="13000.00000" pt_clust_9="33.34836"></scales>
<clustering>
<clus scale="   33.348">  1  9  2 -1</clus>
<clus scale="   93.737">  7  8 -1 -1</clus>
<clus scale="   94.419">  5  6 -1 -1</clus>
<clus scale="  115.178">  1  7  2 -1</clus>
<clus scale="   33.348">  1  5  2 -1</clus>
</clustering>
</event>
<event>
 9    2  0.3764910E-005  0.1221260E+03  0.7546771E-02  0.1252444E+00
         -3   -1    0    0    0  501 -0.00000000000E+00  0.00000000000E+00  0.43048575561E+03  0.43048575561E+03  0.00000000000E+00 0.  1.
         21   -1    0    0  501  502  0.00000000000E+00 -0.00000000000E+00 -0.68345470806E+02  0.68345470806E+02  0.00000000000E+00 0.  1.
         23    2    1    2    0    0  0.97935920598E+01 -0.78773163045E+02  0.33410521216E+03  0.35629373428E+03  0.94962132621E+02 0.  0.
         24    2    1    2    0    0 -0.29417975223E+02  0.66811520809E+02  0.55387624081E+02  0.10681132008E+03  0.54878708231E+02 0.  0.
        -13    1    4    4    0    0 -0.44794519345E+02  0.41241202307E+02  0.31287774898E+02  0.68456632908E+02  0.00000000000E+00 0.  1.
         14    1    4    4    0    0  0.15376544123E+02  0.25570318503E+02  0.24099849183E+02  0.38354687173E+02  0.00000000000E+00 0. -1.
        -13    1    3    3    0    0 -0.36046031495E+02 -0.11485864295E+02  0.15502162477E+03  0.15957113025E+03  0.00000000000E+00 0. -1.
         13    1    3    3    0    0  0.45839623555E+02 -0.67287298750E+02  0.17908358739E+03  0.19672260403E+03  0.00000000000E+00 0.  1.
         -4    1    1    2    0  502  0.19624383163E+02  0.11961642236E+02 -0.27352551438E+02  0.35726172055E+02  0.00000000000E+00 0.  1.
<scales pt_clust_5="13000.00000" pt_clust_6="13000.00000" pt_clust_7="13000.00000" pt_clust_8="13000.00000" pt_clust_9="22.98254"></scales>
<clustering>
<clus scale="   22.983">  2  9  1 -1</clus>
<clus scale="   54.879">  5  6 -1 -1</clus>
<clus scale="   94.385">  2  5  1 -1</clus>
<clus scale="   94.962">  7  8 -1 -1</clus>
<clus scale="   22.983">  2  5  1 -1</clus>
</clustering>
</event>
<event>
 9    2  0.3764910E-005  0.1399637E+03  0.7546771E-02  0.1230086E+00
         21   -1    0    0  501  502  0.00000000000E+00  0.00000000000E+00  0.11078912120E+03  0.11078912120E+03  0.00000000000E+00 0.  1.
          2   -1    0    0  502    0 -0.00000000000E+00 -0.00000000000E+00 -0.29337509543E+03  0.29337509543E+03  0.00000000000E+00 0. -1.
         23    2    1    2    0    0 -0.39406080579E+02  0.32900140833E+02 -0.48587668364E+02  0.10996548981E+03  0.84240067542E+02 0.  0.
         24    2    1    2    0    0  0.32261450661E+02 -0.13445168016E+03 -0.84019598013E+02  0.18078959087E+03  0.80669249534E+02 0.  0.
        -11    1    4    4    0    0  0.53641173748E+02 -0.12447492980E+03 -0.78228548436E+02  0.15649629216E+03  0.00000000000E+00 0.  1.
         12    1    4    4    0    0 -0.21379723086E+02 -0.99767503587E+01 -0.57910495777E+01  0.24293298709E+02  0.00000000000E+00 0. -1.
        -11    1    3    3    0    0  0.12848558344E+02  0.20667554497E+02  0.13555150554E+02  0.27856334414E+02  0.00000000000E+00 0.  1.
         11    1    3    3    0    0 -0.52254638923E+02  0.12232586336E+02 -0.62142818918E+02  0.82109155400E+02  0.00000000000E+00 0. -1.
          1    1    1    2  501    0  0.71446299177E+01  0.10155153933E+03 -0.49978707856E+02  0.11340913594E+03  0.00000000000E+00 0. -1.
<scales pt_clust_5="13000.00000" pt_clust_6="13000.00000" pt_clust_7="13000.00000" pt_clust_8="13000.00000" pt_clust_9="114.37787"></scales>
<clustering>
<clus scale="   80.669">  5  6 -1 -1</clus>
<clus scale="   84.240">  7  8 -1 -1</clus>
<clus scale="   98.649">  2  7  1 -1</clus>
<clus scale="  114.378">  1  9  2 -1</clus>
<clus scale="  114.378">  1  5  2 -1</clus>
</clustering>
</event>
<event>
 9    2  0.3764910E-005  0.1238700E+03  0.7546771E-02  0.1240180E+00
          2   -1    0    0  502    0 -0.00000000000E+00  0.00000000000E+00  0.14665988085E+03  0.14665988085E+03  0.00000000000E+00 0. -1.
         21   -1    0    0  501  502  0.00000000000E+00 -0.00000000000E+00 -0.16289701293E+03  0.16289701293E+03  0.00000000000E+00 0. -1.
         23    2    1    2    0    0 -0.33550412702E+02  0.78567181070E+02  0.69637765883E+02  0.14267298647E+03  0.90596525864E+02 0.  0.
         24    2    1    2    0    0  0.54667052049E+02 -0.64365073263E+02 -0.80244296336E+02  0.14082021613E+03  0.79119131310E+02 0.  0.
        -13    1    4    4    0    0 -0.73667407601E+00 -0.60048400173E+02 -0.38813216792E+02  0.71503977860E+02  0.00000000000E+00 0.  1.
         14    1    4    4    0    0  0.55403726125E+02 -0.43166730902E+01 -0.41431079545E+02  0.69316238266E+02  0.00000000000E+00 0. -1.
        -11    1    3    3    0    0  0.17101455350E+02  0.34914656629E+02 -0.85347104866E+01  0.39803697136E+02  0.00000000000E+00 0.  1.
         11    1    3    3    0    0 -0.50651868053E+02  0.43652524441E+02  0.78172476369E+02  0.10286928934E+03  0.00000000000E+00 0. -1.
          1    1    1    2  501    0 -0.21116639347E+02 -0.14202107807E+02 -0.56306016288E+01  0.26063691184E+02  0.00000000000E+00 0. -1.
<scales pt_clust_5="13000.00000" pt_clust_6="13000.00000" pt_clust_7="13000.00000" pt_clust_8="13000.00000" pt_clust_9="25.44823"></scales>
<clustering>
<clus scale="   25.448">  2  9  1 -1</clus>
<clus scale="   79.119">  5  6 -1 -1</clus>
<clus scale="   90.597">  7  8 -1 -1</clus>
<clus scale="  115.741">  2  5  1 -1</clus>
<clus scale="   25.448">  2  5  1 -1</clus>
</clustering>
</event>
<event>
 9    2  0.3764910E-005  0.9484991E+02  0.7546771E-02  0.1299307E+00
         -1   -1    0    0    0  501 -0.00000000000E+00  0.00000000000E+00  0.45482713019E+03  0.45482713019E+03  0.00000000000E+00 0.  1.
         21   -1    0    0  501  502  0.00000000000E+00 -0.00000000000E+00 -0.28533097166E+02  0.28533097166E+02  0.00000000000E+00 0.  1.
         24    2    1    2    0    0 -0.41911844238E+01 -0.27161994357E+02  0.21597070480E+03  0.23200444689E+03  0.80170930381E+02 0.  0.
         23    2    1    2    0    0  0.75374717022E+01  0.33527338163E+01  0.20689148144E+03  0.22706882721E+03  0.93210047193E+02 0.  0.
        -13    1    3    3    0    0 -0.33731113206E+02 -0.34309036973E+02  0.86161712439E+02  0.98685048039E+02  0.00000000000E+00 0.  1.
         14    1    3    3    0    0  0.29539928782E+02  0.71470426159E+01  0.12980899237E+03  0.13331939885E+03  0.00000000000E+00 0. -1.
        -13    1    4    4    0    0 -0.24029464129E+02  0.21055751145E+02  0.22298469428E+02  0.38961282594E+02  0.00000000000E+00 0.  1.
         13    1    4    4    0    0  0.31566935831E+02 -0.17703017328E+02  0.18459301201E+03  0.18810754462E+03  0.00000000000E+00 0. -1.
         -2    1    1    2    0  502 -0.33462872784E+01  0.23809260541E+02  0.34318467839E+01  0.24286953255E+02  0.00000000000E+00 0.  1.
<scales pt_clust_5="13000.00000" pt_clust_6="13000.00000" pt_clust_7="13000.00000" pt_clust_8="13000.00000" pt_clust_9="24.04326"></scales>
<clustering>
<clus scale="   24.043">  2  9  1 -1</clus>
<clus scale="   80.171">  5  6 -1 -1</clus>
<clus scale="   82.072">  1  5  2 -1</clus>
<clus scale="   93.210">  7  8 -1 -1</clus>
<clus scale="   24.043">  2  5  1 -1</clus>
</clustering>
</event>
<event>
 9    2  0.3764910E-005  0.1028882E+03  0.7546771E-02  0.1280943E+00
          2   -1    0    0  502    0 -0.00000000000E+00  0.00000000000E+00  0.11922741920E+03  0.11922741920E+03  0.00000000000E+00 0. -1.
         21   -1    0    0  501  502  0.00000000000E+00 -0.00000000000E+00 -0.29561442458E+03  0.29561442458E+03  0.00000000000E+00 0.  1.
         23    2    1    2    0    0  0.52847709493E+01 -0.44657802476E+02  0.63382874056E+02  0.11996683449E+03  0.91391490454E+02 0.  0.
         24    2    1    2    0    0 -0.34591957234E+02  0.48835103050E+02 -0.64649460919E+02  0.11727004881E+03  0.77403105600E+02 0.  0.
        -11    1    4    4    0    0  0.21076856243E+02  0.33513212824E+02 -0.20476971054E+02  0.44572139801E+02  0.00000000000E+00 0.  1.
         12    1    4    4    0    0 -0.55668813477E+02  0.15321890226E+02 -0.44172489865E+02  0.72697909013E+02  0.00000000000E+00 0. -1.
        -13    1    3    3    0    0  0.85046374591E+00  0.20905008804E+02  0.48168189095E+02  0.52515874956E+02  0.00000000000E+00 0. -1.
         13    1    3    3    0    0  0.44343072034E+01 -0.65562811280E+02  0.15214684961E+02  0.67450959532E+02  0.00000000000E+00 0.  1.
          1    1    1    2  501    0  0.29307186285E+02 -0.41773005740E+01 -0.17512041851E+03  0.17760496048E+03  0.00000000000E+00 0. -1.
<scales pt_clust_5="13000.00000" pt_clust_6="13000.00000" pt_clust_7="13000.00000" pt_clust_8="13000.00000" pt_clust_9="29.60340"></scales>
<clustering>
<clus scale="   29.603">  2  9  1 -1</clus>
<clus scale="   77.403">  5  6 -1 -1</clus>
<clus scale="   90.691">  2  5  1 -1</clus>
<clus scale="   91.391">  7  8 -1 -1</clus>
<clus scale="   29.603">  2  5  1 -1</clus>
</clustering>
</event>
<event>
 9    2  0.3764910E-005  0.1066312E+03  0.7546771E-02  0.1272180E+00
         21   -1    0    0  501  502  0.00000000000E+00  0.00000000000E+00  0.45824647578E+02  0.45824647578E+02  0.00000000000E+00 0.  1.
          4   -1    0    0  502    0 -0.00000000000E+00 -0.00000000000E+00 -0.53199846014E+03  0.53199846014E+03  0.00000000000E+00 0. -1.
         24    2    1    2    0    0  0.37096329980E+02 -0.51099417679E+02 -0.41649487471E+03  0.42837447374E+03  0.77778023304E+02 0.  0.
         23    2    1    2    0    0 -0.18977040968E+02  0.17687585898E+02 -0.44664256987E+02  0.10394705822E+03  0.90205965892E+02 0.  0.
        -13    1    3    3    0    0  0.54228866576E+02 -0.10620837689E+02 -0.26105001930E+03  0.26683456436E+03  0.00000000000E+00 0.  1.
         14    1    3    3    0    0 -0.17132536595E+02 -0.40478579990E+02 -0.15544485541E+03  0.16153990938E+03  0.00000000000E+00 0. -1.
        -11    1    4    4    0    0 -0.49912334958E+02 -0.10020888751E+02 -0.15556981741E+02  0.53232312304E+02  0.00000000000E+00 0.  1.
         11    1    4    4    0    0  0.30935293989E+02  0.27708474649E+02 -0.29107275246E+02  0.50714745921E+02  0.00000000000E+00 0. -1.
          3    1    1    2  501    0 -0.18119289012E+02  0.33411831781E+02 -0.25014680871E+02  0.45501575757E+02  0.00000000000E+00 0. -1.
<scales pt_clust_5="13000.00000" pt_clust_6="13000.00000" pt_clust_7="13000.00000" pt_clust_8="13000.00000" pt_clust_9="38.00867"></scales>
<clustering>
<clus scale="   38.009">  1  9  2 -1</clus>
<clus scale="   77.778">  5  6 -1 -1</clus>
<clus scale="   90.206">  7  8 -1 -1</clus>
<clus scale="   96.346">  2  5  1 -1</clus>
<clus scale="   38.009">  1  5  2 -1</clus>
</clustering>
</event>
<event>
 9    2  0.3764910E-005  0.9373578E+02  0.7546771E-02  0.1300284E+00
         21   -1    0    0  501  502  0.00000000000E+00  0.00000000000E+00  0.18910121048E+03  0.18910121048E+03  0.00000000000E+00 0. -1.
          2   -1    0    0  502    0 -0.00000000000E+00 -0.00000000000E+00 -0.17564765555E+03  0.17564765555E+03  0.00000000000E+00 0. -1.
         23    2    1    2    0    0 -0.28365060970E+02  0.38679855199E+01 -0.11504759022E+03  0.14946147408E+03  0.91012341051E+02 0.  0.
         24    2    1    2    0    0 -0.13731761953E+02  0.56009886446E+02  0.65281784965E+02  0.11857033268E+03  0.80445905291E+02 0.  0.
        -13    1    4    4    0    0  0.33418127098E+02  0.20104386214E+02  0.32976496887E+02  0.51072565147E+02  0.00000000000E+00 0.  1.
         14    1    4    4    0    0 -0.47149889051E+02  0.35905500233E+02  0.32305288078E+02  0.67497767535E+02  0.00000000000E+00 0. -1.
        -11    1    3    3    0    0  0.23193370146E+02 -0.24462784550E+02 -0.60381271065E+02  0.69153872936E+02  0.00000000000E+00 0.  1.
         11    1    3    3    0    0 -0.51558431116E+02  0.28330770070E+02 -0.54666319156E+02  0.80307601147E+02  0.00000000000E+00 0. -1.
          1    1    1    2  501    0  0.42096822924E+02 -0.59877871966E+02  0.63219360178E+02  0.96717059265E+02  0.00000000000E+00 0. -1.
<scales pt_clust_5="13000.00000" pt_clust_6="13000.00000" pt_clust_7="13000.00000" pt_clust_8="13000.00000" pt_clust_9="73.19496"></scales>
<clustering>
<clus scale="   73.195">  1  9  2 -1</clus>
<clus scale="   80.446">  5  6 -1 -1</clus>
<clus scale="   83.515">  1  5  2 -1</clus>
<clus scale="   91.012">  7  8 -1 -1</clus>
<clus scale="   73.195">  1  5  2 -1</clus>
</clustering>
</event>
<event>
 9    2  0.3764910E-005  0.1100181E+03  0.7546771E-02  0.1265034E+00
          2   -1    0    0  502    0 -0.00000000000E+00  0.00000000000E+00  0.26708008182E+03  0.26708008182E+03  0.00000000000E+00 0. -1.
         21   -1    0    0  501  502  0.00000000000E+00 -0.00000000000E+00 -0.10402784015E+03  0.10402784015E+03  0.00000000000E+00 0.  1.
         23    2    1    2    0    0 -0.49113330899E+02  0.45031300164E+02  0.16270359185E+03  0.19798490147E+03  0.91025409331E+02 0.  0.
         24    2    1    2    0    0  0.81986308806E+01 -0.62198017704E+02  0.44371003866E+02  0.11061960839E+03  0.79574498565E+02 0.  0.
        -11    1    4    4    0    0 -0.24709593175E+02 -0.16249623781E+02 -0.10947607260E+02  0.31535129184E+02  0.00000000000E+00 0.  1.
         12    1    4    4    0    0  0.32908224056E+02 -0.45948393922E+02  0.55318611127E+02  0.79084479208E+02  0.00000000000E+00 0. -1.
        -13    1    3    3    0    0 -0.65234086031E+02  0.27156756146E+02  0.60616507913E+02  0.93098530688E+02  0.00000000000E+00 0. -1.
         13    1    3    3    0    0  0.16120755132E+02  0.17874544018E+02  0.10208708393E+03  0.10488637078E+03  0.00000000000E+00 0.  1.
          1    1    1    2  501    0  0.40914700019E+02  0.17166717540E+02 -0.44022354046E+02  0.62503412103E+02  0.00000000000E+00 0. -1.
<scales pt_clust_5="13000.00000" pt_clust_6="13000.00000" pt_clust_7="13000.00000" pt_clust_8="13000.00000" pt_clust_9="44.37013"></scales>
<clustering>
<clus scale="   44.370">  2  9  1 -1</clus>
<clus scale="   79.574">  5  6 -1 -1</clus>
<clus scale="   91.025">  7  8 -1 -1</clus>
<clus scale="  100.750">  2  5  1 -1</clus>
<clus scale="   44.370">  2  5  1 -1</clus>
</clustering>
</event>
<event>
 9    2  0.3764910E-005  0.9090337E+02  0.7546771E-02  0.1307122E+00
         -1   -1    0    0    0  501 -0.00000000000E+00  0.00000000000E+00  0.18622507685E+03  0.18622507685E+03  0.00000000000E+00 0.  1.
         21   -1    0    0  501  502  0.00000000000E+00 -0.00000000000E+00 -0.15755653885E+03  0.15755653885E+03  0.00000000000E+00 0.  1.
         23    2    1    2    0    0 -0.67593413770E+01  0.87954825953E+01  0.11143242617E+03  0.14421096034E+03  0.90865649565E+02 0.  0.
         24    2    1    2    0    0 -0.11843343994E+02  0.85259283456E+01  0.27409202097E+02  0.86503414302E+02  0.80737971706E+02 0.  0.
        -13    1    4    4    0    0 -0.26157795739E+02  0.31312379500E+02 -0.84537804562E+01  0.41667274832E+02  0.00000000000E+00 0.  1.
         14    1    4    4    0    0  0.14314451745E+02 -0.22786451155E+02  0.35862982553E+02  0.44836139470E+02  0.00000000000E+00 0. -1.
        -13    1    3    3    0    0  0.12082361482E+02  0.46559357669E+02  0.71039371781E+02  0.85792479790E+02  0.00000000000E+00 0.  1.
         13    1    3    3    0    0 -0.18841702859E+02 -0.37763875074E+02  0.40393054390E+02  0.58418480553E+02  0.00000000000E+00 0. -1.
         -2    1    1    2    0  502  0.18602685371E+02 -0.17321410941E+02 -0.11017309026E+03  0.11306724105E+03  0.00000000000E+00 0.  1.
<scales pt_clust_5="13000.00000" pt_clust_6="13000.00000" pt_clust_7="13000.00000" pt_clust_8="13000.00000" pt_clust_9="25.41832"></scales>
<clustering>
<clus scale="   25.418">  2  9  1 -1</clus>
<clus scale="   80.738">  5  6 -1 -1</clus>
<clus scale="   80.780">  2  5  1 -1</clus>
<clus scale="   90.866">  7  8 -1 -1</clus>
<clus scale="   25.418">  2  5  1 -1</clus>
</clustering>
</event>
<event>
 9    2  0.3764910E-005  0.1046600E+03  0.7546771E-02  0.1275560E+00
         21   -1    0    0  501  502  0.00000000000E+00  0.00000000000E+00  0.13994033610E+03  0.13994033610E+03  0.00000000000E+00 0. -1.
          2   -1    0    0  502    0 -0.00000000000E+00 -0.00000000000E+00 -0.21000530107E+03  0.21000530107E+03  0.00000000000E+00 0. -1.
         24    2    1    2    0    0  0.14274076066E+02  0.44898317114E+02 -0.11168879409E+03  0.14546127561E+03  0.80405148169E+02 0.  0.
         23    2    1    2    0    0 -0.33485704242E+02 -0.53008190441E+02 -0.41994081049E+02  0.11830541051E+03  0.91112604339E+02 0.  0.
        -13    1    3    3    0    0 -0.35746614368E+00 -0.23360294588E+02 -0.29289982351E+02  0.37466441136E+02  0.00000000000E+00 0.  1.
         14    1    3    3    0    0  0.14631542209E+02  0.68258611701E+02 -0.82398811734E+02  0.10799483448E+03  0.00000000000E+00 0. -1.
        -13    1    4    4    0    0  0.13001746827E+02 -0.61646709832E+02 -0.19555119766E+02  0.65967908583E+02  0.00000000000E+00 0.  1.
         13    1    4    4    0    0 -0.46487451069E+02  0.86385193915E+01 -0.22438961283E+02  0.52337501923E+02  0.00000000000E+00 0. -1.
          1    1    1    2  501    0  0.19211628176E+02  0.81098733271E+01  0.83617910171E+02  0.86178951049E+02  0.00000000000E+00 0. -1.
<scales pt_clust_5="13000.00000" pt_clust_6="13000.00000" pt_clust_7="13000.00000" pt_clust_8="13000.00000" pt_clust_9="20.85322"></scales>
<clustering>
<clus scale="   20.853">  1  9  2 -1</clus>
<clus scale="   80.405">  5  6 -1 -1</clus>
<clus scale="   91.113">  7  8 -1 -1</clus>
<clus scale="   95.484">  2  5  1 -1</clus>
<clus scale="   20.853">  1  5  2 -1</clus>
</clustering>
</event>
<event>
 9    2  0.3764910E-005  0.9002702E+02  0.7546771E-02  0.1307247E+00
         21   -1    0    0  501  502  0.00000000000E+00  0.00000000000E+00  0.16017027628E+03  0.16017027628E+03  0.00000000000E+00 0.  1.
         -3   -1    0    0    0  501 -0.00000000000E+00 -0.00000000000E+00 -0.70789379250E+02  0.70789379250E+02  0.00000000000E+00 0.  1.
         23    2    1    2    0    0 -0.37717899021E+01  0.17439208496E+02  0.27123613014E+01  0.90411138971E+02  0.88591561416E+02 0.  0.
         24    2    1    2    0    0 -0.21141185185E+02 -0.11105479263E+02  0.64000161182E+02  0.10627567515E+03  0.81413863173E+02 0.  0.
        -13    1    4    4    0    0 -0.34343691407E+02  0.22687372742E+02  0.55352391511E+02  0.68978933505E+02  0.00000000000E+00 0.  1.
         14    1    4    4    0    0  0.13202506222E+02 -0.33792852005E+02  0.86477696710E+01  0.37296741647E+02  0.00000000000E+00 0. -1.
        -11    1    3    3    0    0  0.38007787202E+02  0.21299046479E+02  0.15978419444E+02  0.46406369787E+02  0.00000000000E+00 0. -1.
         11    1    3    3    0    0 -0.41779577104E+02 -0.38598379829E+01 -0.13266058143E+02  0.44004769184E+02  0.00000000000E+00 0.  1.
         -4    1    1    2    0  502  0.24912975088E+02 -0.63337292334E+01  0.22668374550E+02  0.34272841412E+02  0.00000000000E+00 0.  1.
<scales pt_clust_5="13000.00000" pt_clust_6="13000.00000" pt_clust_7="13000.00000" pt_clust_8="13000.00000" pt_clust_9="25.70549"></scales>
<clustering>
<clus scale="   25.705">  1  9  2 -1</clus>
<clus scale="   81.414">  5  6 -1 -1</clus>
<clus scale="   82.974">  1  5  2 -1</clus>
<clus scale="   88.592">  7  8 -1 -1</clus>
<clus scale="   25.705">  1  5  2 -1</clus>
</clustering>
</event>
<event>
 9    2  0.3764910E-005  0.1953718E+03  0.7546771E-02  0.1154644E+00
         21   -1    0    0  501  502  0.00000000000E+00  0.00000000000E+00  0.43376193406E+02  0.43376193406E+02  0.00000000000E+00 0.  1.
          2   -1    0    0  502    0 -0.00000000000E+00 -0.00000000000E+00 -0.10881746802E+04  0.10881746802E+04  0.00000000000E+00 0. -1.
         24    2    1    2    0    0 -0.26312112287E-01 -0.18264189887E+03 -0.59805774720E+03  0.63071224833E+03  0.82260605985E+02 0.  0.
         23    2    1    2    0    0  0.32614847573E+02  0.15755520944E+03 -0.37015414725E+03  0.41390841904E+03  0.91753552097E+02 0.  0.
        -11    1    3    3    0    0 -0.21734023166E+02 -0.31089638695E+02 -0.57447399045E+02  0.68841390559E+02  0.00000000000E+00 0.  1.
         12    1    3    3    0    0  0.21707711053E+02 -0.15155226017E+03 -0.54061034815E+03  0.56187085777E+03  0.00000000000E+00 0. -1.
        -13    1    4    4    0    0  0.46283940623E+02  0.99699396826E+02 -0.15059337748E+03  0.18644178241E+03  0.00000000000E+00 0.  1.
         13    1    4    4    0    0 -0.13669093050E+02  0.57855812610E+02 -0.21956076977E+03  0.22746663663E+03  0.00000000000E+00 0. -1.
          1    1    1    2  501    0 -0.32588535460E+02  0.25086689430E+02 -0.76586592386E+02  0.86930206277E+02  0.00000000000E+00 0. -1.
<scales pt_clust_5="13000.00000" pt_clust_6="13000.00000" pt_clust_7="13000.00000" pt_clust_8="13000.00000" pt_clust_9="41.12608"></scales>
<clustering>
<clus scale="   41.126">  1  9  2 -1</clus>
<clus scale="   82.261">  5  6 -1 -1</clus>
<clus scale="   91.754">  7  8 -1 -1</clus>
<clus scale="  191.097">  2  5  1 -1</clus>
<clus scale="   41.126">  1  5  2 -1</clus>
</clustering>
</event>
<event>
 9    2  0.3764910E-005  0.9860928E+02  0.7546771E-02  0.1294420E+00
         21   -1    0    0  501  502  0.00000000000E+00  0.00000000000E+00  0.16565617195E+03  0.16565617195E+03  0.00000000000E+00 0.  1.
         -1   -1    0    0    0  501 -0.00000000000E+00 -0.00000000000E+00 -0.25005195947E+03  0.25005195947E+03  0.00000000000E+00 0.  1.
         23    2    1    2    0    0 -0.79564226740E+01 -0.80568491608E+01 -0.18826678840E+03  0.21260235067E+03  0.98118084042E+02 0.  0.
         24    2    1    2    0    0 -0.16546106001E+02  0.14405094320E+02 -0.13154186924E+02  0.83374545430E+02  0.79353650363E+02 0.  0.
        -11    1    4    4    0    0 -0.45568075834E+02  0.11180359044E+02 -0.23396934979E+02  0.52429634083E+02  0.00000000000E+00 0.  1.
         12    1    4    4    0    0  0.29021969833E+02  0.32247352763E+01  0.10242748055E+02  0.30944911348E+02  0.00000000000E+00 0. -1.
        -13    1    3    3    0    0  0.21643992430E+02  0.36541963391E+02 -0.59047374740E+02  0.72734929439E+02  0.00000000000E+00 0.  1.
         13    1    3    3    0    0 -0.29600415104E+02 -0.44598812552E+02 -0.12921941366E+03  0.13986742123E+03  0.00000000000E+00 0. -1.
         -2    1    1    2    0  502  0.24502528675E+02 -0.63482451595E+01  0.11702518781E+03  0.11973123532E+03  0.00000000000E+00 0.  1.
<scales pt_clust_5="13000.00000" pt_clust_6="13000.00000" pt_clust_7="13000.00000" pt_clust_8="13000.00000" pt_clust_9="25.31154"></scales>
<clustering>
<clus scale="   25.312">  1  9  2 -1</clus>
<clus scale="   79.354">  5  6 -1 -1</clus>
<clus scale="   79.960">  1  5  2 -1</clus>
<clus scale="   98.118">  7  8 -1 -1</clus>
<clus scale="   25.312">  1  5  2 -1</clus>
</clustering>
</event>
<event>
 9    2  0.3764910E-005  0.9057725E+02  0.7546771E-02  0.1308900E+00
          4   -1    0    0  502    0 -0.00000000000E+00  0.00000000000E+00  0.23284964119E+03  0.23284964119E+03  0.00000000000E+00 0. -1.
         21   -1    0    0  501  502  0.00000000000E+00 -0.00000000000E+00 -0.11145453361E+03  0.11145453361E+03  0.00000000000E+00 0.  1.
         24    2    1    2    0    0 -0.43973038594E+01 -0.76715975807E+01  0.18839643873E+03  0.20433287273E+03  0.78616251878E+02 0.  0.
         23    2    1    2    0    0  0.17494415849E+02 -0.80568326948E+01 -0.28778099419E+02  0.96613104403E+02  0.90193934370E+02 0.  0.
        -11    1    3    3    0    0  0.14703713653E+01  0.27847688238E+02  0.26456625358E+02  0.38439676865E+02  0.00000000000E+00 0.  1.
         12    1    3    3    0    0 -0.58676752247E+01 -0.35519285819E+02  0.16193981337E+03  0.16589319586E+03  0.00000000000E+00 0. -1.
        -13    1    4    4    0    0  0.47501422051E+02  0.13151623765E+02 -0.33456915640E+02  0.59571096252E+02  0.00000000000E+00 0.  1.
         13    1    4    4    0    0 -0.30007006202E+02 -0.21208456460E+02  0.46788162209E+01  0.37042008151E+02  0.00000000000E+00 0. -1.
          3    1    1    2  501    0 -0.13097111989E+02  0.15728430276E+02 -0.38223231736E+02  0.43358197676E+02  0.00000000000E+00 0. -1.
<scales pt_clust_5="13000.00000" pt_clust_6="13000.00000" pt_clust_7="13000.00000" pt_clust_8="13000.00000" pt_clust_9="20.46748"></scales>
<clustering>
<clus scale="   20.467">  2  9  1 -1</clus>
<clus scale="   78.616">  5  6 -1 -1</clus>
<clus scale="   79.056">  1  5  2 -1</clus>
<clus scale="   90.194">  7  8 -1 -1</clus>
<clus scale="   20.467">  2  5  1 -1</clus>
</clustering>
</event>
<event>
 9    2  0.3764910E-005  0.1137451E+03  0.7546771E-02  0.1274884E+00
         21   -1    0    0  501  502  0.00000000000E+00  0.00000000000E+00  0.31898205387E+02  0.31898205387E+02  0.00000000000E+00 0. -1.
          2   -1    0    0  502    0 -0.00000000000E+00 -0.00000000000E+00 -0.60780795231E+03  0.60780795231E+03  0.00000000000E+00 0. -1.
         24    2    1    2    0    0  0.25305514626E+02 -0.19709175162E+02 -0.10838070230E+03  0.13200232273E+03  0.68186625652E+02 0.  0.
         23    2    1    2    0    0  0.23704921124E+01 -0.59027174329E+02 -0.19830926434E+03  0.22584453643E+03  0.90495103563E+02 0.  0.
        -13    1    3    3    0    0  0.33583252338E+02  0.78081950656E+01 -0.21836323236E+02  0.40812103110E+02  0.00000000000E+00 0.  1.
         14    1    3    3    0    0 -0.82777377125E+01 -0.27517370228E+02 -0.86544379066E+02  0.91190219617E+02  0.00000000000E+00 0. -1.
        -13    1    4    4    0    0 -0.17297897776E+02  0.13396812757E+02 -0.98883310211E+02  0.10127487792E+03  0.00000000000E+00 0.  1.
         13    1    4    4    0    0  0.19668389888E+02 -0.72423987085E+02 -0.99425954133E+02  0.12456965851E+03  0.00000000000E+00 0. -1.
          1    1    1    2  501    0 -0.27676006738E+02  0.78736349491E+02 -0.26921978027E+03  0.28185929854E+03  0.00000000000E+00 0. -1.
<scales pt_clust_5="13000.00000" pt_clust_6="13000.00000" pt_clust_7="13000.00000" pt_clust_8="13000.00000" pt_clust_9="68.91000"></scales>
<clustering>
<clus scale="   68.187">  5  6 -1 -1</clus>
<clus scale="   75.354">  2  5  1 -1</clus>
<clus scale="   68.910">  1  9  2 -1</clus>
<clus scale="   90.495">  7  8 -1 -1</clus>
<clus scale="   68.910">  1  5  2 -1</clus>
</clustering>
</event>
<event>
 9    2  0.3764910E-005  0.2793615E+03  0.7546771E-02  0.1096934E+00
         21   -1    0    0  501  502  0.00000000000E+00  0.00000000000E+00  0.92710423796E+02  0.92710423796E+02  0.00000000000E+00 0. -1.
          2   -1    0    0  502    0 -0.00000000000E+00 -0.00000000000E+00 -0.11075388848E+04  0.11075388848E+04  0.00000000000E+00 0. -1.
         24    2    1    2    0    0 -0.20079082198E+03  0.20037640012E+03 -0.58808923092E+03  0.65683189527E+03  0.71495029187E+02 0.  0.
         23    2    1    2    0    0  0.15327409364E+03 -0.17337178287E+03 -0.23028987077E+03  0.33950704184E+03  0.93171261682E+02 0.  0.
        -11    1    3    3    0    0 -0.58533603551E+02  0.18537062054E+02 -0.11242304977E+03  0.12809663358E+03  0.00000000000E+00 0.  1.
         12    1    3    3    0    0 -0.14225721843E+03  0.18183933807E+03 -0.47566618115E+03  0.52873526169E+03  0.00000000000E+00 0. -1.
        -13    1    4    4    0    0 -0.35985674498E+01 -0.47153624640E+02 -0.55131164399E+02  0.72635110603E+02  0.00000000000E+00 0.  1.
         13    1    4    4    0    0  0.15687266109E+03 -0.12621815823E+03 -0.17515870637E+03  0.26687193124E+03  0.00000000000E+00 0. -1.
          1    1    1    2  501    0  0.47516728340E+02 -0.27004617256E+02 -0.19644935936E+03  0.20391037153E+03  0.00000000000E+00 0. -1.
<scales pt_clust_5="13000.00000" pt_clust_6="13000.00000" pt_clust_7="13000.00000" pt_clust_8="13000.00000" pt_clust_9="54.65429"></scales>
<clustering>
<clus scale="   54.654">  1  9  2 -1</clus>
<clus scale="   71.495">  5  6 -1 -1</clus>
<clus scale="   93.171">  7  8 -1 -1</clus>
<clus scale="  272.898">  2  5  1 -1</clus>
<clus scale="   54.654">  1  5  2 -1</clus>
</clustering>
</event>
<event>
 9    2  0.3764910E-005  0.1043236E+03  0.7546771E-02  0.1277350E+00
         21   -1    0    0  501  502  0.00000000000E+00  0.00000000000E+00  0.14376363611E+03  0.14376363611E+03  0.00000000000E+00 0. -1.
         -3   -1    0    0    0  501 -0.00000000000E+00 -0.00000000000E+00 -0.23039705915E+03  0.23039705915E+03  0.00000000000E+00 0.  1.
         23    2    1    2    0    0  0.12551580954E+02  0.17292059446E+02 -0.17126193095E+03  0.19463752665E+03  0.89980888438E+02 0.  0.
         24    2    1    2    0    0 -0.43335921464E+02 -0.17119070351E+02  0.28103383415E+02  0.11515861902E+03  0.10149208204E+03 0.  0.
        -13    1    4    4    0    0 -0.36663990195E+02  0.39533870537E+02  0.20159420472E+02  0.57563680654E+02  0.00000000000E+00 0.  1.
         14    1    4    4    0    0 -0.66719312689E+01 -0.56652940889E+02  0.79439629428E+01  0.57594938366E+02  0.00000000000E+00 0. -1.
        -11    1    3    3    0    0 -0.59286905088E+01  0.36236716590E+02 -0.16274439384E+03  0.16683520829E+03  0.00000000000E+00 0.  1.
         11    1    3    3    0    0  0.18480271463E+02 -0.18944657144E+02 -0.85175371103E+01  0.27802318358E+02  0.00000000000E+00 0. -1.
         -4    1    1    2    0  502  0.30784340509E+02 -0.17298909473E+00  0.56525124489E+02  0.64364549593E+02  0.00000000000E+00 0.  1.
<scales pt_clust_5="13000.00000" pt_clust_6="13000.00000" pt_clust_7="13000.00000" pt_clust_8="13000.00000" pt_clust_9="30.78483"></scales>
<clustering>
<clus scale="   30.785">  1  9  2 -1</clus>
<clus scale="   89.981">  7  8 -1 -1</clus>
<clus scale="   93.163">  2  7  1 -1</clus>
<clus scale="  101.492">  5  6 -1 -1</clus>
<clus scale="   30.785">  1  5  2 -1</clus>
</clustering>
</event>
<event>
 9    2  0.3764910E-005  0.1404875E+03  0.7546771E-02  0.1228378E+00
         21   -1    0    0  501  502  0.00000000000E+00  0.00000000000E+00  0.88448266154E+02  0.88448266154E+02  0.00000000000E+00 0. -1.
          2   -1    0    0  502    0 -0.00000000000E+00 -0.00000000000E+00 -0.42669903064E+03  0.42669903064E+03  0.00000000000E+00 0. -1.
         24    2    1    2    0    0  0.74880664808E+00 -0.61851662359E+02 -0.18657295186E+02  0.10276381144E+03  0.79913186835E+02 0.  0.
         23    2    1    2    0    0  0.98495670102E+01 -0.78646048047E+02 -0.15097800251E+03  0.19264931006E+03  0.89650346230E+02 0.  0.
        -13    1    3    3    0    0 -0.16967602934E+02  0.11143894647E+02 -0.18771813866E+02  0.27648995155E+02  0.00000000000E+00 0.  1.
         14    1    3    3    0    0  0.17716409582E+02 -0.72995557006E+02  0.11451868018E+00  0.75114816285E+02  0.00000000000E+00 0. -1.
        -11    1    4    4    0    0  0.18524878698E+02 -0.81756393699E+01  0.53576521478E+01  0.20945563884E+02  0.00000000000E+00 0.  1.
         11    1    4    4    0    0 -0.86753116877E+01 -0.70470408677E+02 -0.15633565466E+03  0.17170374617E+03  0.00000000000E+00 0. -1.
          1    1    1    2  501    0 -0.10598373658E+02  0.14049771041E+03 -0.16861546679E+03  0.21973417530E+03  0.00000000000E+00 0. -1.
<scales pt_clust_5="13000.00000" pt_clust_6="13000.00000" pt_clust_7="13000.00000" pt_clust_8="13000.00000" pt_clust_9="108.16454"></scales>
<clustering>
<clus scale="   79.913">  5  6 -1 -1</clus>
<clus scale="   89.650">  7  8 -1 -1</clus>
<clus scale="  101.056">  2  5  1 -1</clus>
<clus scale="  108.165">  1  9  2 -1</clus>
<clus scale="  108.165">  1  5  2 -1</clus>
</clustering>
</event>
<event>
 9    2  0.3764910E-005  0.9252861E+02  0.7546771E-02  0.1303977E+00
         -1   -1    0    0    0  501 -0.00000000000E+00  0.00000000000E+00  0.78131907686E+02  0.78131907686E+02  0.00000000000E+00 0.  1.
         21   -1    0    0  501  502  0.00000000000E+00 -0.00000000000E+00 -0.77024265093E+03  0.77024265093E+03  0.00000000000E+00 0.  1.
         23    2    1    2    0    0  0.33453794694E+00  0.17434589583E+02  0.41826037400E+02  0.10178200823E+03  0.91137714290E+02 0.  0.
         24    2    1    2    0    0 -0.38571024557E+02  0.11181800760E+02 -0.48408371911E+03  0.49221590235E+03  0.79540497975E+02 0.  0.
        -13    1    4    4    0    0 -0.62476831862E+02  0.19653226954E+01 -0.30809559538E+03  0.31437257021E+03  0.00000000000E+00 0.  1.
         14    1    4    4    0    0  0.23905807306E+02  0.92164780649E+01 -0.17598812373E+03  0.17784333214E+03  0.00000000000E+00 0. -1.
        -13    1    3    3    0    0  0.32330846923E+02  0.41501634229E+02  0.26559501932E+02  0.58932813011E+02  0.00000000000E+00 0.  1.
         13    1    3    3    0    0 -0.31996308976E+02 -0.24067044646E+02  0.15266535468E+02  0.42849195223E+02  0.00000000000E+00 0. -1.
         -2    1    1    2    0  502  0.38236486610E+02 -0.28616390343E+02 -0.24985306154E+03  0.25437664803E+03  0.00000000000E+00 0.  1.
<scales pt_clust_5="13000.00000" pt_clust_6="13000.00000" pt_clust_7="13000.00000" pt_clust_8="13000.00000" pt_clust_9="47.75905"></scales>
<clustering>
<clus scale="   47.759">  2  9  1 -1</clus>
<clus scale="   79.540">  5  6 -1 -1</clus>
<clus scale="   81.130">  2  5  1 -1</clus>
<clus scale="   91.138">  7  8 -1 -1</clus>
<clus scale="   47.759">  2  5  1 -1</clus>
</clustering>
</event>
<event>
 9    2  0.3764910E-005  0.2829579E+03  0.7546771E-02  0.1094500E+00
          2   -1    0    0  502    0 -0.00000000000E+00  0.00000000000E+00  0.65310093767E+03  0.65310093767E+03  0.00000000000E+00 0. -1.
         21   -1    0    0  501  502  0.00000000000E+00 -0.00000000000E+00 -0.13915057061E+03  0.13915057061E+03  0.00000000000E+00 0.  1.
         23    2    1    2    0    0  0.27289958690E+03  0.60291241072E+02  0.33146557371E+03  0.44354750044E+03  0.93572112926E+02 0.  0.
         24    2    1    2    0    0 -0.24133907077E+03 -0.66760217035E+02  0.15392521052E+03  0.30565097542E+03  0.83833613081E+02 0.  0.
        -11    1    4    4    0    0 -0.31477352524E+02 -0.73547012431E+00 -0.79954542759E+01  0.32485257076E+02  0.00000000000E+00 0.  1.
         12    1    4    4    0    0 -0.20986171824E+03 -0.66024746911E+02  0.16192066480E+03  0.27316571834E+03  0.00000000000E+00 0. -1.
        -11    1    3    3    0    0  0.19727052729E+03  0.10957028202E+02  0.26895012481E+03  0.33372127149E+03  0.00000000000E+00 0.  1.
         11    1    3    3    0    0  0.75629059609E+02  0.49334212871E+02  0.62515448891E+02  0.10982622896E+03  0.00000000000E+00 0. -1.
          1    1    1    2  501    0 -0.31560516136E+02  0.64689759627E+01  0.28559582829E+02  0.43053032415E+02  0.00000000000E+00 0. -1.
<scales pt_clust_5="13000.00000" pt_clust_6="13000.00000" pt_clust_7="13000.00000" pt_clust_8="13000.00000" pt_clust_9="32.21669"></scales>
<clustering>
<clus scale="   32.217">  2  9  1 -1</clus>
<clus scale="   83.834">  5  6 -1 -1</clus>
<clus scale="   93.572">  7  8 -1 -1</clus>
<clus scale="  279.888">  2  5  1 -1</clus>
<clus scale="   32.217">  2  5  1 -1</clus>
</clustering>
</event>
<event>
 9    2  0.3764910E-005  0.1185966E+03  0.7546771E-02  0.1246467E+00
         21   -1    0    0  501  502  0.00000000000E+00  0.00000000000E+00  0.19602332672E+03  0.19602332672E+03  0.00000000000E+00 0.  1.
         -1   -1    0    0    0  501 -0.00000000000E+00 -0.00000000000E+00 -0.69892049440E+03  0.69892049440E+03  0.00000000000E+00 0.  1.
         24    2    1    2    0    0  0.38834483911E+02 -0.80075580604E+02 -0.56604343664E+03  0.57896885738E+03  0.82943052176E+02 0.  0.
         23    2    1    2    0    0  0.47255389505E+01  0.61108902761E+02 -0.10025130639E+03  0.14581040195E+03  0.86334930180E+02 0.  0.
        -11    1    3    3    0    0 -0.24301255017E+02 -0.34942926972E+02 -0.24564126971E+03  0.24930140899E+03  0.00000000000E+00 0.  1.
         12    1    3    3    0    0  0.63135738928E+02 -0.45132653632E+02 -0.32040216694E+03  0.32966744840E+03  0.00000000000E+00 0. -1.
        -11    1    4    4    0    0  0.38809980284E+02  0.35042268035E+02 -0.85902430956E+02  0.10056541534E+03  0.00000000000E+00 0.  1.
         11    1    4    4    0    0 -0.34084441334E+02  0.26066634726E+02 -0.14348875432E+02  0.45244986608E+02  0.00000000000E+00 0. -1.
         -2    1    1    2    0  502 -0.43560022862E+02  0.18966677844E+02  0.16339757534E+03  0.17016456179E+03  0.00000000000E+00 0.  1.
<scales pt_clust_5="13000.00000" pt_clust_6="13000.00000" pt_clust_7="13000.00000" pt_clust_8="13000.00000" pt_clust_9="47.51011"></scales>
<clustering>
<clus scale="   47.510">  1  9  2 -1</clus>
<clus scale="   82.943">  5  6 -1 -1</clus>
<clus scale="   86.335">  7  8 -1 -1</clus>
<clus scale="  116.151">  2  5  1 -1</clus>
<clus scale="   47.510">  1  5  2 -1</clus>
</clustering>
</event>
<event>
 9    2  0.3764910E-005  0.1030004E+03  0.7546771E-02  0.1278873E+00
         -3   -1    0    0    0  501 -0.00000000000E+00  0.00000000000E+00  0.14823222604E+03  0.14823222604E+03  0.00000000000E+00 0.  1.
         21   -1    0    0  501  502  0.00000000000E+00 -0.00000000000E+00 -0.10521015439E+03  0.10521015439E+03  0.00000000000E+00 0.  1.
         23    2    1    2    0    0  0.37946614838E+02  0.52719627354E+02  0.23019623314E+02  0.11392087820E+03  0.90712506008E+02 0.  0.
         24    2    1    2    0    0 -0.36878681469E+02 -0.90712165324E+01 -0.53040120254E+01  0.89056254928E+02  0.80377608089E+02 0.  0.
        -11    1    4    4    0    0 -0.54387252943E+02 -0.12681887426E+02 -0.26090089632E+02  0.61640054578E+02  0.00000000000E+00 0.  1.
         12    1    4    4    0    0  0.17508571474E+02  0.36106708936E+01  0.20786077607E+02  0.27416200350E+02  0.00000000000E+00 0. -1.
        -13    1    3    3    0    0 -0.29308108429E+02  0.73232927049E+01  0.94445679734E+01  0.31651156376E+02  0.00000000000E+00 0. -1.
         13    1    3    3    0    0  0.67254723268E+02  0.45396334649E+02  0.13575055341E+02  0.82269721823E+02  0.00000000000E+00 0.  1.
         -4    1    1    2    0  502 -0.10679333697E+01 -0.43648410822E+02  0.25306460361E+02  0.50465247299E+02  0.00000000000E+00 0.  1.
<scales pt_clust_5="13000.00000" pt_clust_6="13000.00000" pt_clust_7="13000.00000" pt_clust_8="13000.00000" pt_clust_9="43.66150"></scales>
<clustering>
<clus scale="   43.661">  2  9  1 -1</clus>
<clus scale="   80.378">  5  6 -1 -1</clus>
<clus scale="   90.713">  7  8 -1 -1</clus>
<clus scale="   94.026">  2  5  1 -1</clus>
<clus scale="   43.661">  2  5  1 -1</clus>
</clustering>
</event>
<event>
 9    2  0.3764910E-005  0.9481073E+02  0.7546771E-02  0.1296545E+00
         21   -1    0    0  501  502  0.00000000000E+00  0.00000000000E+00  0.66465722201E+03  0.66465722201E+03  0.00000000000E+00 0. -1.
         -1   -1    0    0    0  501 -0.00000000000E+00 -0.00000000000E+00 -0.53966615033E+02  0.53966615033E+02  0.00000000000E+00 0.  1.
         23    2    1    2    0    0  0.82035153752E+01  0.31021863302E+02 -0.23998434787E+01  0.94302656364E+02  0.88642981004E+02 0.  0.
         24    2    1    2    0    0 -0.16995674412E+02 -0.49410314054E+02  0.54425622417E+03  0.55253268655E+03  0.79669944581E+02 0.  0.
        -13    1    4    4    0    0  0.14387493462E+02 -0.15106060649E+02  0.32181344384E+02  0.38351427129E+02  0.00000000000E+00 0.  1.
         14    1    4    4    0    0 -0.31383167875E+02 -0.34304253406E+02  0.51207487979E+03  0.51418125942E+03  0.00000000000E+00 0. -1.
        -11    1    3    3    0    0 -0.69030503037E+00 -0.28913729942E+02 -0.14748358062E+02  0.32465279388E+02  0.00000000000E+00 0.  1.
         11    1    3    3    0    0  0.88938204056E+01  0.59935593243E+02  0.12348514583E+02  0.61837376976E+02  0.00000000000E+00 0. -1.
         -2    1    1    2    0  502  0.87921590373E+01  0.18388450753E+02  0.68834226288E+02  0.71788494135E+02  0.00000000000E+00 0.  1.
<scales pt_clust_5="13000.00000" pt_clust_6="13000.00000" pt_clust_7="13000.00000" pt_clust_8="13000.00000" pt_clust_9="20.38228"></scales>
<clustering>
<clus scale="   20.382">  1  9  2 -1</clus>
<clus scale="   79.670">  5  6 -1 -1</clus>
<clus scale="   86.480">  1  5  2 -1</clus>
<clus scale="   88.643">  7  8 -1 -1</clus>
<clus scale="   20.382">  1  5  2 -1</clus>
</clustering>
</event>
<event>
 9    2  0.3764910E-005  0.1334025E+03  0.7546771E-02  0.1225752E+00
         21   -1    0    0  501  502  0.00000000000E+00  0.00000000000E+00  0.21128384621E+03  0.21128384621E+03  0.00000000000E+00 0. -1.
         -3   -1    0    0    0  501 -0.00000000000E+00 -0.00000000000E+00 -0.53557686788E+03  0.53557686788E+03  0.00000000000E+00 0.  1.
         23    2    1    2    0    0 -0.92717100387E+02  0.30947084160E+02 -0.47035333613E+03  0.48935908906E+03  0.93198039196E+02 0.  0.
         24    2    1    2    0    0  0.62817643947E+02  0.23867389961E+02  0.16221086474E+03  0.19300787074E+03  0.80149640247E+02 0.  0.
        -13    1    4    4    0    0  0.13474044576E+02  0.40551057487E+02  0.33957170813E+02  0.54580468944E+02  0.00000000000E+00 0.  1.
         14    1    4    4    0    0  0.49343599370E+02 -0.16683667525E+02  0.12825369393E+03  0.13842740179E+03  0.00000000000E+00 0. -1.
        -11    1    3    3    0    0 -0.62704010108E+02 -0.19602860597E+02 -0.34103395789E+03  0.34730422610E+03  0.00000000000E+00 0.  1.
         11    1    3    3    0    0 -0.30013090279E+02  0.50549944757E+02 -0.12931937824E+03  0.14205486296E+03  0.00000000000E+00 0. -1.
         -4    1    1    2    0  502  0.29899456440E+02 -0.54814474122E+02 -0.16150550287E+02  0.64493754296E+02  0.00000000000E+00 0.  1.
<scales pt_clust_5="13000.00000" pt_clust_6="13000.00000" pt_clust_7="13000.00000" pt_clust_8="13000.00000" pt_clust_9="62.43880"></scales>
<clustering>
<clus scale="   62.439">  1  9  2 -1</clus>
<clus scale="   80.150">  5  6 -1 -1</clus>
<clus scale="   93.198">  7  8 -1 -1</clus>
<clus scale="  124.637">  1  5  2 -1</clus>
<clus scale="   62.439">  1  5  2 -1</clus>
</clustering>
</event>
<event>
 9    2  0.3764910E-005  0.1318832E+03  0.7546771E-02  0.1227677E+00
         21   -1    0    0  501  502  0.00000000000E+00  0.00000000000E+00  0.36680749493E+02  0.36680749493E+02  0.00000000000E+00 0. -1.
          2   -1    0    0  502    0 -0.00000000000E+00 -0.00000000000E+00 -0.79653811295E+03  0.79653811295E+03  0.00000000000E+00 0. -1.
         24    2    1    2    0    0 -0.42845318005E+02 -0.10012004918E+03 -0.48614909616E+03  0.50444874604E+03  0.79169742693E+02 0.  0.
         23    2    1    2    0    0  0.63572577175E+02  0.41642995605E+02 -0.15934285185E+03  0.19866003487E+03  0.91104628680E+02 0.  0.
        -13    1    3    3    0    0 -0.26787673798E+02  0.41915008420E+01 -0.68498323742E+02  0.73669318595E+02  0.00000000000E+00 0.  1.
         14    1    3    3    0    0 -0.16057644207E+02 -0.10431155002E+03 -0.41765077242E+03  0.43077942744E+03  0.00000000000E+00 0. -1.
        -13    1    4    4    0    0  0.41722139333E+02  0.11501494982E+02 -0.15529438470E+03  0.16121218073E+03  0.00000000000E+00 0.  1.
         13    1    4    4    0    0  0.21850437842E+02  0.30141500622E+02 -0.40484671587E+01  0.37447854144E+02  0.00000000000E+00 0. -1.
          1    1    1    2  501    0 -0.20727259170E+02  0.58477053574E+02 -0.11436541544E+03  0.13011008153E+03  0.00000000000E+00 0. -1.
<scales pt_clust_5="13000.00000" pt_clust_6="13000.00000" pt_clust_7="13000.00000" pt_clust_8="13000.00000" pt_clust_9="62.04180"></scales>
<clustering>
<clus scale="   62.042">  1  9  2 -1</clus>
<clus scale="   79.170">  5  6 -1 -1</clus>
<clus scale="   91.105">  7  8 -1 -1</clus>
<clus scale="  123.939">  2  5  1 -1</clus>
<clus scale="   62.042">  1  5  2 -1</clus>
</clustering>
</event>
<event>
 9    2  0.3764910E-005  0.9654894E+02  0.7546771E-02  0.1292776E+00
         21   -1    0    0  501  502  0.00000000000E+00  0.00000000000E+00  0.70067230404E+02  0.70067230404E+02  0.00000000000E+00 0.  1.
          2   -1    0    0  502    0 -0.00000000000E+00 -0.00000000000E+00 -0.50630178967E+03  0.50630178967E+03  0.00000000000E+00 0. -1.
         23    2    1    2    0    0  0.39804283839E+01 -0.29873613040E+02 -0.50950728537E+02  0.10908478830E+03  0.91625529927E+02 0.  0.
         24    2    1    2    0    0 -0.62356008732E+02 -0.24373434958E+02 -0.40854172819E+02  0.11375595872E+03  0.82395500797E+02 0.  0.
        -13    1    4    4    0    0 -0.48807375928E+02 -0.52726696759E+02 -0.15797667059E+02  0.73565146507E+02  0.00000000000E+00 0.  1.
         14    1    4    4    0    0 -0.13548632804E+02  0.28353261802E+02 -0.25056505760E+02  0.40190812216E+02  0.00000000000E+00 0. -1.
        -13    1    3    3    0    0 -0.34270210354E+02  0.13408825559E+02 -0.95533714114E+01  0.38019874091E+02  0.00000000000E+00 0.  1.
         13    1    3    3    0    0  0.38250638738E+02 -0.43282438599E+02 -0.41397357125E+02  0.71064914211E+02  0.00000000000E+00 0. -1.
          1    1    1    2  501    0  0.58375580348E+02  0.54247047997E+02 -0.34442965791E+03  0.35352827305E+03  0.00000000000E+00 0. -1.
<scales pt_clust_5="13000.00000" pt_clust_6="13000.00000" pt_clust_7="13000.00000" pt_clust_8="13000.00000" pt_clust_9="79.68975"></scales>
<clustering>
<clus scale="   79.690">  1  9  2 -1</clus>
<clus scale="   82.396">  5  6 -1 -1</clus>
<clus scale="   87.838">  1  5  2 -1</clus>
<clus scale="   91.626">  7  8 -1 -1</clus>
<clus scale="   79.690">  1  5  2 -1</clus>
</clustering>
</event>
<event>
 9    2  0.3764910E-005  0.1208343E+03  0.7546771E-02  0.1243888E+00
          2   -1    0    0  502    0 -0.00000000000E+00  0.00000000000E+00  0.23629628018E+03  0.23629628018E+03  0.00000000000E+00 0. -1.
         21   -1    0    0  501  502  0.00000000000E+00 -0.00000000000E+00 -0.14935501806E+03  0.14935501806E+03  0.00000000000E+00 0.  1.
         24    2    1    2    0    0  0.74697854229E+02 -0.62041827958E+02  0.14022232212E+03  0.18863208745E+03  0.80565544439E+02 0.  0.
         23    2    1    2    0    0 -0.17073847823E+02  0.61286586073E+02  0.12964460508E+02  0.10921507939E+03  0.87819669877E+02 0.  0.
        -11    1    3    3    0    0  0.54155301858E+02  0.37565924294E+01  0.42000131025E+02  0.68636139986E+02  0.00000000000E+00 0.  1.
         12    1    3    3    0    0  0.20542552371E+02 -0.65798420387E+02  0.98222191095E+02  0.11999594746E+03  0.00000000000E+00 0. -1.
        -13    1    4    4    0    0 -0.42026811128E+02  0.38274593293E+02 -0.21563524124E+02  0.60796240986E+02  0.00000000000E+00 0.  1.
         13    1    4    4    0    0  0.24952963305E+02  0.23011992780E+02  0.34527984632E+02  0.48418838401E+02  0.00000000000E+00 0. -1.
          1    1    1    2  501    0 -0.57624006407E+02  0.75524188496E+00 -0.66245520506E+02  0.87804131405E+02  0.00000000000E+00 0. -1.
<scales pt_clust_5="13000.00000" pt_clust_6="13000.00000" pt_clust_7="13000.00000" pt_clust_8="13000.00000" pt_clust_9="57.62896"></scales>
<clustering>
<clus scale="   57.629">  2  9  1 -1</clus>
<clus scale="   80.566">  5  6 -1 -1</clus>
<clus scale="   87.820">  7  8 -1 -1</clus>
<clus scale="  115.670">  1  5  2 -1</clus>
<clus scale="   57.629">  2  5  1 -1</clus>
</clustering>
</event>
<event>
 9    2  0.3764910E-005  0.2354429E+03  0.7546771E-02  0.1123579E+00
          2   -1    0    0  502    0 -0.00000000000E+00  0.00000000000E+00  0.38984109368E+03  0.38984109368E+03  0.00000000000E+00 0. -1.
         21   -1    0    0  501  502  0.00000000000E+00 -0.00000000000E+00 -0.22715044696E+03  0.22715044696E+03  0.00000000000E+00 0. -1.
         23    2    1    2    0    0 -0.23057715647E+03 -0.12747973149E+02  0.25017519142E+03  0.35239614458E+03  0.90923486535E+02 0.  0.
         24    2    1    2    0    0  0.17841750926E+03  0.18845545309E+01 -0.78525154861E+02  0.21056842755E+03  0.79602158106E+02 0.  0.
        -13    1    4    4    0    0  0.61133830166E+02  0.27184500774E+02  0.48741265717E+00  0.66907248069E+02  0.00000000000E+00 0.  1.
         14    1    4    4    0    0  0.11728367910E+03 -0.25299946243E+02 -0.79012567518E+02  0.14366117948E+03  0.00000000000E+00 0. -1.
        -13    1    3    3    0    0 -0.22212013756E+02  0.15243018173E+02  0.18147164681E+01  0.27000302849E+02  0.00000000000E+00 0.  1.
         13    1    3    3    0    0 -0.20836514272E+03 -0.27990991322E+02  0.24836047495E+03  0.32539584173E+03  0.00000000000E+00 0. -1.
          1    1    1    2  501    0  0.52159647207E+02  0.10863418618E+02 -0.89593898374E+01  0.54026968517E+02  0.00000000000E+00 0. -1.
<scales pt_clust_5="13000.00000" pt_clust_6="13000.00000" pt_clust_7="13000.00000" pt_clust_8="13000.00000" pt_clust_9="53.27891"></scales>
<clustering>
<clus scale="   53.279">  2  9  1 -1</clus>
<clus scale="   79.602">  5  6 -1 -1</clus>
<clus scale="   90.923">  7  8 -1 -1</clus>
<clus scale="  231.307">  2  5  1 -1</clus>
<clus scale="   53.279">  2  5  1 -1</clus>
</clustering>
</event>
<event>
 9    2  0.3764910E-005  0.1199214E+03  0.7546771E-02  0.1246718E+00
         21   -1    0    0  501  502  0.00000000000E+00  0.00000000000E+00  0.47548646770E+03  0.47548646770E+03  0.00000000000E+00 0.  1.
         -1   -1    0    0    0  501 -0.00000000000E+00 -0.00000000000E+00 -0.75876796388E+02  0.75876796388E+02  0.00000000000E+00 0.  1.
         23    2    1    2    0    0 -0.49674676173E+02  0.24032512740E+02  0.21072615901E+03  0.23567432305E+03  0.89954084560E+02 0.  0.
         24    2    1    2    0    0  0.10018874796E+03 -0.32581653701E+02  0.21957748763E+03  0.25596558396E+03  0.78770284504E+02 0.  0.
        -13    1    4    4    0    0  0.11357390891E+03 -0.25514017080E+02  0.19495061752E+03  0.22705889351E+03  0.00000000000E+00 0.  1.
         14    1    4    4    0    0 -0.13385160947E+02 -0.70676366208E+01  0.24626870109E+02  0.28906690443E+02  0.00000000000E+00 0. -1.
        -11    1    3    3    0    0 -0.54751040378E+02 -0.12682077085E+02  0.17647483051E+03  0.18520765995E+03  0.00000000000E+00 0.  1.
         11    1    3    3    0    0  0.50763642046E+01  0.36714589826E+02  0.34251328507E+02  0.50466663097E+02  0.00000000000E+00 0. -1.
         -2    1    1    2    0  502 -0.50514071784E+02  0.85491409605E+01 -0.30693975335E+02  0.59723357083E+02  0.00000000000E+00 0.  1.
<scales pt_clust_5="13000.00000" pt_clust_6="13000.00000" pt_clust_7="13000.00000" pt_clust_8="13000.00000" pt_clust_9="51.23243"></scales>
<clustering>
<clus scale="   51.232">  1  9  2 -1</clus>
<clus scale="   78.770">  5  6 -1 -1</clus>
<clus scale="   89.954">  7  8 -1 -1</clus>
<clus scale="  111.777">  1  5  2 -1</clus>
<clus scale="   51.232">  1  5  2 -1</clus>
</clustering>
</event>
<event>
 9    2  0.3764910E-005  0.1269460E+03  0.7546771E-02  0.1233040E+00
          2   -1    0    0  502    0 -0.00000000000E+00  0.00000000000E+00  0.38161344518E+03  0.38161344518E+03  0.00000000000E+00 0. -1.
         21   -1    0    0  501  502  0.00000000000E+00 -0.00000000000E+00 -0.82907282326E+02  0.82907282326E+02  0.00000000000E+00 0. -1.
         24    2    1    2    0    0 -0.98306499143E+02  0.12587622002E+02  0.20988895012E+03  0.24825169008E+03  0.88050634558E+02 0.  0.
         23    2    1    2    0    0  0.61138319297E+02  0.45673227877E+02  0.24189933868E+02  0.12165146297E+03  0.91596876099E+02 0.  0.
        -11    1    3    3    0    0  0.13294538112E+02  0.15970590701E+02  0.28925954386E+02  0.35616223103E+02  0.00000000000E+00 0.  1.
         12    1    3    3    0    0 -0.11160103726E+03 -0.33829686995E+01  0.18096299573E+03  0.21263546698E+03  0.00000000000E+00 0. -1.
        -13    1    4    4    0    0 -0.42450563749E+00  0.35288480359E+02  0.43765718287E+02  0.56221838713E+02  0.00000000000E+00 0.  1.
         13    1    4    4    0    0  0.61562824935E+02  0.10384747518E+02 -0.19575784418E+02  0.65429624258E+02  0.00000000000E+00 0. -1.
          1    1    1    2  501    0  0.37168179846E+02 -0.58260849879E+02  0.64627278871E+02  0.94617574456E+02  0.00000000000E+00 0. -1.
<scales pt_clust_5="13000.00000" pt_clust_6="13000.00000" pt_clust_7="13000.00000" pt_clust_8="13000.00000" pt_clust_9="69.10720"></scales>
<clustering>
<clus scale="   69.107">  2  9  1 -1</clus>
<clus scale="   88.051">  5  6 -1 -1</clus>
<clus scale="   91.597">  7  8 -1 -1</clus>
<clus scale="  124.411">  1  5  2 -1</clus>
<clus scale="   69.107">  2  5  1 -1</clus>
</clustering>
</event>
<event>
 9    2  0.3764910E-005  0.8599359E+02  0.7546771E-02  0.1324762E+00
         -3   -1    0    0    0  501 -0.00000000000E+00  0.00000000000E+00  0.32233192082E+03  0.32233192082E+03  0.00000000000E+00 0.  1.
         21   -1    0    0  501  502  0.00000000000E+00 -0.00000000000E+00 -0.48689029335E+02  0.48689029335E+02  0.00000000000E+00 0. -1.
         23    2    1    2    0    0 -0.73331019838E+01 -0.58351795284E+01  0.21972644064E+03  0.23029908928E+03  0.68338408685E+02 0.  0.
         24    2    1    2    0    0  0.36629120296E+02 -0.98168730846E+01  0.53690813092E+02  0.10750598588E+03  0.85069207932E+02 0.  0.
        -11    1    4    4    0    0  0.56187535807E+02  0.12581103498E+02  0.52223523465E+02  0.77734289399E+02  0.00000000000E+00 0.  1.
         12    1    4    4    0    0 -0.19558415512E+02 -0.22397976583E+02  0.14672896273E+01  0.29771696478E+02  0.00000000000E+00 0. -1.
        -13    1    3    3    0    0  0.29149782576E+02 -0.13680688507E+01  0.64724702253E+02  0.70999074067E+02  0.00000000000E+00 0.  1.
         13    1    3    3    0    0 -0.36482884560E+02 -0.44671106777E+01  0.15500173838E+03  0.15930001521E+03  0.00000000000E+00 0. -1.
         -4    1    1    2    0  502 -0.29296018312E+02  0.15652052613E+02  0.22563775837E+00  0.33215875005E+02  0.00000000000E+00 0.  1.
<scales pt_clust_5="13000.00000" pt_clust_6="13000.00000" pt_clust_7="13000.00000" pt_clust_8="13000.00000" pt_clust_9="33.21511"></scales>
<clustering>
<clus scale="   33.215">  2  9  1 -1</clus>
<clus scale="   68.338">  7  8 -1 -1</clus>
<clus scale="   69.486">  1  7  2 -1</clus>
<clus scale="   85.069">  5  6 -1 -1</clus>
<clus scale="   33.215">  2  5  1 -1</clus>
</clustering>
</event>
<event>
 9    2  0.3764910E-005  0.2433162E+03  0.7546771E-02  0.1117603E+00
         21   -1    0    0  501  502  0.00000000000E+00  0.00000000000E+00  0.28197614670E+02  0.28197614670E+02  0.00000000000E+00 0.  1.
          2   -1    0    0  502    0 -0.00000000000E+00 -0.00000000000E+00 -0.14267717674E+04  0.14267717674E+04  0.00000000000E+00 0. -1.
         24    2    1    2    0    0 -0.42187854426E+02  0.28650319159E+02 -0.31875323953E+03  0.33527276420E+03  0.90573411380E+02 0.  0.
         23    2    1    2    0    0 -0.10782035144E+03 -0.71856072757E+01 -0.41295530065E+03  0.43583044612E+03  0.87972929304E+02 0.  0.
        -11    1    3    3    0    0 -0.26935452800E+02 -0.25165240071E+02 -0.59027049677E+02  0.69591669896E+02  0.00000000000E+00 0.  1.
         12    1    3    3    0    0 -0.15252401627E+02  0.53815559230E+02 -0.25972618986E+03  0.26568109430E+03  0.00000000000E+00 0. -1.
        -11    1    4    4    0    0  0.82610920798E+01 -0.20879828090E+02 -0.66093799526E+02  0.69804034262E+02  0.00000000000E+00 0. -1.
         11    1    4    4    0    0 -0.11608144352E+03  0.13694220814E+02 -0.34686150113E+03  0.36602641186E+03  0.00000000000E+00 0.  1.
          1    1    1    2  501    0  0.15000820586E+03 -0.21464711883E+02 -0.66686561258E+03  0.68386617179E+03  0.00000000000E+00 0. -1.
<scales pt_clust_5="13000.00000" pt_clust_6="13000.00000" pt_clust_7="13000.00000" pt_clust_8="13000.00000" pt_clust_9="151.53620"></scales>
<clustering>
<clus scale="   87.973">  7  8 -1 -1</clus>
<clus scale="   90.573">  5  6 -1 -1</clus>
<clus scale="   96.499">  5  7 -1 -1</clus>
<clus scale="  151.536">  1  9  2 -1</clus>
<clus scale="  151.536">  1  5  2 -1</clus>
</clustering>
</event>
<event>
 9    2  0.3764910E-005  0.1082973E+03  0.7546771E-02  0.1276478E+00
          2   -1    0    0  502    0 -0.00000000000E+00  0.00000000000E+00  0.10974623911E+03  0.10974623911E+03  0.00000000000E+00 0. -1.
         21   -1    0    0  501  502  0.00000000000E+00 -0.00000000000E+00 -0.70663654620E+03  0.70663654620E+03  0.00000000000E+00 0. -1.
         23    2    1    2    0    0  0.24503822784E+02  0.59521786677E+01  0.72557474516E+02  0.13043622253E+03  0.10541895122E+03 0.  0.
         24    2    1    2    0    0 -0.20851756382E+02  0.22152709234E+02 -0.63707908303E+03  0.64292383668E+03  0.80967669301E+02 0.  0.
        -13    1    4    4    0    0 -0.32560033203E+02  0.68879248940E+01 -0.97909780489E+02  0.10341143257E+03  0.00000000000E+00 0.  1.
         14    1    4    4    0    0  0.11708276820E+02  0.15264784340E+02 -0.53916930254E+03  0.53951240411E+03  0.00000000000E+00 0. -1.
        -13    1    3    3    0    0  0.63753320591E+02 -0.12093511847E+02  0.38739876237E+02  0.75574578570E+02  0.00000000000E+00 0. -1.
         13    1    3    3    0    0 -0.39249497807E+02  0.18045690515E+02  0.33817598279E+02  0.54861643956E+02  0.00000000000E+00 0.  1.
          1    1    1    2  501    0 -0.36520664020E+01 -0.28104887902E+02 -0.32368698579E+02  0.43022726095E+02  0.00000000000E+00 0. -1.
<scales pt_clust_5="13000.00000" pt_clust_6="13000.00000" pt_clust_7="13000.00000" pt_clust_8="13000.00000" pt_clust_9="28.34118"></scales>
<clustering>
<clus scale="   28.341">  2  9  1 -1</clus>
<clus scale="   80.968">  5  6 -1 -1</clus>
<clus scale="   84.681">  2  5  1 -1</clus>
<clus scale="  105.419">  7  8 -1 -1</clus>
<clus scale="   28.341">  2  5  1 -1</clus>
</clustering>
</event>
<event>
 9    2  0.3764910E-005  0.1069327E+03  0.7546771E-02  0.1271416E+00
         -1   -1    0    0    0  501 -0.00000000000E+00  0.00000000000E+00  0.19676550320E+03  0.19676550320E+03  0.00000000000E+00 0.  1.
         21   -1    0    0  501  502  0.00000000000E+00 -0.00000000000E+00 -0.25225059462E+03  0.25225059462E+03  0.00000000000E+00 0.  1.
         23    2    1    2    0    0 -0.74084807109E+01 -0.58557701652E+02  0.13542509010E+03  0.16959172520E+03  0.83291705573E+02 0.  0.
         24    2    1    2    0    0  0.43454834288E+02  0.18563983819E+00 -0.36437271433E+02  0.11040213396E+03  0.94723805604E+02 0.  0.
        -11    1    4    4    0    0  0.42876452169E+02 -0.39835166868E+02 -0.36094813496E+01  0.58636669632E+02  0.00000000000E+00 0.  1.
         12    1    4    4    0    0  0.57838211900E+00  0.40020806706E+02 -0.32827790083E+02  0.51765464327E+02  0.00000000000E+00 0. -1.
        -11    1    3    3    0    0  0.30012713632E+02 -0.58748519866E+01  0.75513271084E+02  0.81471043784E+02  0.00000000000E+00 0.  1.
         11    1    3    3    0    0 -0.37421194343E+02 -0.52682849665E+02  0.59911819021E+02  0.88120681416E+02  0.00000000000E+00 0. -1.
         -2    1    1    2    0  502 -0.36046353577E+02  0.58372061814E+02 -0.15447291009E+03  0.16902223865E+03  0.00000000000E+00 0.  1.
<scales pt_clust_5="13000.00000" pt_clust_6="13000.00000" pt_clust_7="13000.00000" pt_clust_8="13000.00000" pt_clust_9="68.60494"></scales>
<clustering>
<clus scale="   68.605">  2  9  1 -1</clus>
<clus scale="   83.292">  7  8 -1 -1</clus>
<clus scale="   94.724">  5  6 -1 -1</clus>
<clus scale="   96.951">  1  7  2 -1</clus>
<clus scale="   68.605">  2  5  1 -1</clus>
</clustering>
</event>
<event>
 9    2  0.3764910E-005  0.9150597E+02  0.7546771E-02  0.1305285E+00
         -3   -1    0    0    0  501 -0.00000000000E+00  0.00000000000E+00  0.43396531601E+02  0.43396531601E+02  0.00000000000E+00 0.  1.
         21   -1    0    0  501  502  0.00000000000E+00 -0.00000000000E+00 -0.33912882682E+03  0.33912882682E+03  0.00000000000E+00 0.  1.
         23    2    1    2    0    0 -0.12558802722E+02  0.13894989754E+02 -0.56437155064E+02  0.10776158049E+03  0.89869969910E+02 0.  0.
         24    2    1    2    0    0  0.27904084789E+02  0.27205481807E+02 -0.18186095620E+03  0.20249060220E+03  0.80064101815E+02 0.  0.
        -11    1    4    4    0    0 -0.15852144405E+02  0.39922981704E+02 -0.99233528012E+02  0.10813153116E+03  0.00000000000E+00 0.  1.
         12    1    4    4    0    0  0.43756229194E+02 -0.12717499897E+02 -0.82627428192E+02  0.94359071034E+02  0.00000000000E+00 0. -1.
        -13    1    3    3    0    0  0.11655898366E+02 -0.34245074521E+02 -0.33120027727E+02  0.49046114345E+02  0.00000000000E+00 0. -1.
         13    1    3    3    0    0 -0.24214701088E+02  0.48140064275E+02 -0.23317127337E+02  0.58715466144E+02  0.00000000000E+00 0.  1.
         -4    1    1    2    0  502 -0.15345282067E+02 -0.41100471561E+02 -0.57434183949E+02  0.72273175730E+02  0.00000000000E+00 0.  1.
<scales pt_clust_5="13000.00000" pt_clust_6="13000.00000" pt_clust_7="13000.00000" pt_clust_8="13000.00000" pt_clust_9="43.87170"></scales>
<clustering>
<clus scale="   43.872">  2  9  1 -1</clus>
<clus scale="   80.064">  5  6 -1 -1</clus>
<clus scale="   81.896">  2  5  1 -1</clus>
<clus scale="   89.870">  7  8 -1 -1</clus>
<clus scale="   43.872">  2  5  1 -1</clus>
</clustering>
</event>
<event>
 9    2  0.3764910E-005  0.1950379E+03  0.7546771E-02  0.1155546E+00
          2   -1    0    0  502    0 -0.00000000000E+00  0.00000000000E+00  0.15663058148E+04  0.15663058148E+04  0.00000000000E+00 0. -1.
         21   -1    0    0  501  502  0.00000000000E+00 -0.00000000000E+00 -0.53803878593E+02  0.53803878593E+02  0.00000000000E+00 0. -1.
         24    2    1    2    0    0 -0.49588305468E+02  0.16893497918E+03  0.11879579916E+04  0.12033969200E+04  0.76954076605E+02 0.  0.
         23    2    1    2    0    0  0.10145484166E+03 -0.12926912101E+03  0.28011854425E+03  0.33773724509E+03  0.92717082271E+02 0.  0.
        -13    1    3    3    0    0 -0.40283602334E+00  0.29411740729E+02  0.73573202301E+02  0.79235275392E+02  0.00000000000E+00 0.  1.
         14    1    3    3    0    0 -0.49185469445E+02  0.13952323845E+03  0.11143847893E+04  0.11241616446E+04  0.00000000000E+00 0. -1.
        -13    1    4    4    0    0  0.80061430159E+02 -0.13444572430E+03  0.27288933477E+03  0.31456966544E+03  0.00000000000E+00 0. -1.
         13    1    4    4    0    0  0.21393411504E+02  0.51766032853E+01  0.72292094779E+01  0.23167579654E+02  0.00000000000E+00 0.  1.
          1    1    1    2  501    0 -0.51866536195E+02 -0.39665858172E+02  0.44425400354E+02  0.78975528349E+02  0.00000000000E+00 0. -1.
<scales pt_clust_5="13000.00000" pt_clust_6="13000.00000" pt_clust_7="13000.00000" pt_clust_8="13000.00000" pt_clust_9="65.29562"></scales>
<clustering>
<clus scale="   65.296">  2  9  1 -1</clus>
<clus scale="   76.954">  5  6 -1 -1</clus>
<clus scale="   92.717">  7  8 -1 -1</clus>
<clus scale="  188.056">  1  5  2 -1</clus>
<clus scale="   65.296">  2  5  1 -1</clus>
</clustering>
</event>
<event>
 9    2  0.3764910E-005  0.1336149E+03  0.7546771E-02  0.1235958E+00
          4   -1    0    0  502    0 -0.00000000000E+00  0.00000000000E+00  0.37468366004E+02  0.37468366004E+02  0.00000000000E+00 0. -1.
         21   -1    0    0  501  502  0.00000000000E+00 -0.00000000000E+00 -0.12313389389E+04  0.12313389389E+04  0.00000000000E+00 0. -1.
         23    2    1    2    0    0 -0.41126784160E+02  0.37712064179E+01 -0.82406373681E+02  0.12996849278E+03  0.91626220696E+02 0.  0.
         24    2    1    2    0    0 -0.79088169833E+02  0.57790926550E+01 -0.35032454631E+03  0.36820503750E+03  0.80989662118E+02 0.  0.
        -11    1    4    4    0    0 -0.52447644701E+02  0.42706034715E+02 -0.21938894348E+03  0.22957802455E+03  0.00000000000E+00 0.  1.
         12    1    4    4    0    0 -0.26640525132E+02 -0.36926942060E+02 -0.13093560283E+03  0.13862701295E+03  0.00000000000E+00 0. -1.
        -11    1    3    3    0    0 -0.34984565753E+02  0.31120499411E+02 -0.43417958293E+01  0.47023999357E+02  0.00000000000E+00 0. -1.
         11    1    3    3    0    0 -0.61422184077E+01 -0.27349292993E+02 -0.78064577851E+02  0.82944493424E+02  0.00000000000E+00 0.  1.
          3    1    1    2  501    0  0.12021495399E+03 -0.95502990729E+01 -0.76113965293E+03  0.77063377465E+03  0.00000000000E+00 0. -1.
<scales pt_clust_5="13000.00000" pt_clust_6="13000.00000" pt_clust_7="13000.00000" pt_clust_8="13000.00000" pt_clust_9="106.27139"></scales>
<clustering>
<clus scale="   80.990">  5  6 -1 -1</clus>
<clus scale="   91.626">  7  8 -1 -1</clus>
<clus scale="  100.504">  1  7  2 -1</clus>
<clus scale="  106.271">  2  9  1 -1</clus>
<clus scale="  106.271">  2  5  1 -1</clus>
</clustering>
</event>
<event>
 9    2  0.3764910E-005  0.1117610E+03  0.7546771E-02  0.1260781E+00
         -1   -1    0    0    0  501 -0.00000000000E+00  0.00000000000E+00  0.22234063987E+03  0.22234063987E+03  0.00000000000E+00 0.  1.
         21   -1    0    0  501  502  0.00000000000E+00 -0.00000000000E+00 -0.19314956951E+03  0.19314956951E+03  0.00000000000E+00 0.  1.
         23    2    1    2    0    0  0.58148115571E+02 -0.46413272976E+02  0.17676253940E+03  0.21157240902E+03  0.89344802155E+02 0.  0.
         24    2    1    2    0    0 -0.30766511058E+02 -0.11893233500E+01 -0.86430625315E+02  0.12173530701E+03  0.80007745170E+02 0.  0.
        -13    1    4    4    0    0 -0.32818757339E+02 -0.30779860192E+02 -0.20508938678E+02  0.49447822929E+02  0.00000000000E+00 0.  1.
         14    1    4    4    0    0  0.20522462811E+01  0.29590536842E+02 -0.65921686637E+02  0.72287484078E+02  0.00000000000E+00 0. -1.
        -13    1    3    3    0    0 -0.23818720763E+02 -0.16258692758E+02  0.40350196271E+02  0.49596520927E+02  0.00000000000E+00 0. -1.
         13    1    3    3    0    0  0.81966836334E+02 -0.30154580218E+02  0.13641234313E+03  0.16197588810E+03  0.00000000000E+00 0.  1.
         -2    1    1    2    0  502 -0.27381604513E+02  0.47602596326E+02 -0.61140843720E+02  0.82182493351E+02  0.00000000000E+00 0.  1.
<scales pt_clust_5="13000.00000" pt_clust_6="13000.00000" pt_clust_7="13000.00000" pt_clust_8="13000.00000" pt_clust_9="54.91593"></scales>
<clustering>
<clus scale="   54.916">  2  9  1 -1</clus>
<clus scale="   80.008">  5  6 -1 -1</clus>
<clus scale="   89.345">  7  8 -1 -1</clus>
<clus scale="  104.447">  2  5  1 -1</clus>
<clus scale="   54.916">  2  5  1 -1</clus>
</clustering>
</event>
<event>
 9    2  0.3764910E-005  0.9555444E+02  0.7546771E-02  0.1295390E+00
         21   -1    0    0  501  502  0.00000000000E+00  0.00000000000E+00  0.72162019762E+02  0.72162019762E+02  0.00000000000E+00 0. -1.
          4   -1    0    0  502    0 -0.00000000000E+00 -0.00000000000E+00 -0.30733457498E+03  0.30733457498E+03  0.00000000000E+00 0. -1.
         24    2    1    2    0    0 -0.55855810748E-01 -0.93740048477E+01 -0.75724844724E+02  0.11166905063E+03  0.81534346592E+02 0.  0.
         23    2    1    2    0    0  0.12366043239E+02  0.75766934557E+02 -0.31812229684E+02  0.12343094515E+03  0.91266822369E+02 0.  0.
        -13    1    3    3    0    0 -0.29703128487E+02  0.81738221283E+01 -0.26997696155E+01  0.30925328876E+02  0.00000000000E+00 0.  1.
         14    1    3    3    0    0  0.29647272676E+02 -0.17547826976E+02 -0.73025075109E+02  0.80743721758E+02  0.00000000000E+00 0. -1.
        -11    1    4    4    0    0 -0.18947484965E+02  0.40036929899E+02  0.23803869000E+02  0.50285058632E+02  0.00000000000E+00 0. -1.
         11    1    4    4    0    0  0.31313528204E+02  0.35730004658E+02 -0.55616098685E+02  0.73145886517E+02  0.00000000000E+00 0.  1.
          3    1    1    2  501    0 -0.12310187428E+02 -0.66392929709E+02 -0.12763548081E+03  0.14439659896E+03  0.00000000000E+00 0. -1.
<scales pt_clust_5="13000.00000" pt_clust_6="13000.00000" pt_clust_7="13000.00000" pt_clust_8="13000.00000" pt_clust_9="67.52456"></scales>
<clustering>
<clus scale="   67.525">  1  9  2 -1</clus>
<clus scale="   81.534">  5  6 -1 -1</clus>
<clus scale="   86.307">  2  5  1 -1</clus>
<clus scale="   91.267">  7  8 -1 -1</clus>
<clus scale="   67.525">  1  5  2 -1</clus>
</clustering>
</event>
<event>
 9    2  0.3764910E-005  0.2658527E+03  0.7546771E-02  0.1127966E+00
         21   -1    0    0  501  502  0.00000000000E+00  0.00000000000E+00  0.30340644905E+03  0.30340644905E+03  0.00000000000E+00 0. -1.
          2   -1    0    0  502    0 -0.00000000000E+00 -0.00000000000E+00 -0.88432363145E+03  0.88432363145E+03  0.00000000000E+00 0. -1.
         24    2    1    2    0    0  0.73768822602E+02  0.93290105118E+02 -0.14927051515E+03  0.20750062354E+03  0.81424438428E+02 0.  0.
         23    2    1    2    0    0  0.10473581943E+03  0.96358393036E+02 -0.63034140829E+03  0.65264731429E+03  0.91453234283E+02 0.  0.
        -11    1    3    3    0    0  0.20412016252E+02  0.48506046288E+02 -0.12618394811E+02  0.54117564815E+02  0.00000000000E+00 0.  1.
         12    1    3    3    0    0  0.53356806350E+02  0.44784058830E+02 -0.13665212034E+03  0.15338305872E+03  0.00000000000E+00 0. -1.
        -13    1    4    4    0    0  0.34385831574E+02  0.11707712272E+02 -0.49098574441E+02  0.61074757076E+02  0.00000000000E+00 0.  1.
         13    1    4    4    0    0  0.70349987860E+02  0.84650680764E+02 -0.58124283385E+03  0.59157255721E+03  0.00000000000E+00 0. -1.
          1    1    1    2  501    0 -0.17850464204E+03 -0.18964849815E+03  0.19869474105E+03  0.32758214268E+03  0.00000000000E+00 0. -1.
<scales pt_clust_5="13000.00000" pt_clust_6="13000.00000" pt_clust_7="13000.00000" pt_clust_8="13000.00000" pt_clust_9="249.62765"></scales>
<clustering>
<clus scale="   81.424">  5  6 -1 -1</clus>
<clus scale="   91.453">  7  8 -1 -1</clus>
<clus scale="  144.135">  2  5  1 -1</clus>
<clus scale="  249.628">  1  9  2 -1</clus>
<clus scale="  249.628">  1  5  2 -1</clus>
</clustering>
</event>
<event>
 9    2  0.3764910E-005  0.1024617E+03  0.7546771E-02  0.1279883E+00
          2   -1    0    0  502    0 -0.00000000000E+00  0.00000000000E+00  0.53488555508E+03  0.53488555508E+03  0.00000000000E+00 0. -1.
         21   -1    0    0  501  502  0.00000000000E+00 -0.00000000000E+00 -0.32542686409E+02  0.32542686409E+02  0.00000000000E+00 0.  1.
         23    2    1    2    0    0 -0.89246784676E+00  0.43122822711E+02  0.34441455397E+03  0.35872496584E+03  0.90564020419E+02 0.  0.
         24    2    1    2    0    0  0.46892545767E+00 -0.63925706747E+02  0.86657148052E+02  0.13445693858E+03  0.80513918981E+02 0.  0.
        -13    1    4    4    0    0 -0.14965886597E+02 -0.71490653896E+02  0.36935910586E+02  0.81848352744E+02  0.00000000000E+00 0.  1.
         14    1    4    4    0    0  0.15434812054E+02  0.75649471492E+01  0.49721237466E+02  0.52608585836E+02  0.00000000000E+00 0. -1.
        -11    1    3    3    0    0 -0.30642702457E+02  0.59075527566E+02  0.22986004845E+03  0.23930009411E+03  0.00000000000E+00 0. -1.
         11    1    3    3    0    0  0.29750234610E+02 -0.15952704855E+02  0.11455450552E+03  0.11942487172E+03  0.00000000000E+00 0.  1.
          1    1    1    2  501    0  0.42354238909E+00  0.20802884036E+02  0.71271166654E+02  0.74246337072E+02  0.00000000000E+00 0. -1.
<scales pt_clust_5="13000.00000" pt_clust_6="13000.00000" pt_clust_7="13000.00000" pt_clust_8="13000.00000" pt_clust_9="20.80721"></scales>
<clustering>
<clus scale="   20.807">  2  9  1 -1</clus>
<clus scale="   80.514">  5  6 -1 -1</clus>
<clus scale="   90.564">  7  8 -1 -1</clus>
<clus scale="   93.697">  2  5  1 -1</clus>
<clus scale="   20.807">  2  5  1 -1</clus>
</clustering>
</event>
<event>
 9    2  0.3764910E-005  0.1274385E+03  0.7546771E-02  0.1233219E+00
          4   -1    0    0  502    0 -0.00000000000E+00  0.00000000000E+00  0.47873047484E+03  0.47873047484E+03  0.00000000000E+00 0. -1.
         21   -1    0    0  501  502  0.00000000000E+00 -0.00000000000E+00 -0.11794103489E+03  0.11794103489E+03  0.00000000000E+00 0.  1.
         24    2    1    2    0    0 -0.36716160303E+02  0.84214459053E+02  0.35841614547E+03  0.37905894485E+03  0.82361391400E+02 0.  0.
         23    2    1    2    0    0  0.81889134743E+01 -0.82195084789E+02 -0.69517776657E+02  0.14024197749E+03  0.89509779980E+02 0.  0.
        -11    1    3    3    0    0  0.11072467621E+02  0.40977779825E+02  0.24467258404E+03  0.24832730691E+03  0.00000000000E+00 0.  1.
         12    1    3    3    0    0 -0.47788627925E+02  0.43236679229E+02  0.11374356143E+03  0.13073163794E+03  0.00000000000E+00 0. -1.
        -13    1    4    4    0    0  0.17906173831E+02 -0.36349275025E+02 -0.82240856291E+02  0.91681291982E+02  0.00000000000E+00 0.  1.
         13    1    4    4    0    0 -0.97172603572E+01 -0.45845809764E+02  0.12723079634E+02  0.48560685509E+02  0.00000000000E+00 0. -1.
          3    1    1    2  501    0  0.28527246829E+02 -0.20193742644E+01  0.71891071139E+02  0.77370587393E+02  0.00000000000E+00 0. -1.
<scales pt_clust_5="13000.00000" pt_clust_6="13000.00000" pt_clust_7="13000.00000" pt_clust_8="13000.00000" pt_clust_9="28.59865"></scales>
<clustering>
<clus scale="   28.599">  2  9  1 -1</clus>
<clus scale="   82.361">  5  6 -1 -1</clus>
<clus scale="   89.510">  7  8 -1 -1</clus>
<clus scale="  122.523">  1  5  2 -1</clus>
<clus scale="   28.599">  2  5  1 -1</clus>
</clustering>
</event>
<event>
 9    2  0.3764910E-005  0.1641664E+03  0.7546771E-02  0.1185522E+00
         21   -1    0    0  501  502  0.00000000000E+00  0.00000000000E+00  0.26657418644E+03  0.26657418644E+03  0.00000000000E+00 0. -1.
          2   -1    0    0  502    0 -0.00000000000E+00 -0.00000000000E+00 -0.17072059560E+03  0.17072059560E+03  0.00000000000E+00 0. -1.
         23    2    1    2    0    0 -0.21232813333E+02 -0.10769804386E+03  0.81359027921E+00  0.14262103624E+03  0.91051617424E+02 0.  0.
         24    2    1    2    0    0  0.42722834829E+02  0.17580734057E+03  0.35062136814E+02  0.20141045473E+03  0.81261037546E+02 0.  0.
        -11    1    4    4    0    0 -0.23175466489E+02  0.62030409182E+02  0.19376801432E+02  0.68995176237E+02  0.00000000000E+00 0.  1.
         12    1    4    4    0    0  0.65898301318E+02  0.11377693138E+03  0.15685335383E+02  0.13241527849E+03  0.00000000000E+00 0. -1.
        -11    1    3    3    0    0  0.13673522336E+02 -0.93854327546E+02  0.24836364325E+02  0.98043077293E+02  0.00000000000E+00 0.  1.
         11    1    3    3    0    0 -0.34906335668E+02 -0.13843716318E+02 -0.24022774045E+02  0.44577958949E+02  0.00000000000E+00 0. -1.
          1    1    1    2  501    0 -0.21490021497E+02 -0.68109296702E+02  0.59977863752E+02  0.93263291072E+02  0.00000000000E+00 0. -1.
<scales pt_clust_5="13000.00000" pt_clust_6="13000.00000" pt_clust_7="13000.00000" pt_clust_8="13000.00000" pt_clust_9="71.41917"></scales>
<clustering>
<clus scale="   71.419">  1  9  2 -1</clus>
<clus scale="   81.261">  5  6 -1 -1</clus>
<clus scale="   91.052">  7  8 -1 -1</clus>
<clus scale="  158.945">  1  5  2 -1</clus>
<clus scale="   71.419">  1  5  2 -1</clus>
</clustering>
</event>
<event>
 9    2  0.3764910E-005  0.1259736E+03  0.7546771E-02  0.1248102E+00
         -1   -1    0    0    0  501 -0.00000000000E+00  0.00000000000E+00  0.11917687724E+03  0.11917687724E+03  0.00000000000E+00 0.  1.
         21   -1    0    0  501  502  0.00000000000E+00 -0.00000000000E+00 -0.25870902131E+03  0.25870902131E+03  0.00000000000E+00 0.  1.
         23    2    1    2    0    0  0.16442185725E+02  0.39142158063E+01  0.10521760681E+02  0.94375430466E+02  0.92251546713E+02 0.  0.
         24    2    1    2    0    0 -0.67412125139E+01  0.93505530164E+02 -0.27837948893E+02  0.12691718709E+03  0.80896803783E+02 0.  0.
        -13    1    4    4    0    0 -0.30423461899E+02  0.28355726224E+02 -0.38629596022E+02  0.56761606147E+02  0.00000000000E+00 0.  1.
         14    1    4    4    0    0  0.23682249385E+02  0.65149803940E+02  0.10791647129E+02  0.70155580941E+02  0.00000000000E+00 0. -1.
        -13    1    3    3    0    0  0.42349045403E+02  0.21913186852E+02 -0.18849607164E+02  0.51273161545E+02  0.00000000000E+00 0.  1.
         13    1    3    3    0    0 -0.25906859677E+02 -0.17998971046E+02  0.29371367845E+02  0.43102268921E+02  0.00000000000E+00 0. -1.
         -2    1    1    2    0  502 -0.97009732115E+01 -0.97419745970E+02 -0.12221595586E+03  0.15659328099E+03  0.00000000000E+00 0.  1.
<scales pt_clust_5="13000.00000" pt_clust_6="13000.00000" pt_clust_7="13000.00000" pt_clust_8="13000.00000" pt_clust_9="96.56627"></scales>
<clustering>
<clus scale="   80.897">  5  6 -1 -1</clus>
<clus scale="   92.252">  7  8 -1 -1</clus>
<clus scale="   93.787">  1  7  2 -1</clus>
<clus scale="   96.566">  2  9  1 -1</clus>
<clus scale="   96.566">  2  5  1 -1</clus>
</clustering>
</event>
<event>
 9    2  0.3764910E-005  0.9670628E+02  0.7546771E-02  0.1297441E+00
          2   -1    0    0  502    0 -0.00000000000E+00  0.00000000000E+00  0.35156495573E+03  0.35156495573E+03  0.00000000000E+00 0. -1.
         21   -1    0    0  501  502  0.00000000000E+00 -0.00000000000E+00 -0.13250445977E+03  0.13250445977E+03  0.00000000000E+00 0. -1.
         23    2    1    2    0    0  0.46239609288E+01 -0.35560662350E+02  0.20660980366E+03  0.22983500290E+03  0.94077499253E+02 0.  0.
         24    2    1    2    0    0  0.59759753994E+00  0.92864181983E+01  0.12029685246E+03  0.14311108094E+03  0.76960081138E+02 0.  0.
        -11    1    4    4    0    0 -0.17093323993E+02  0.36326542729E+02  0.91129136441E+02  0.99580715705E+02  0.00000000000E+00 0.  1.
         12    1    4    4    0    0  0.17690921533E+02 -0.27040124531E+02  0.29167716023E+02  0.43530365233E+02  0.00000000000E+00 0. -1.
        -11    1    3    3    0    0 -0.42099796440E+02 -0.33277010617E+02  0.11822037269E+03  0.12982992265E+03  0.00000000000E+00 0.  1.
         11    1    3    3    0    0  0.46723757368E+02 -0.22836517331E+01  0.88389430969E+02  0.10000508025E+03  0.00000000000E+00 0. -1.
          1    1    1    2  501    0 -0.52215584688E+01  0.26274244152E+02 -0.10784616017E+03  0.11112333167E+03  0.00000000000E+00 0. -1.
<scales pt_clust_5="13000.00000" pt_clust_6="13000.00000" pt_clust_7="13000.00000" pt_clust_8="13000.00000" pt_clust_9="26.78807"></scales>
<clustering>
<clus scale="   26.788">  2  9  1 -1</clus>
<clus scale="   76.960">  5  6 -1 -1</clus>
<clus scale="   80.152">  2  5  1 -1</clus>
<clus scale="   94.077">  7  8 -1 -1</clus>
<clus scale="   26.788">  2  5  1 -1</clus>
</clustering>
</event>
<event>
 9    2  0.3764910E-005  0.1884119E+03  0.7546771E-02  0.1184090E+00
         21   -1    0    0  501  502  0.00000000000E+00  0.00000000000E+00  0.10447819959E+04  0.10447819959E+04  0.00000000000E+00 0.  1.
         -3   -1    0    0    0  501 -0.00000000000E+00 -0.00000000000E+00 -0.64290828468E+02  0.64290828468E+02  0.00000000000E+00 0.  1.
         24    2    1    2    0    0 -0.76658742374E+01  0.72015725497E+02  0.19926884384E+03  0.22691660597E+03  0.80858169635E+02 0.  0.
         23    2    1    2    0    0 -0.35304824593E+02 -0.17428557434E+03  0.73324802579E+03  0.76129623249E+03  0.10147607705E+03 0.  0.
        -11    1    3    3    0    0  0.94897632595E+01  0.84590379489E+02  0.13886961285E+03  0.16288142092E+03  0.00000000000E+00 0.  1.
         12    1    3    3    0    0 -0.17155637497E+02 -0.12574653992E+02  0.60399230984E+02  0.64035185050E+02  0.00000000000E+00 0. -1.
        -11    1    4    4    0    0 -0.71066460695E+02 -0.10558459548E+03  0.45106208561E+03  0.46867425118E+03  0.00000000000E+00 0. -1.
         11    1    4    4    0    0  0.35761636102E+02 -0.68700978857E+02  0.28218594018E+03  0.29262198131E+03  0.00000000000E+00 0.  1.
         -4    1    1    2    0  502  0.42970698830E+02  0.10226984884E+03  0.47974297781E+02  0.12085998588E+03  0.00000000000E+00 0.  1.
<scales pt_clust_5="13000.00000" pt_clust_6="13000.00000" pt_clust_7="13000.00000" pt_clust_8="13000.00000" pt_clust_9="158.75036"></scales>
<clustering>
<clus scale="   80.858">  5  6 -1 -1</clus>
<clus scale="  101.476">  7  8 -1 -1</clus>
<clus scale="  108.550">  2  5  1 -1</clus>
<clus scale="  158.750">  1  9  2 -1</clus>
<clus scale="  158.750">  1  5  2 -1</clus>
</clustering>
</event>
<event>
 9    2  0.3764910E-005  0.9602097E+02  0.7546771E-02  0.1295902E+00
         21   -1    0    0  501  502  0.00000000000E+00  0.00000000000E+00  0.18440727741E+02  0.18440727741E+02  0.00000000000E+00 0. -1.
         -1   -1    0    0    0  501 -0.00000000000E+00 -0.00000000000E+00 -0.64434229601E+03  0.64434229601E+03  0.00000000000E+00 0.  1.
         24    2    1    2    0    0 -0.35103085137E+02 -0.49802905492E+01 -0.32168796564E+03  0.33318557832E+03  0.79198816165E+02 0.  0.
         23    2    1    2    0    0  0.14000943943E+02  0.63915394538E+01 -0.17001807885E+03  0.19374557541E+03  0.91620536164E+02 0.  0.
        -13    1    3    3    0    0 -0.45475892461E+02 -0.22836166033E+02 -0.11867599957E+03  0.12912606301E+03  0.00000000000E+00 0.  1.
         14    1    3    3    0    0  0.10372807324E+02  0.17855875484E+02 -0.20301196607E+03  0.20405951531E+03  0.00000000000E+00 0. -1.
        -11    1    4    4    0    0 -0.23025461159E+02  0.16453819530E+02 -0.11328673843E+02  0.30483419915E+02  0.00000000000E+00 0. -1.
         11    1    4    4    0    0  0.37026405101E+02 -0.10062280076E+02 -0.15868940501E+03  0.16326215550E+03  0.00000000000E+00 0.  1.
         -2    1    1    2    0  502  0.21102141195E+02 -0.14112489046E+01 -0.13419552378E+03  0.13585187002E+03  0.00000000000E+00 0.  1.
<scales pt_clust_5="13000.00000" pt_clust_6="13000.00000" pt_clust_7="13000.00000" pt_clust_8="13000.00000" pt_clust_9="21.14929"></scales>
<clustering>
<clus scale="   21.149">  1  9  2 -1</clus>
<clus scale="   79.199">  5  6 -1 -1</clus>
<clus scale="   84.251">  2  5  1 -1</clus>
<clus scale="   91.621">  7  8 -1 -1</clus>
<clus scale="   21.149">  1  5  2 -1</clus>
</clustering>
</event>
<event>
 9    2  0.3764910E-005  0.9147922E+02  0.7546771E-02  0.1304506E+00
         21   -1    0    0  501  502  0.00000000000E+00  0.00000000000E+00  0.10937213868E+03  0.10937213868E+03  0.00000000000E+00 0. -1.
         -1   -1    0    0    0  501 -0.00000000000E+00 -0.00000000000E+00 -0.17413054710E+03  0.17413054710E+03  0.00000000000E+00 0.  1.
         24    2    1    2    0    0 -0.44694942530E+02 -0.12535923975E+02  0.26136856749E+01  0.92602519506E+02  0.80085004765E+02 0.  0.
         23    2    1    2    0    0 -0.92455333280E+01  0.95572676903E+01  0.16433379997E+02  0.91191566761E+02  0.88707522894E+02 0.  0.
        -11    1    3    3    0    0 -0.34469560197E+02 -0.43276954723E+02  0.15931657396E+02  0.57574847786E+02  0.00000000000E+00 0.  1.
         12    1    3    3    0    0 -0.10225382334E+02  0.30741030747E+02 -0.13317971722E+02  0.35027671719E+02  0.00000000000E+00 0. -1.
        -13    1    4    4    0    0 -0.45319771012E+02 -0.82355090138E+01 -0.37005162296E+01  0.46210378420E+02  0.00000000000E+00 0.  1.
         13    1    4    4    0    0  0.36074237684E+02  0.17792776704E+02  0.20133896226E+02  0.44981188341E+02  0.00000000000E+00 0. -1.
         -2    1    1    2    0  502  0.53940475858E+02  0.29786562852E+01 -0.83805474096E+02  0.99708599516E+02  0.00000000000E+00 0.  1.
<scales pt_clust_5="13000.00000" pt_clust_6="13000.00000" pt_clust_7="13000.00000" pt_clust_8="13000.00000" pt_clust_9="54.02268"></scales>
<clustering>
<clus scale="   54.023">  1  9  2 -1</clus>
<clus scale="   80.085">  5  6 -1 -1</clus>
<clus scale="   83.145">  2  5  1 -1</clus>
<clus scale="   88.708">  7  8 -1 -1</clus>
<clus scale="   54.023">  1  5  2 -1</clus>
</clustering>
</event>
<event>
 9    2  0.3764910E-005  0.2309459E+03  0.7546771E-02  0.1126543E+00
          2   -1    0    0  502    0 -0.00000000000E+00  0.00000000000E+00  0.88272524140E+03  0.88272524140E+03  0.00000000000E+00 0. -1.
         21   -1    0    0  501  502  0.00000000000E+00 -0.00000000000E+00 -0.11460001043E+03  0.11460001043E+03  0.00000000000E+00 0. -1.
         23    2    1    2    0    0 -0.18623260829E+03  0.13875397119E+03  0.66944109369E+03  0.71231907789E+03  0.72882383946E+02 0.  0.
         24    2    1    2    0    0  0.11014674217E+03 -0.13100032431E+03  0.81055089769E+02  0.20652075250E+03  0.82386308665E+02 0.  0.
        -11    1    4    4    0    0  0.26770088109E+02 -0.89078803022E+02  0.60506944862E+02  0.11096288182E+03  0.00000000000E+00 0.  1.
         12    1    4    4    0    0  0.83376654061E+02 -0.41921521285E+02  0.20548144907E+02  0.95557870677E+02  0.00000000000E+00 0. -1.
        -13    1    3    3    0    0 -0.11754008641E+03  0.12814736422E+03  0.47511544297E+03  0.50593685675E+03  0.00000000000E+00 0. -1.
         13    1    3    3    0    0 -0.68692521886E+02  0.10606606973E+02  0.19432565072E+03  0.20638222114E+03  0.00000000000E+00 0.  1.
          1    1    1    2  501    0  0.76085866125E+02 -0.77536468823E+01  0.17629047511E+02  0.78485421449E+02  0.00000000000E+00 0. -1.
<scales pt_clust_5="13000.00000" pt_clust_6="13000.00000" pt_clust_7="13000.00000" pt_clust_8="13000.00000" pt_clust_9="76.47992"></scales>
<clustering>
<clus scale="   72.882">  7  8 -1 -1</clus>
<clus scale="   76.480">  2  9  1 -1</clus>
<clus scale="   82.386">  5  6 -1 -1</clus>
<clus scale="  227.729">  1  7  2 -1</clus>
<clus scale="   76.480">  2  5  1 -1</clus>
</clustering>
</event>
<event>
 9    2  0.3764910E-005  0.2010726E+03  0.7546771E-02  0.1149687E+00
         21   -1    0    0  501  502  0.00000000000E+00  0.00000000000E+00  0.19831913855E+03  0.19831913855E+03  0.00000000000E+00 0.  1.
         -1   -1    0    0    0  501 -0.00000000000E+00 -0.00000000000E+00 -0.38199105137E+03  0.38199105137E+03  0.00000000000E+00 0.  1.
         24    2    1    2    0    0 -0.57035832678E+02  0.22846504177E+03 -0.15149068742E+03  0.29123584203E+03  0.80121943246E+02 0.  0.
         23    2    1    2    0    0 -0.20099925850E+02 -0.12293310249E+03  0.39342096526E+01  0.15346004149E+03  0.89543015484E+02 0.  0.
        -13    1    3    3    0    0 -0.75430072067E+02  0.14820281985E+03 -0.97466270353E+02  0.19275229037E+03  0.00000000000E+00 0.  1.
         14    1    3    3    0    0  0.18394239389E+02  0.80262221911E+02 -0.54024417062E+02  0.98483551661E+02  0.00000000000E+00 0. -1.
        -13    1    4    4    0    0  0.88413649907E+01 -0.55092107186E+02  0.42584058135E+02  0.70190540790E+02  0.00000000000E+00 0. -1.
         13    1    4    4    0    0 -0.28941290841E+02 -0.67840995302E+02 -0.38649848483E+02  0.83269500700E+02  0.00000000000E+00 0.  1.
         -2    1    1    2    0  502  0.77135758528E+02 -0.10553193928E+03 -0.36115435059E+02  0.13561430640E+03  0.00000000000E+00 0.  1.
<scales pt_clust_5="13000.00000" pt_clust_6="13000.00000" pt_clust_7="13000.00000" pt_clust_8="13000.00000" pt_clust_9="130.71693"></scales>
<clustering>
<clus scale="   80.122">  5  6 -1 -1</clus>
<clus scale="   89.543">  7  8 -1 -1</clus>
<clus scale="  130.717">  1  9  2 -1</clus>
<clus scale="  197.058">  2  5  1 -1</clus>
<clus scale="  130.717">  1  5  2 -1</clus>
</clustering>
</event>
<event>
 9    2  0.3764910E-005  0.1411824E+03  0.7546771E-02  0.1218493E+00
         21   -1    0    0  501  502  0.00000000000E+00  0.00000000000E+00  0.11139960704E+03  0.11139960704E+03  0.00000000000E+00 0. -1.
          2   -1    0    0  502    0 -0.00000000000E+00 -0.00000000000E+00 -0.57137987773E+03  0.57137987773E+03  0.00000000000E+00 0. -1.
         24    2    1    2    0    0 -0.81327987700E+02 -0.43626074989E+02 -0.43972138309E+03  0.46142902744E+03  0.10509222906E+03 0.  0.
         23    2    1    2    0    0  0.97904724022E+02  0.55306606831E+02  0.51905645549E+02  0.14639084917E+03  0.78050809968E+02 0.  0.
        -11    1    3    3    0    0 -0.10518179801E+02  0.21859721253E+02 -0.22103514100E+02  0.32818361555E+02  0.00000000000E+00 0.  1.
         12    1    3    3    0    0 -0.70809807899E+02 -0.65485796242E+02 -0.41761786899E+03  0.42861066588E+03  0.00000000000E+00 0. -1.
        -13    1    4    4    0    0  0.11845867393E+02  0.21039442020E+02  0.47938451204E+02  0.53675672316E+02  0.00000000000E+00 0.  1.
         13    1    4    4    0    0  0.86058856630E+02  0.34267164811E+02  0.39671943454E+01  0.92715176856E+02  0.00000000000E+00 0. -1.
          1    1    1    2  501    0 -0.16576736323E+02 -0.11680531842E+02 -0.72164533151E+02  0.74959608164E+02  0.00000000000E+00 0. -1.
<scales pt_clust_5="13000.00000" pt_clust_6="13000.00000" pt_clust_7="13000.00000" pt_clust_8="13000.00000" pt_clust_9="20.27864"></scales>
<clustering>
<clus scale="   20.279">  1  9  2 -1</clus>
<clus scale="   78.051">  7  8 -1 -1</clus>
<clus scale="  105.092">  5  6 -1 -1</clus>
<clus scale="  122.393">  1  7  2 -1</clus>
<clus scale="   20.279">  1  5  2 -1</clus>
</clustering>
</event>
<event>
 9    2  0.3764910E-005  0.1089990E+03  0.7546771E-02  0.1267943E+00
         21   -1    0    0  501  502  0.00000000000E+00  0.00000000000E+00  0.79984717585E+02  0.79984717585E+02  0.00000000000E+00 0. -1.
          2   -1    0    0  502    0 -0.00000000000E+00 -0.00000000000E+00 -0.77047372033E+03  0.77047372033E+03  0.00000000000E+00 0. -1.
         24    2    1    2    0    0  0.60172257259E+01  0.64742181004E+02 -0.51880084331E+03  0.52905841076E+03  0.80751036969E+02 0.  0.
         23    2    1    2    0    0 -0.55143683949E+02 -0.17921248889E+02 -0.21445583213E+03  0.24118355497E+03  0.93894654879E+02 0.  0.
        -13    1    3    3    0    0 -0.31547399304E+02  0.39231627068E+02 -0.16948579226E+03  0.17680439119E+03  0.00000000000E+00 0.  1.
         14    1    3    3    0    0  0.37564625030E+02  0.25510553936E+02 -0.34931505105E+03  0.35225401957E+03  0.00000000000E+00 0. -1.
        -13    1    4    4    0    0 -0.36206576301E+01 -0.40879171388E+02 -0.15008920111E+03  0.15559879210E+03  0.00000000000E+00 0.  1.
         13    1    4    4    0    0 -0.51523026319E+02  0.22957922499E+02 -0.64366631019E+02  0.85584762868E+02  0.00000000000E+00 0. -1.
          1    1    1    2  501    0  0.49126458223E+02 -0.46820932115E+02  0.42767672693E+02  0.80216472181E+02  0.00000000000E+00 0. -1.
<scales pt_clust_5="13000.00000" pt_clust_6="13000.00000" pt_clust_7="13000.00000" pt_clust_8="13000.00000" pt_clust_9="67.86463"></scales>
<clustering>
<clus scale="   67.865">  1  9  2 -1</clus>
<clus scale="   80.751">  5  6 -1 -1</clus>
<clus scale="   93.895">  7  8 -1 -1</clus>
<clus scale="   97.905">  2  5  1 -1</clus>
<clus scale="   67.865">  1  5  2 -1</clus>
</clustering>
</event>
<event>
 9    2  0.3764910E-005  0.3602537E+03  0.7546771E-02  0.1105681E+00
          2   -1    0    0  502    0 -0.00000000000E+00  0.00000000000E+00  0.13997186794E+04  0.13997186794E+04  0.00000000000E+00 0. -1.
         21   -1    0    0  501  502  0.00000000000E+00 -0.00000000000E+00 -0.14026358646E+03  0.14026358646E+03  0.00000000000E+00 0. -1.
         23    2    1    2    0    0  0.97072129477E+01 -0.41879005756E+02  0.88308022812E+02  0.13451799686E+03  0.91916829146E+02 0.  0.
         24    2    1    2    0    0 -0.34659847536E+03  0.85312663514E+02  0.30926531403E+03  0.47906135082E+03  0.80286921163E+02 0.  0.
        -11    1    4    4    0    0 -0.17706102875E+02 -0.10030018105E+02  0.34357864798E+02  0.39932070015E+02  0.00000000000E+00 0.  1.
         12    1    4    4    0    0 -0.32889237249E+03  0.95342681619E+02  0.27490744923E+03  0.43912928081E+03  0.00000000000E+00 0. -1.
        -13    1    3    3    0    0 -0.25878157384E+02  0.18066076446E+02  0.23666725835E+02  0.39448397426E+02  0.00000000000E+00 0.  1.
         13    1    3    3    0    0  0.35585370332E+02 -0.59945082202E+02  0.64641296978E+02  0.95069599435E+02  0.00000000000E+00 0. -1.
          1    1    1    2  501    0  0.33689126242E+03 -0.43433657758E+02  0.86188175612E+03  0.92640291820E+03  0.00000000000E+00 0. -1.
<scales pt_clust_5="13000.00000" pt_clust_6="13000.00000" pt_clust_7="13000.00000" pt_clust_8="13000.00000" pt_clust_9="351.19348"></scales>
<clustering>
<clus scale="   80.287">  5  6 -1 -1</clus>
<clus scale="   91.917">  7  8 -1 -1</clus>
<clus scale="  101.473">  1  7  2 -1</clus>
<clus scale="  351.193">  2  9  1 -1</clus>
<clus scale="  351.193">  2  5  1 -1</clus>
</clustering>
</event>
<event>
 9    2  0.3764910E-005  0.1021134E+03  0.7546771E-02  0.1281289E+00
          2   -1    0    0  502    0 -0.00000000000E+00  0.00000000000E+00  0.34405308654E+03  0.34405308654E+03  0.00000000000E+00 0. -1.
         21   -1    0    0  501  502  0.00000000000E+00 -0.00000000000E+00 -0.13496380480E+03  0.13496380480E+03  0.00000000000E+00 0. -1.
         23    2    1    2    0    0 -0.37622345952E+02 -0.33489534141E+02  0.25080728381E+03  0.27181311858E+03  0.91875393927E+02 0.  0.
         24    2    1    2    0    0  0.12219771138E+02 -0.34690701583E+02 -0.84767714857E+02  0.12266317232E+03  0.80671685115E+02 0.  0.
        -11    1    4    4    0    0  0.20713766567E+02 -0.43145763488E+02 -0.12578295444E+02  0.49485660030E+02  0.00000000000E+00 0.  1.
         12    1    4    4    0    0 -0.84939954291E+01  0.84550619051E+01 -0.72189419413E+02  0.73177512293E+02  0.00000000000E+00 0. -1.
        -13    1    3    3    0    0 -0.37042474036E+02  0.25493671113E+02  0.91910951593E+02  0.10232152839E+03  0.00000000000E+00 0.  1.
         13    1    3    3    0    0 -0.57987191606E+00 -0.58983205254E+02  0.15889633222E+03  0.16949159019E+03  0.00000000000E+00 0. -1.
          1    1    1    2  501    0  0.25402574814E+02  0.68180235724E+02  0.43049712787E+02  0.84540600433E+02  0.00000000000E+00 0. -1.
<scales pt_clust_5="13000.00000" pt_clust_6="13000.00000" pt_clust_7="13000.00000" pt_clust_8="13000.00000" pt_clust_9="72.75878"></scales>
<clustering>
<clus scale="   72.759">  2  9  1 -1</clus>
<clus scale="   80.672">  5  6 -1 -1</clus>
<clus scale="   91.875">  7  8 -1 -1</clus>
<clus scale="   92.163">  2  5  1 -1</clus>
<clus scale="   72.759">  2  5  1 -1</clus>
</clustering>
</event>
<event>
 9    2  0.3764910E-005  0.2125916E+03  0.7546771E-02  0.1149812E+00
         21   -1    0    0  501  502  0.00000000000E+00  0.00000000000E+00  0.13669742097E+03  0.13669742097E+03  0.00000000000E+00 0. -1.
          2   -1    0    0  502    0 -0.00000000000E+00 -0.00000000000E+00 -0.90902894500E+03  0.90902894500E+03  0.00000000000E+00 0. -1.
         23    2    1    2    0    0 -0.93323299989E+02 -0.10219856793E+03 -0.40631821225E+03  0.43900972565E+03  0.92093778284E+02 0.  0.
         24    2    1    2    0    0  0.21092303553E+03 -0.44447682007E+02 -0.42322911043E+02  0.23240354150E+03  0.75868662509E+02 0.  0.
        -13    1    4    4    0    0  0.88235096324E+01 -0.22002696723E+02  0.34983291765E+01  0.23962706282E+02  0.00000000000E+00 0.  1.
         14    1    4    4    0    0  0.20209952590E+03 -0.22444985285E+02 -0.45821240220E+02  0.20844083522E+03  0.00000000000E+00 0. -1.
        -13    1    3    3    0    0 -0.49006263959E+02  0.16237274243E+01 -0.17305336299E+03  0.17986583011E+03  0.00000000000E+00 0.  1.
         13    1    3    3    0    0 -0.44317036030E+02 -0.10382229535E+03 -0.23326484926E+03  0.25914389554E+03  0.00000000000E+00 0. -1.
          1    1    1    2  501    0 -0.11759973554E+03  0.14664624994E+03 -0.32369040074E+03  0.37431309882E+03  0.00000000000E+00 0. -1.
<scales pt_clust_5="13000.00000" pt_clust_6="13000.00000" pt_clust_7="13000.00000" pt_clust_8="13000.00000" pt_clust_9="198.59300"></scales>
<clustering>
<clus scale="   75.869">  5  6 -1 -1</clus>
<clus scale="   92.094">  7  8 -1 -1</clus>
<clus scale="  166.238">  2  7  1 -1</clus>
<clus scale="  198.593">  1  9  2 -1</clus>
<clus scale="  198.593">  1  5  2 -1</clus>
</clustering>
</event>
<event>
 9    2  0.3764910E-005  0.1100883E+03  0.7546771E-02  0.1266152E+00
         21   -1    0    0  501  502  0.00000000000E+00  0.00000000000E+00  0.12324595759E+03  0.12324595759E+03  0.00000000000E+00 0.  1.
          2   -1    0    0  502    0 -0.00000000000E+00 -0.00000000000E+00 -0.20442569635E+03  0.20442569635E+03  0.00000000000E+00 0. -1.
         23    2    1    2    0    0  0.43005029861E+02 -0.45903292088E+02 -0.14687558411E+03  0.18438448052E+03  0.92025293444E+02 0.  0.
         24    2    1    2    0    0 -0.12776260113E+02  0.54434784551E+02  0.53197159975E+02  0.10948211433E+03  0.77653183691E+02 0.  0.
        -11    1    4    4    0    0  0.12014536433E+02  0.59981358534E+02  0.57218640961E+02  0.83762075731E+02  0.00000000000E+00 0.  1.
         12    1    4    4    0    0 -0.24790796545E+02 -0.55465739829E+01 -0.40214809859E+01  0.25720038601E+02  0.00000000000E+00 0. -1.
        -11    1    3    3    0    0  0.11144611333E+02 -0.44244243181E+02 -0.14546174792E+03  0.15244958355E+03  0.00000000000E+00 0. -1.
         11    1    3    3    0    0  0.31860418527E+02 -0.16590489064E+01 -0.14138361874E+01  0.31934896975E+02  0.00000000000E+00 0.  1.
          1    1    1    2  501    0 -0.30228769748E+02 -0.85314924634E+01  0.12498685365E+02  0.33805059088E+02  0.00000000000E+00 0. -1.
<scales pt_clust_5="13000.00000" pt_clust_6="13000.00000" pt_clust_7="13000.00000" pt_clust_8="13000.00000" pt_clust_9="31.40963"></scales>
<clustering>
<clus scale="   31.410">  1  9  2 -1</clus>
<clus scale="   77.653">  5  6 -1 -1</clus>
<clus scale="   92.025">  7  8 -1 -1</clus>
<clus scale="   98.391">  1  5  2 -1</clus>
<clus scale="   31.410">  1  5  2 -1</clus>
</clustering>
</event>
<event>
 9    2  0.3764910E-005  0.9561970E+02  0.7546771E-02  0.1296395E+00
         -1   -1    0    0    0  501 -0.00000000000E+00  0.00000000000E+00  0.30575047847E+03  0.30575047847E+03  0.00000000000E+00 0.  1.
         21   -1    0    0  501  502  0.00000000000E+00 -0.00000000000E+00 -0.93204636475E+02  0.93204636475E+02  0.00000000000E+00 0. -1.
         24    2    1    2    0    0  0.31578540275E+02  0.11109204249E+02  0.20987319694E+03  0.22743538685E+03  0.80990603017E+02 0.  0.
         23    2    1    2    0    0  0.26309071109E+01  0.33732597212E+01  0.54733452410E+02  0.10756383927E+03  0.92498260265E+02 0.  0.
        -11    1    3    3    0    0  0.19730041267E+02  0.38810157619E+02  0.17930567518E+03  0.18451565791E+03  0.00000000000E+00 0.  1.
         12    1    3    3    0    0  0.11848499008E+02 -0.27700953369E+02  0.30567521755E+02  0.42919728943E+02  0.00000000000E+00 0. -1.
        -11    1    4    4    0    0 -0.26846765378E+02  0.31292517877E+02  0.52699862811E+02  0.66912226287E+02  0.00000000000E+00 0.  1.
         11    1    4    4    0    0  0.29477672489E+02 -0.27919258156E+02  0.20335895994E+01  0.40651612982E+02  0.00000000000E+00 0. -1.
         -2    1    1    2    0  502 -0.34209447386E+02 -0.14482463970E+02 -0.52060807350E+02  0.63955888822E+02  0.00000000000E+00 0.  1.
<scales pt_clust_5="13000.00000" pt_clust_6="13000.00000" pt_clust_7="13000.00000" pt_clust_8="13000.00000" pt_clust_9="37.14873"></scales>
<clustering>
<clus scale="   37.149">  2  9  1 -1</clus>
<clus scale="   80.991">  5  6 -1 -1</clus>
<clus scale="   84.538">  1  5  2 -1</clus>
<clus scale="   92.498">  7  8 -1 -1</clus>
<clus scale="   37.149">  2  5  1 -1</clus>
</clustering>
</event>
<event>
 9    2  0.3764910E-005  0.1283330E+03  0.7546771E-02  0.1233321E+00
         21   -1    0    0  501  502  0.00000000000E+00  0.00000000000E+00  0.61112163789E+02  0.61112163789E+02  0.00000000000E+00 0. -1.
          2   -1    0    0  502    0 -0.00000000000E+00 -0.00000000000E+00 -0.59819175367E+03  0.59819175367E+03  0.00000000000E+00 0. -1.
         24    2    1    2    0    0 -0.10299926475E+03  0.35328356467E+02 -0.35815236880E+03  0.38282668609E+03  0.80163651339E+02 0.  0.
         23    2    1    2    0    0  0.62561796601E+02 -0.16902588954E+02 -0.19812814737E+03  0.22806883014E+03  0.92525415939E+02 0.  0.
        -11    1    3    3    0    0 -0.38017192178E+02  0.34247902399E+02 -0.65887434858E+02  0.83422897288E+02  0.00000000000E+00 0.  1.
         12    1    3    3    0    0 -0.64982072573E+02  0.10804540681E+01 -0.29226493394E+03  0.29940378880E+03  0.00000000000E+00 0. -1.
        -13    1    4    4    0    0  0.44448755528E+01  0.28016563148E+02 -0.10870797602E+03  0.11234815878E+03  0.00000000000E+00 0.  1.
         13    1    4    4    0    0  0.58116921048E+02 -0.44919152102E+02 -0.89420171349E+02  0.11572067137E+03  0.00000000000E+00 0. -1.
          1    1    1    2  501    0  0.40437468150E+02 -0.18425767513E+02  0.19200926291E+02  0.48408401226E+02  0.00000000000E+00 0. -1.
<scales pt_clust_5="13000.00000" pt_clust_6="13000.00000" pt_clust_7="13000.00000" pt_clust_8="13000.00000" pt_clust_9="44.43757"></scales>
<clustering>
<clus scale="   44.438">  1  9  2 -1</clus>
<clus scale="   80.164">  5  6 -1 -1</clus>
<clus scale="   92.525">  7  8 -1 -1</clus>
<clus scale="  119.727">  2  5  1 -1</clus>
<clus scale="   44.438">  1  5  2 -1</clus>
</clustering>
</event>
<event>
 9    2  0.3764910E-005  0.2229854E+03  0.7546771E-02  0.1132198E+00
          2   -1    0    0  502    0 -0.00000000000E+00  0.00000000000E+00  0.96740817234E+03  0.96740817234E+03  0.00000000000E+00 0. -1.
         21   -1    0    0  501  502  0.00000000000E+00 -0.00000000000E+00 -0.77180568703E+02  0.77180568703E+02  0.00000000000E+00 0.  1.
         24    2    1    2    0    0 -0.57471145511E+02 -0.19227975927E+03  0.57984219637E+03  0.61921993317E+03  0.83318152624E+02 0.  0.
         23    2    1    2    0    0  0.91992709178E+02  0.19035189384E+03  0.31549228180E+03  0.39041834020E+03  0.90524021422E+02 0.  0.
        -11    1    3    3    0    0  0.12097011063E+02 -0.54667859324E+02  0.93123016701E+02  0.10865914025E+03  0.00000000000E+00 0.  1.
         12    1    3    3    0    0 -0.69568156574E+02 -0.13761189994E+03  0.48671917967E+03  0.51056079293E+03  0.00000000000E+00 0. -1.
        -11    1    4    4    0    0  0.61791307708E+02  0.18098575543E+03  0.29853515227E+03  0.35453807485E+03  0.00000000000E+00 0.  1.
         11    1    4    4    0    0  0.30201401470E+02  0.93661384109E+01  0.16957129534E+02  0.35880265349E+02  0.00000000000E+00 0. -1.
          1    1    1    2  501    0 -0.34521563666E+02  0.19278654241E+01 -0.51068745352E+01  0.34950467673E+02  0.00000000000E+00 0. -1.
<scales pt_clust_5="13000.00000" pt_clust_6="13000.00000" pt_clust_7="13000.00000" pt_clust_8="13000.00000" pt_clust_9="34.57535"></scales>
<clustering>
<clus scale="   34.575">  2  9  1 -1</clus>
<clus scale="   83.318">  5  6 -1 -1</clus>
<clus scale="   90.524">  7  8 -1 -1</clus>
<clus scale="  220.159">  1  5  2 -1</clus>
<clus scale="   34.575">  2  5  1 -1</clus>
</clustering>
</event>
<event>
 9    2  0.3764910E-005  0.1650148E+03  0.7546771E-02  0.1183387E+00
         21   -1    0    0  501  502  0.00000000000E+00  0.00000000000E+00  0.35221780227E+02  0.35221780227E+02  0.00000000000E+00 0. -1.
          2   -1    0    0  502    0 -0.00000000000E+00 -0.00000000000E+00 -0.12361815524E+04  0.12361815524E+04  0.00000000000E+00 0. -1.
         23    2    1    2    0    0  0.72887550544E+02 -0.92392429194E+02 -0.40389525455E+03  0.43032507796E+03  0.90550207505E+02 0.  0.
         24    2    1    2    0    0 -0.40050172748E+02  0.16328437777E+03 -0.57898811654E+03  0.60942921308E+03  0.88943365727E+02 0.  0.
        -13    1    4    4    0    0 -0.58875944179E+02  0.11704158574E+03 -0.32195679127E+03  0.34759356300E+03  0.00000000000E+00 0.  1.
         14    1    4    4    0    0  0.18825771431E+02  0.46242792031E+02 -0.25703132527E+03  0.26183565008E+03  0.00000000000E+00 0. -1.
        -11    1    3    3    0    0  0.93506978149E+02 -0.72458488156E+02 -0.34700535639E+03  0.36661492718E+03  0.00000000000E+00 0. -1.
         11    1    3    3    0    0 -0.20619427605E+02 -0.19933941038E+02 -0.56889898161E+02  0.63710150783E+02  0.00000000000E+00 0.  1.
          1    1    1    2  501    0 -0.32837377797E+02 -0.70891948579E+02 -0.21807640108E+03  0.23164904158E+03  0.00000000000E+00 0. -1.
<scales pt_clust_5="13000.00000" pt_clust_6="13000.00000" pt_clust_7="13000.00000" pt_clust_8="13000.00000" pt_clust_9="78.12786"></scales>
<clustering>
<clus scale="   78.128">  1  9  2 -1</clus>
<clus scale="   88.943">  5  6 -1 -1</clus>
<clus scale="   90.550">  7  8 -1 -1</clus>
<clus scale="  164.139">  1  5  2 -1</clus>
<clus scale="   78.128">  1  5  2 -1</clus>
</clustering>
</event>
<event>
 9    2  0.3764910E-005  0.1987636E+03  0.7546771E-02  0.1151918E+00
         21   -1    0    0  501  502  0.00000000000E+00  0.00000000000E+00  0.13643868485E+03  0.13643868485E+03  0.00000000000E+00 0. -1.
          2   -1    0    0  502    0 -0.00000000000E+00 -0.00000000000E+00 -0.86743778015E+03  0.86743778015E+03  0.00000000000E+00 0. -1.
         24    2    1    2    0    0 -0.13748244121E+03 -0.61798239001E+02 -0.43189836089E+03  0.46430023208E+03  0.79486271680E+02 0.  0.
         23    2    1    2    0    0  0.24637794039E+03  0.68831368404E+02 -0.32875777404E+03  0.42649557740E+03  0.91525716369E+02 0.  0.
        -11    1    3    3    0    0 -0.14519066719E+03 -0.48403552259E+02 -0.40879109287E+03  0.43650130735E+03  0.00000000000E+00 0.  1.
         12    1    3    3    0    0  0.77082259809E+01 -0.13394686742E+02 -0.23107268023E+02  0.27798924731E+02  0.00000000000E+00 0. -1.
        -13    1    4    4    0    0  0.18354460607E+03  0.35986218077E+02 -0.17052900518E+03  0.25310822175E+03  0.00000000000E+00 0. -1.
         13    1    4    4    0    0  0.62833334319E+02  0.32845150327E+02 -0.15822876887E+03  0.17338735565E+03  0.00000000000E+00 0.  1.
          1    1    1    2  501    0 -0.10889549919E+03 -0.70331294029E+01  0.29657039640E+02  0.11308065552E+03  0.00000000000E+00 0. -1.
<scales pt_clust_5="13000.00000" pt_clust_6="13000.00000" pt_clust_7="13000.00000" pt_clust_8="13000.00000" pt_clust_9="109.12238"></scales>
<clustering>
<clus scale="   79.486">  5  6 -1 -1</clus>
<clus scale="   91.526">  7  8 -1 -1</clus>
<clus scale="  109.122">  1  9  2 -1</clus>
<clus scale="  193.515">  2  5  1 -1</clus>
<clus scale="  109.122">  1  5  2 -1</clus>
</clustering>
</event>
<event>
 9    2  0.3764910E-005  0.1171921E+03  0.7546771E-02  0.1261099E+00
         -1   -1    0    0    0  501 -0.00000000000E+00  0.00000000000E+00  0.12726259629E+03  0.12726259629E+03  0.00000000000E+00 0.  1.
         21   -1    0    0  501  502  0.00000000000E+00 -0.00000000000E+00 -0.13140608265E+03  0.13140608265E+03  0.00000000000E+00 0. -1.
         23    2    1    2    0    0 -0.32628239529E+02  0.12364380001E+01  0.50148009764E+02  0.12519331343E+03  0.10996550391E+03 0.  0.
         24    2    1    2    0    0  0.56058200591E+02 -0.52742555308E+01 -0.43041176303E+02  0.10717257590E+03  0.80393274232E+02 0.  0.
        -11    1    4    4    0    0 -0.20205163044E+02  0.16953437293E+01 -0.22375807041E+01  0.20399254187E+02  0.00000000000E+00 0.  1.
         12    1    4    4    0    0  0.76263363634E+02 -0.69695992601E+01 -0.40803595599E+02  0.86773321709E+02  0.00000000000E+00 0. -1.
        -13    1    3    3    0    0 -0.27572204578E+02 -0.51871848392E+02  0.12944749705E+02  0.60153816719E+02  0.00000000000E+00 0.  1.
         13    1    3    3    0    0 -0.50560349510E+01  0.53108286392E+02  0.37203260059E+02  0.65039496708E+02  0.00000000000E+00 0. -1.
         -2    1    1    2    0  502 -0.23429961061E+02  0.40378175307E+01 -0.11250319820E+02  0.26302789620E+02  0.00000000000E+00 0.  1.
<scales pt_clust_5="13000.00000" pt_clust_6="13000.00000" pt_clust_7="13000.00000" pt_clust_8="13000.00000" pt_clust_9="23.77535"></scales>
<clustering>
<clus scale="   23.775">  2  9  1 -1</clus>
<clus scale="   80.393">  5  6 -1 -1</clus>
<clus scale="   90.026">  2  5  1 -1</clus>
<clus scale="  109.966">  7  8 -1 -1</clus>
<clus scale="   23.775">  2  5  1 -1</clus>
</clustering>
</event>
<event>
 9    2  0.3764910E-005  0.1579936E+03  0.7546771E-02  0.1213041E+00
         21   -1    0    0  501  502  0.00000000000E+00  0.00000000000E+00  0.10706595326E+03  0.10706595326E+03  0.00000000000E+00 0.  1.
         -3   -1    0    0    0  501 -0.00000000000E+00 -0.00000000000E+00 -0.41901613525E+03  0.41901613525E+03  0.00000000000E+00 0.  1.
         23    2    1    2    0    0  0.17205077037E+02  0.23407157178E+02 -0.43389852143E+02  0.10718144624E+03  0.93601674479E+02 0.  0.
         24    2    1    2    0    0 -0.14491012664E+03 -0.45878229412E+02 -0.22206621162E+03  0.28115002772E+03  0.81413629104E+02 0.  0.
        -13    1    4    4    0    0 -0.14667378722E+03 -0.36589248886E+02 -0.22516229235E+03  0.27120108939E+03  0.00000000000E+00 0.  1.
         14    1    4    4    0    0  0.17636605742E+01 -0.92889805259E+01  0.30960807332E+01  0.99489383222E+01  0.00000000000E+00 0. -1.
        -11    1    3    3    0    0 -0.17457281544E+02  0.35004562208E+02  0.11914110802E+02  0.40890366720E+02  0.00000000000E+00 0.  1.
         11    1    3    3    0    0  0.34662358581E+02 -0.11597405031E+02 -0.55303962945E+02  0.66291079515E+02  0.00000000000E+00 0. -1.
         -4    1    1    2    0  502  0.12770504960E+03  0.22471072234E+02 -0.46494118227E+02  0.13775061456E+03  0.00000000000E+00 0.  1.
<scales pt_clust_5="13000.00000" pt_clust_6="13000.00000" pt_clust_7="13000.00000" pt_clust_8="13000.00000" pt_clust_9="135.40236"></scales>
<clustering>
<clus scale="   81.414">  5  6 -1 -1</clus>
<clus scale="   93.602">  7  8 -1 -1</clus>
<clus scale="   98.006">  2  7  1 -1</clus>
<clus scale="  135.402">  1  9  2 -1</clus>
<clus scale="  135.402">  1  5  2 -1</clus>
</clustering>
</event>
<event>
 9    2  0.3764910E-005  0.1364877E+03  0.7546771E-02  0.1225567E+00
         21   -1    0    0  501  502  0.00000000000E+00  0.00000000000E+00  0.73808069611E+03  0.73808069611E+03  0.00000000000E+00 0.  1.
         -3   -1    0    0    0  501 -0.00000000000E+00 -0.00000000000E+00 -0.37257165952E+02  0.37257165952E+02  0.00000000000E+00 0.  1.
         23    2    1    2    0    0 -0.21869804718E+02  0.63585391347E+02  0.22559619295E+03  0.25883435127E+03  0.10761128552E+03 0.  0.
         24    2    1    2    0    0  0.23015886555E+01 -0.10098311362E+03  0.20184463259E+03  0.23988173310E+03  0.81234867030E+02 0.  0.
        -13    1    4    4    0    0 -0.22620240705E+02 -0.10203602926E+03  0.15801692149E+03  0.18945282799E+03  0.00000000000E+00 0.  1.
         14    1    4    4    0    0  0.24921829360E+02  0.10529156373E+01  0.43827711101E+02  0.50428905107E+02  0.00000000000E+00 0. -1.
        -11    1    3    3    0    0  0.89509428180E+01 -0.20657807607E+02  0.87285789494E+01  0.24146479722E+02  0.00000000000E+00 0.  1.
         11    1    3    3    0    0 -0.30820747536E+02  0.84243198954E+02  0.21686761400E+03  0.23468787154E+03  0.00000000000E+00 0. -1.
         -4    1    1    2    0  502  0.19568216062E+02  0.37397722275E+02  0.27338270462E+03  0.27662177770E+03  0.00000000000E+00 0.  1.
<scales pt_clust_5="13000.00000" pt_clust_6="13000.00000" pt_clust_7="13000.00000" pt_clust_8="13000.00000" pt_clust_9="42.20787"></scales>
<clustering>
<clus scale="   42.208">  1  9  2 -1</clus>
<clus scale="   81.235">  5  6 -1 -1</clus>
<clus scale="  107.611">  7  8 -1 -1</clus>
<clus scale="  116.824">  1  5  2 -1</clus>
<clus scale="   42.208">  1  5  2 -1</clus>
</clustering>
</event>
<event>
 9    2  0.3978295E-005  0.9962111E+02  0.7546771E-02  0.1286643E+00
         21   -1    0    0  501  502  0.00000000000E+00  0.00000000000E+00  0.25480220501E+03  0.25480220501E+03  0.00000000000E+00 0. -1.
         -1   -1    0    0    0  501 -0.00000000000E+00 -0.00000000000E+00 -0.24455079388E+03  0.24455079388E+03  0.00000000000E+00 0.  1.
         24    2    1    2    0    0 -0.38226485404E+02 -0.22942271103E+02 -0.19168842321E+03  0.21179690637E+03  0.78267911460E+02 0.  0.
         23    2    1    2    0    0 -0.64849837969E+01  0.60940847180E+02  0.20155523194E+03  0.22887768781E+03  0.89468668151E+02 0.  0.
        -11    1    3    3    0    0 -0.59756365485E+02 -0.17197036282E+01 -0.13098832322E+03  0.14398514304E+03  0.00000000000E+00 0.  1.
         12    1    3    3    0    0  0.21529880082E+02 -0.21222567475E+02 -0.60700099988E+02  0.67811763325E+02  0.00000000000E+00 0. -1.
        -11    1    4    4    0    0 -0.43247801215E+02  0.21179211716E+02  0.13341616470E+03  0.14184077101E+03  0.00000000000E+00 0. -1.
         11    1    4    4    0    0  0.36762817418E+02  0.39761635464E+02  0.68139067245E+02  0.87036916790E+02  0.00000000000E+00 0.  1.
         -2    1    1    2    0  502  0.44711469200E+02 -0.37998576077E+02  0.38460239833E+00  0.58678404724E+02  0.00000000000E+00 0.  1.
<scales pt_clust_5="13000.00000" pt_clust_6="13000.00000" pt_clust_7="13000.00000" pt_clust_8="13000.00000" pt_clust_9="58.67717"></scales>
<clustering>
<clus scale="   58.677">  1  9  2 -1</clus>
<clus scale="   78.268">  5  6 -1 -1</clus>
<clus scale="   89.469">  7  8 -1 -1</clus>
<clus scale="   89.697">  2  5  1 -1</clus>
<clus scale="   58.677">  1  5  2 -1</clus>
</clustering>
</event>
<event>
 9    2  0.3764910E-005  0.9460004E+02  0.7546771E-02  0.1297339E+00
          2   -1    0    0  502    0 -0.00000000000E+00  0.00000000000E+00  0.20929970631E+03  0.20929970631E+03  0.00000000000E+00 0. -1.
         21   -1    0    0  501  502  0.00000000000E+00 -0.00000000000E+00 -0.10847637810E+03  0.10847637810E+03  0.00000000000E+00 0.  1.
         24    2    1    2    0    0 -0.18042043489E+02  0.28153890664E+02  0.16273372141E+03  0.18454295752E+03  0.80347260041E+02 0.  0.
         23    2    1    2    0    0 -0.23442654933E+01 -0.11663286721E+02 -0.39445225050E+02  0.98704509876E+02  0.89694630011E+02 0.  0.
        -11    1    3    3    0    0  0.13536811204E+02 -0.22605048493E+02  0.62646585277E+02  0.67961960845E+02  0.00000000000E+00 0.  1.
         12    1    3    3    0    0 -0.31578854694E+02  0.50758939158E+02  0.10008713613E+03  0.11658099668E+03  0.00000000000E+00 0. -1.
        -13    1    4    4    0    0  0.40373980298E+02 -0.33262098324E+01 -0.82957632285E+00  0.40519256580E+02  0.00000000000E+00 0. -1.
         13    1    4    4    0    0 -0.42718245791E+02 -0.83370768881E+01 -0.38615648727E+02  0.58185253296E+02  0.00000000000E+00 0.  1.
          1    1    1    2  501    0  0.20386308982E+02 -0.16490603944E+02 -0.22465168147E+02  0.34528617005E+02  0.00000000000E+00 0. -1.
<scales pt_clust_5="13000.00000" pt_clust_6="13000.00000" pt_clust_7="13000.00000" pt_clust_8="13000.00000" pt_clust_9="26.22101"></scales>
<clustering>
<clus scale="   26.221">  2  9  1 -1</clus>
<clus scale="   80.347">  5  6 -1 -1</clus>
<clus scale="   85.789">  1  5  2 -1</clus>
<clus scale="   89.695">  7  8 -1 -1</clus>
<clus scale="   26.221">  2  5  1 -1</clus>
</clustering>
</event>
<event>
 9    2  0.3764910E-005  0.1534480E+03  0.7546771E-02  0.1197759E+00
          2   -1    0    0  502    0 -0.00000000000E+00  0.00000000000E+00  0.39120427422E+03  0.39120427422E+03  0.00000000000E+00 0. -1.
         21   -1    0    0  501  502  0.00000000000E+00 -0.00000000000E+00 -0.15866678967E+03  0.15866678967E+03  0.00000000000E+00 0.  1.
         23    2    1    2    0    0  0.35955437691E+02 -0.13422834173E+03  0.30062892563E+03  0.34256137234E+03  0.87524291911E+02 0.  0.
         24    2    1    2    0    0  0.18297249648E+02  0.74234564750E+02 -0.62274092323E+02  0.12621438400E+03  0.78781014242E+02 0.  0.
        -11    1    4    4    0    0 -0.13333137514E+02  0.41289399042E+02 -0.67502860568E+02  0.80244770634E+02  0.00000000000E+00 0.  1.
         12    1    4    4    0    0  0.31630387162E+02  0.32945165708E+02  0.52287682444E+01  0.45969613365E+02  0.00000000000E+00 0. -1.
        -11    1    3    3    0    0  0.37029469811E+02 -0.19081541540E+02  0.40567764636E+02  0.58146628359E+02  0.00000000000E+00 0.  1.
         11    1    3    3    0    0 -0.10740321195E+01 -0.11514680019E+03  0.26006116099E+03  0.28441474398E+03  0.00000000000E+00 0. -1.
          1    1    1    2  501    0 -0.54252687340E+02  0.59993776982E+02 -0.58173487596E+01  0.81095307551E+02  0.00000000000E+00 0. -1.
<scales pt_clust_5="13000.00000" pt_clust_6="13000.00000" pt_clust_7="13000.00000" pt_clust_8="13000.00000" pt_clust_9="80.88639"></scales>
<clustering>
<clus scale="   78.781">  5  6 -1 -1</clus>
<clus scale="   80.886">  2  9  1 -1</clus>
<clus scale="   87.524">  7  8 -1 -1</clus>
<clus scale="  148.635">  2  5  1 -1</clus>
<clus scale="   80.886">  2  5  1 -1</clus>
</clustering>
</event>
<event>
 9    2  0.3764910E-005  0.9559658E+02  0.7546771E-02  0.1297777E+00
         21   -1    0    0  501  502  0.00000000000E+00  0.00000000000E+00  0.72638530689E+02  0.72638530689E+02  0.00000000000E+00 0.  1.
         -1   -1    0    0    0  501 -0.00000000000E+00 -0.00000000000E+00 -0.27116879539E+03  0.27116879539E+03  0.00000000000E+00 0.  1.
         23    2    1    2    0    0 -0.20701088069E+02  0.87785822407E+01 -0.18432211599E+03  0.20694639013E+03  0.91359550093E+02 0.  0.
         24    2    1    2    0    0  0.25192547111E+02 -0.45987967436E+02 -0.26766835832E+02  0.97333323156E+02  0.77509707245E+02 0.  0.
        -11    1    4    4    0    0  0.70382842695E-03 -0.58516700627E+02 -0.24890317533E-01  0.58516705925E+02  0.00000000000E+00 0.  1.
         12    1    4    4    0    0  0.25191843283E+02  0.12528733191E+02 -0.26741945515E+02  0.38816617231E+02  0.00000000000E+00 0. -1.
        -11    1    3    3    0    0 -0.16300712112E+02 -0.40992993198E+02 -0.87512946546E+02  0.98003339330E+02  0.00000000000E+00 0.  1.
         11    1    3    3    0    0 -0.44003759574E+01  0.49771575438E+02 -0.96809169442E+02  0.10894305080E+03  0.00000000000E+00 0. -1.
         -2    1    1    2    0  502 -0.44914590415E+01  0.37209385195E+02  0.12558687117E+02  0.39527612792E+02  0.00000000000E+00 0.  1.
<scales pt_clust_5="13000.00000" pt_clust_6="13000.00000" pt_clust_7="13000.00000" pt_clust_8="13000.00000" pt_clust_9="37.47948"></scales>
<clustering>
<clus scale="   37.479">  1  9  2 -1</clus>
<clus scale="   77.510">  5  6 -1 -1</clus>
<clus scale="   82.461">  1  5  2 -1</clus>
<clus scale="   91.360">  7  8 -1 -1</clus>
<clus scale="   37.479">  1  5  2 -1</clus>
</clustering>
</event>
<event>
 9    2  0.3764910E-005  0.9554876E+02  0.7546771E-02  0.1296760E+00
         -1   -1    0    0    0  501 -0.00000000000E+00  0.00000000000E+00  0.10643437321E+03  0.10643437321E+03  0.00000000000E+00 0.  1.
         21   -1    0    0  501  502  0.00000000000E+00 -0.00000000000E+00 -0.21983460274E+03  0.21983460274E+03  0.00000000000E+00 0. -1.
         24    2    1    2    0    0  0.39811700303E+01 -0.27696340710E+02  0.56980063194E+02  0.10310826345E+03  0.81250534690E+02 0.  0.
         23    2    1    2    0    0  0.22660986031E+02 -0.11766121139E+02 -0.11723097394E+03  0.15180287857E+03  0.93000273100E+02 0.  0.
        -11    1    3    3    0    0 -0.58895222191E+01 -0.53516797997E+02  0.21128412835E+02  0.57837219580E+02  0.00000000000E+00 0.  1.
         12    1    3    3    0    0  0.98706922495E+01  0.25820457287E+02  0.35851650359E+02  0.45271043874E+02  0.00000000000E+00 0. -1.
        -13    1    4    4    0    0 -0.33727355261E+02 -0.19841916375E+01 -0.69514050327E+02  0.77289551054E+02  0.00000000000E+00 0.  1.
         13    1    4    4    0    0  0.56388341292E+02 -0.97819295011E+01 -0.47716923616E+02  0.74513327518E+02  0.00000000000E+00 0. -1.
         -2    1    1    2    0  502 -0.26642156062E+02  0.39462461848E+02 -0.53149318782E+02  0.71357833920E+02  0.00000000000E+00 0.  1.
<scales pt_clust_5="13000.00000" pt_clust_6="13000.00000" pt_clust_7="13000.00000" pt_clust_8="13000.00000" pt_clust_9="47.61397"></scales>
<clustering>
<clus scale="   47.614">  2  9  1 -1</clus>
<clus scale="   81.251">  5  6 -1 -1</clus>
<clus scale="   84.156">  1  5  2 -1</clus>
<clus scale="   93.000">  7  8 -1 -1</clus>
<clus scale="   47.614">  2  5  1 -1</clus>
</clustering>
</event>
<event>
 9    2  0.3764910E-005  0.1081889E+03  0.7546771E-02  0.1272993E+00
          2   -1    0    0  502    0 -0.00000000000E+00  0.00000000000E+00  0.18627272754E+03  0.18627272754E+03  0.00000000000E+00 0. -1.
         21   -1    0    0  501  502  0.00000000000E+00 -0.00000000000E+00 -0.13131840004E+03  0.13131840004E+03  0.00000000000E+00 0. -1.
         23    2    1    2    0    0 -0.50729426201E+01 -0.51127614331E+02  0.13671517730E+03  0.17588841246E+03  0.98009827259E+02 0.  0.
         24    2    1    2    0    0  0.48687351328E+01  0.27253487855E+02 -0.37082881524E+02  0.91045667582E+02  0.78407374024E+02 0.  0.
        -13    1    4    4    0    0  0.21721709943E+02  0.37106434424E+02 -0.51270213485E+02  0.66913040203E+02  0.00000000000E+00 0.  1.
         14    1    4    4    0    0 -0.16852974810E+02 -0.98529465690E+01  0.14187331961E+02  0.24132627379E+02  0.00000000000E+00 0. -1.
        -13    1    3    3    0    0  0.40115794737E+02 -0.34486775338E+02  0.35234093316E+02  0.63561434788E+02  0.00000000000E+00 0.  1.
         13    1    3    3    0    0 -0.45188737357E+02 -0.16640838993E+02  0.10148108398E+03  0.11232697767E+03  0.00000000000E+00 0. -1.
          1    1    1    2  501    0  0.20420748729E+00  0.23874126476E+02 -0.44677968275E+02  0.50657047534E+02  0.00000000000E+00 0. -1.
<scales pt_clust_5="13000.00000" pt_clust_6="13000.00000" pt_clust_7="13000.00000" pt_clust_8="13000.00000" pt_clust_9="23.87500"></scales>
<clustering>
<clus scale="   23.875">  2  9  1 -1</clus>
<clus scale="   78.407">  5  6 -1 -1</clus>
<clus scale="   90.811">  2  5  1 -1</clus>
<clus scale="   98.010">  7  8 -1 -1</clus>
<clus scale="   23.875">  2  5  1 -1</clus>
</clustering>
</event>
<event>
 9    2  0.3764910E-005  0.1369561E+03  0.7546771E-02  0.1230182E+00
         21   -1    0    0  501  502  0.00000000000E+00  0.00000000000E+00  0.18566362046E+03  0.18566362046E+03  0.00000000000E+00 0.  1.
         -1   -1    0    0    0  501 -0.00000000000E+00 -0.00000000000E+00 -0.29766177593E+03  0.29766177593E+03  0.00000000000E+00 0.  1.
         24    2    1    2    0    0 -0.59336927950E+02 -0.13993366880E+02 -0.18621023571E+03  0.21381489722E+03  0.85591314123E+02 0.  0.
         23    2    1    2    0    0 -0.10088656440E+02  0.10294803148E+03  0.75674099785E+02  0.15666112335E+03  0.90089178140E+02 0.  0.
        -13    1    3    3    0    0 -0.58038829545E+02  0.42763237971E+01 -0.18663127394E+03  0.19549430962E+03  0.00000000000E+00 0.  1.
         14    1    3    3    0    0 -0.12980984050E+01 -0.18269690677E+02  0.42103822690E+00  0.18320587602E+02  0.00000000000E+00 0. -1.
        -11    1    4    4    0    0  0.13651987810E+02  0.11092000975E+03  0.66155313395E+02  0.12986974561E+03  0.00000000000E+00 0.  1.
         11    1    4    4    0    0 -0.23740644250E+02 -0.79719782735E+01  0.95187863894E+01  0.26791377742E+02  0.00000000000E+00 0. -1.
         -2    1    1    2    0  502  0.69425584390E+02 -0.88954664599E+02 -0.14620195414E+01  0.11284937582E+03  0.00000000000E+00 0.  1.
<scales pt_clust_5="13000.00000" pt_clust_6="13000.00000" pt_clust_7="13000.00000" pt_clust_8="13000.00000" pt_clust_9="103.15486"></scales>
<clustering>
<clus scale="   85.591">  5  6 -1 -1</clus>
<clus scale="   90.089">  7  8 -1 -1</clus>
<clus scale="  105.084">  2  5  1 -1</clus>
<clus scale="  103.155">  1  9  2 -1</clus>
<clus scale="  103.155">  1  5  2 -1</clus>
</clustering>
</event>
<event>
 9    2  0.3764910E-005  0.8541459E+02  0.7546771E-02  0.1317221E+00
         21   -1    0    0  501  502  0.00000000000E+00  0.00000000000E+00  0.54910955564E+02  0.54910955564E+02  0.00000000000E+00 0.  1.
         -3   -1    0    0    0  501 -0.00000000000E+00 -0.00000000000E+00 -0.32489579054E+03  0.32489579054E+03  0.00000000000E+00 0.  1.
         24    2    1    2    0    0  0.64441063345E+01  0.11434131199E+02 -0.15522828134E+03  0.17385525658E+03  0.77185264460E+02 0.  0.
         23    2    1    2    0    0 -0.55708550914E+02 -0.33288142715E+01 -0.12025808296E+03  0.15572252888E+03  0.81688284572E+02 0.  0.
        -13    1    3    3    0    0 -0.20357541876E+02 -0.21107463400E+02 -0.10097983475E+03  0.10515170730E+03  0.00000000000E+00 0.  1.
         14    1    3    3    0    0  0.26801648210E+02  0.32541594599E+02 -0.54248446590E+02  0.68703549277E+02  0.00000000000E+00 0. -1.
        -13    1    4    4    0    0 -0.75310131215E+02  0.81052465042E+01 -0.98771870374E+02  0.12447165646E+03  0.00000000000E+00 0.  1.
         13    1    4    4    0    0  0.19601580302E+02 -0.11434060776E+02 -0.21486212582E+02  0.31250872424E+02  0.00000000000E+00 0. -1.
         -4    1    1    2    0  502  0.49264444579E+02 -0.81053169276E+01  0.55015293203E+01  0.50228960641E+02  0.00000000000E+00 0.  1.
<scales pt_clust_5="13000.00000" pt_clust_6="13000.00000" pt_clust_7="13000.00000" pt_clust_8="13000.00000" pt_clust_9="49.92676"></scales>
<clustering>
<clus scale="   49.927">  1  9  2 -1</clus>
<clus scale="   77.185">  5  6 -1 -1</clus>
<clus scale="   81.119">  2  5  1 -1</clus>
<clus scale="   81.688">  7  8 -1 -1</clus>
<clus scale="   49.927">  1  5  2 -1</clus>
</clustering>
</event>
<event>
 9    2  0.3764910E-005  0.1773297E+03  0.7546771E-02  0.1201824E+00
          2   -1    0    0  502    0 -0.00000000000E+00  0.00000000000E+00  0.59065438451E+03  0.59065438451E+03  0.00000000000E+00 0. -1.
         21   -1    0    0  501  502  0.00000000000E+00 -0.00000000000E+00 -0.13971000837E+03  0.13971000837E+03  0.00000000000E+00 0. -1.
         24    2    1    2    0    0  0.33900153476E+02  0.10939238357E+02 -0.67049973019E+02  0.11076585189E+03  0.80650404343E+02 0.  0.
         23    2    1    2    0    0 -0.44417330712E+02  0.14378287039E+03  0.20678751038E+03  0.27189286307E+03  0.92294319746E+02 0.  0.
        -13    1    3    3    0    0 -0.13693166525E+02  0.22133467270E+02 -0.54335944829E+02  0.60247722640E+02  0.00000000000E+00 0.  1.
         14    1    3    3    0    0  0.47593320001E+02 -0.11194228912E+02 -0.12714028189E+02  0.50518129246E+02  0.00000000000E+00 0. -1.
        -13    1    4    4    0    0  0.80127226080E+01  0.10823362911E+03  0.15915408962E+03  0.19263630612E+03  0.00000000000E+00 0. -1.
         13    1    4    4    0    0 -0.52430053320E+02  0.35549241277E+02  0.47633420760E+02  0.79256556952E+02  0.00000000000E+00 0.  1.
          1    1    1    2  501    0  0.10517177236E+02 -0.15472210874E+03  0.31120683878E+03  0.34770567792E+03  0.00000000000E+00 0. -1.
<scales pt_clust_5="13000.00000" pt_clust_6="13000.00000" pt_clust_7="13000.00000" pt_clust_8="13000.00000" pt_clust_9="151.41859"></scales>
<clustering>
<clus scale="   80.650">  5  6 -1 -1</clus>
<clus scale="   88.167">  1  5  2 -1</clus>
<clus scale="   92.294">  7  8 -1 -1</clus>
<clus scale="  151.419">  2  9  1 -1</clus>
<clus scale="  151.419">  2  5  1 -1</clus>
</clustering>
</event>
<event>
 9    2  0.3764910E-005  0.4281073E+03  0.7546771E-02  0.1075543E+00
         21   -1    0    0  501  502  0.00000000000E+00  0.00000000000E+00  0.16721346481E+03  0.16721346481E+03  0.00000000000E+00 0. -1.
          2   -1    0    0  502    0 -0.00000000000E+00 -0.00000000000E+00 -0.17632311609E+04  0.17632311609E+04  0.00000000000E+00 0. -1.
         23    2    1    2    0    0 -0.69485242820E+02 -0.78103263095E+02 -0.23112248244E+02  0.13600511744E+03  0.83874294488E+02 0.  0.
         24    2    1    2    0    0 -0.36713438561E+03  0.14923277819E+03 -0.92844142403E+03  0.10127554379E+04  0.81314328207E+02 0.  0.
        -11    1    4    4    0    0 -0.30138487280E+03  0.13910935038E+03 -0.69808665362E+03  0.77298721133E+03  0.00000000000E+00 0.  1.
         12    1    4    4    0    0 -0.65749512808E+02  0.10123427809E+02 -0.23035477041E+03  0.23976822658E+03  0.00000000000E+00 0. -1.
        -13    1    3    3    0    0 -0.34466779912E+02 -0.66215908318E+00  0.20880348115E+02  0.40303676130E+02  0.00000000000E+00 0. -1.
         13    1    3    3    0    0 -0.35018462908E+02 -0.77441104012E+02 -0.43992596359E+02  0.95701441313E+02  0.00000000000E+00 0.  1.
          1    1    1    2  501    0  0.43661962843E+03 -0.71129515096E+02 -0.64446402379E+03  0.78168407033E+03  0.00000000000E+00 0. -1.
<scales pt_clust_5="13000.00000" pt_clust_6="13000.00000" pt_clust_7="13000.00000" pt_clust_8="13000.00000" pt_clust_9="420.31399"></scales>
<clustering>
<clus scale="   81.314">  5  6 -1 -1</clus>
<clus scale="   83.874">  7  8 -1 -1</clus>
<clus scale="  134.027">  2  7  1 -1</clus>
<clus scale="  420.314">  1  9  2 -1</clus>
<clus scale="  420.314">  1  5  2 -1</clus>
</clustering>
</event>
<event>
 9    2  0.3764910E-005  0.1329212E+03  0.7546771E-02  0.1226094E+00
         21   -1    0    0  501  502  0.00000000000E+00  0.00000000000E+00  0.65132062903E+02  0.65132062903E+02  0.00000000000E+00 0.  1.
         -1   -1    0    0    0  501 -0.00000000000E+00 -0.00000000000E+00 -0.36791986009E+03  0.36791986009E+03  0.00000000000E+00 0.  1.
         24    2    1    2    0    0  0.50332745176E+01  0.10392208857E+03 -0.13205072281E+03  0.18630720074E+03  0.80298476376E+02 0.  0.
         23    2    1    2    0    0  0.27670816591E+01 -0.85002559793E+02 -0.69131915250E+02  0.14309916042E+03  0.92005739464E+02 0.  0.
        -11    1    3    3    0    0  0.21430071220E+02  0.10068939548E+03 -0.76389399271E+02  0.12819103961E+03  0.00000000000E+00 0.  1.
         12    1    3    3    0    0 -0.16396796703E+02  0.32326930901E+01 -0.55661323540E+02  0.58116161134E+02  0.00000000000E+00 0. -1.
        -11    1    4    4    0    0  0.30334540794E+02  0.47676140424E+01 -0.10807417627E+02  0.32553260737E+02  0.00000000000E+00 0. -1.
         11    1    4    4    0    0 -0.27567459135E+02 -0.89770173835E+02 -0.58324497624E+02  0.11054589968E+03  0.00000000000E+00 0.  1.
         -2    1    1    2    0  502 -0.78003561767E+01 -0.18919528782E+02 -0.10160515913E+03  0.10364556183E+03  0.00000000000E+00 0.  1.
<scales pt_clust_5="13000.00000" pt_clust_6="13000.00000" pt_clust_7="13000.00000" pt_clust_8="13000.00000" pt_clust_9="20.46447"></scales>
<clustering>
<clus scale="   20.464">  1  9  2 -1</clus>
<clus scale="   80.298">  5  6 -1 -1</clus>
<clus scale="   92.006">  7  8 -1 -1</clus>
<clus scale="  125.103">  2  5  1 -1</clus>
<clus scale="   20.464">  1  5  2 -1</clus>
</clustering>
</event>
<event>
 9    2  0.3764910E-005  0.1430825E+03  0.7546771E-02  0.1211705E+00
         -1   -1    0    0    0  501 -0.00000000000E+00  0.00000000000E+00  0.25634998634E+03  0.25634998634E+03  0.00000000000E+00 0.  1.
         21   -1    0    0  501  502  0.00000000000E+00 -0.00000000000E+00 -0.23644924388E+03  0.23644924388E+03  0.00000000000E+00 0.  1.
         23    2    1    2    0    0  0.18136705577E+02 -0.93354981782E+02  0.57354556735E+02  0.14450019350E+03  0.92448191057E+02 0.  0.
         24    2    1    2    0    0 -0.11195128373E+03  0.84017945194E+02  0.93721417542E+02  0.18675864931E+03  0.80641080980E+02 0.  0.
        -13    1    4    4    0    0 -0.67276323859E+02  0.27368953774E+02  0.55636528034E+01  0.72843102729E+02  0.00000000000E+00 0.  1.
         14    1    4    4    0    0 -0.44674959869E+02  0.56648991420E+02  0.88157764739E+02  0.11391554658E+03  0.00000000000E+00 0. -1.
        -11    1    3    3    0    0 -0.31918085531E+02 -0.41370515420E+02  0.49383327356E+02  0.71895735275E+02  0.00000000000E+00 0.  1.
         11    1    3    3    0    0  0.50054791108E+02 -0.51984466362E+02  0.79712293795E+01  0.72604458221E+02  0.00000000000E+00 0. -1.
         -2    1    1    2    0  502  0.93814578150E+02  0.93370365881E+01 -0.13117523181E+03  0.16154038742E+03  0.00000000000E+00 0.  1.
<scales pt_clust_5="13000.00000" pt_clust_6="13000.00000" pt_clust_7="13000.00000" pt_clust_8="13000.00000" pt_clust_9="94.27807"></scales>
<clustering>
<clus scale="   80.641">  5  6 -1 -1</clus>
<clus scale="   92.448">  7  8 -1 -1</clus>
<clus scale="   94.278">  2  9  1 -1</clus>
<clus scale="  135.753">  2  5  1 -1</clus>
<clus scale="   94.278">  2  5  1 -1</clus>
</clustering>
</event>
<event>
 9    2  0.3764910E-005  0.9147738E+02  0.7546771E-02  0.1305154E+00
          2   -1    0    0  502    0 -0.00000000000E+00  0.00000000000E+00  0.39845496394E+03  0.39845496394E+03  0.00000000000E+00 0. -1.
         21   -1    0    0  501  502  0.00000000000E+00 -0.00000000000E+00 -0.86973850912E+02  0.86973850912E+02  0.00000000000E+00 0. -1.
         24    2    1    2    0    0 -0.32529932058E+01  0.68832640486E+01  0.33597487653E+03  0.34592065790E+03  0.82000137891E+02 0.  0.
         23    2    1    2    0    0 -0.29697000560E+02  0.11043271193E+02 -0.39624564400E+01  0.96746055461E+02  0.91324873421E+02 0.  0.
        -13    1    3    3    0    0  0.38311230050E+02 -0.24161372140E+01  0.19097154365E+03  0.19479147453E+03  0.00000000000E+00 0.  1.
         14    1    3    3    0    0 -0.41564223256E+02  0.92994012627E+01  0.14500333288E+03  0.15112918337E+03  0.00000000000E+00 0. -1.
        -13    1    4    4    0    0 -0.47266610761E+02  0.26538507740E+02  0.24833276271E+02  0.59624797662E+02  0.00000000000E+00 0. -1.
         13    1    4    4    0    0  0.17569610200E+02 -0.15495236547E+02 -0.28795732711E+02  0.37121257799E+02  0.00000000000E+00 0.  1.
          1    1    1    2  501    0  0.32949993766E+02 -0.17926535242E+02 -0.20531307055E+02  0.42762101496E+02  0.00000000000E+00 0. -1.
<scales pt_clust_5="13000.00000" pt_clust_6="13000.00000" pt_clust_7="13000.00000" pt_clust_8="13000.00000" pt_clust_9="37.51084"></scales>
<clustering>
<clus scale="   37.511">  2  9  1 -1</clus>
<clus scale="   82.000">  5  6 -1 -1</clus>
<clus scale="   82.170">  1  5  2 -1</clus>
<clus scale="   91.325">  7  8 -1 -1</clus>
<clus scale="   37.511">  2  5  1 -1</clus>
</clustering>
</event>
<event>
 9    2  0.3764910E-005  0.2690182E+03  0.7546771E-02  0.1102184E+00
         -1   -1    0    0    0  501 -0.00000000000E+00  0.00000000000E+00  0.33225934743E+03  0.33225934743E+03  0.00000000000E+00 0.  1.
         21   -1    0    0  501  502  0.00000000000E+00 -0.00000000000E+00 -0.55472563751E+03  0.55472563751E+03  0.00000000000E+00 0.  1.
         23    2    1    2    0    0  0.22790026795E+03 -0.99410364204E+02  0.11829459095E+03  0.29012315612E+03  0.91415987779E+02 0.  0.
         24    2    1    2    0    0 -0.16528533948E+03  0.25878597106E+03 -0.21022108934E+03  0.38154380695E+03  0.84222015847E+02 0.  0.
        -13    1    4    4    0    0 -0.68673204964E+02  0.10727709343E+03 -0.38680202993E+02  0.13311852598E+03  0.00000000000E+00 0.  1.
         14    1    4    4    0    0 -0.96612134513E+02  0.15150887762E+03 -0.17154088635E+03  0.24842528097E+03  0.00000000000E+00 0. -1.
        -11    1    3    3    0    0  0.65858112373E+02  0.52087351686E+01  0.45914494992E+01  0.66223132635E+02  0.00000000000E+00 0. -1.
         11    1    3    3    0    0  0.16204215558E+03 -0.10461909937E+03  0.11370314145E+03  0.22390002348E+03  0.00000000000E+00 0.  1.
         -2    1    1    2    0  502 -0.62614928477E+02 -0.15937560685E+03 -0.13053979169E+03  0.21531802187E+03  0.00000000000E+00 0.  1.
<scales pt_clust_5="13000.00000" pt_clust_6="13000.00000" pt_clust_7="13000.00000" pt_clust_8="13000.00000" pt_clust_9="171.23438"></scales>
<clustering>
<clus scale="   84.222">  5  6 -1 -1</clus>
<clus scale="   91.416">  7  8 -1 -1</clus>
<clus scale="  171.234">  2  9  1 -1</clus>
<clus scale="  266.659">  2  5  1 -1</clus>
<clus scale="  171.234">  2  5  1 -1</clus>
</clustering>
</event>
<event>
 9    2  0.3764910E-005  0.1497250E+03  0.7546771E-02  0.1226775E+00
         21   -1    0    0  501  502  0.00000000000E+00  0.00000000000E+00  0.75111784803E+02  0.75111784803E+02  0.00000000000E+00 0.  1.
         -1   -1    0    0    0  501 -0.00000000000E+00 -0.00000000000E+00 -0.49331026253E+03  0.49331026253E+03  0.00000000000E+00 0.  1.
         24    2    1    2    0    0  0.30415427053E+02 -0.20129964572E+01 -0.96359906706E+02  0.12935743906E+03  0.80740108142E+02 0.  0.
         23    2    1    2    0    0 -0.63536967811E+01  0.12117251591E+03 -0.84673271087E+02  0.17255881578E+03  0.88790956702E+02 0.  0.
        -13    1    3    3    0    0  0.36380955557E+02 -0.35388011068E+02 -0.69734391532E+02  0.86248307908E+02  0.00000000000E+00 0.  1.
         14    1    3    3    0    0 -0.59655285041E+01  0.33375014611E+02 -0.26625515174E+02  0.43109131154E+02  0.00000000000E+00 0. -1.
        -11    1    4    4    0    0  0.37847753994E+02  0.27530577675E+02 -0.26992435364E+02  0.54027555529E+02  0.00000000000E+00 0.  1.
         11    1    4    4    0    0 -0.44201450776E+02  0.93641938232E+02 -0.57680835723E+02  0.11853126025E+03  0.00000000000E+00 0. -1.
         -2    1    1    2    0  502 -0.24061730272E+02 -0.11915951945E+03 -0.23716529993E+03  0.26650579249E+03  0.00000000000E+00 0.  1.
<scales pt_clust_5="13000.00000" pt_clust_6="13000.00000" pt_clust_7="13000.00000" pt_clust_8="13000.00000" pt_clust_9="120.55609"></scales>
<clustering>
<clus scale="   80.740">  5  6 -1 -1</clus>
<clus scale="   86.302">  2  5  1 -1</clus>
<clus scale="   88.791">  7  8 -1 -1</clus>
<clus scale="  120.556">  1  9  2 -1</clus>
<clus scale="  120.556">  1  5  2 -1</clus>
</clustering>
</event>
<event>
 9    2  0.3764910E-005  0.1303493E+03  0.7546771E-02  0.1228072E+00
          2   -1    0    0  502    0 -0.00000000000E+00  0.00000000000E+00  0.69367051813E+03  0.69367051813E+03  0.00000000000E+00 0. -1.
         21   -1    0    0  501  502  0.00000000000E+00 -0.00000000000E+00 -0.11437351807E+03  0.11437351807E+03  0.00000000000E+00 0. -1.
         24    2    1    2    0    0 -0.80001925628E+02 -0.44865810020E+02  0.52953812791E+03  0.54655569959E+03  0.99494998999E+02 0.  0.
         23    2    1    2    0    0  0.32154936848E+02  0.65313877283E+02  0.12283671925E+03  0.17177864077E+03  0.95494498786E+02 0.  0.
        -11    1    3    3    0    0 -0.37709260256E+01 -0.28811373680E+02  0.33109686884E+02  0.44051861504E+02  0.00000000000E+00 0.  1.
         12    1    3    3    0    0 -0.76230999603E+02 -0.16054436340E+02  0.49642844103E+03  0.50250383809E+03  0.00000000000E+00 0. -1.
        -11    1    4    4    0    0 -0.44935357053E+01  0.75770375475E+02  0.10535358100E+03  0.12984883015E+03  0.00000000000E+00 0. -1.
         11    1    4    4    0    0  0.36648472553E+02 -0.10456498193E+02  0.17483138247E+02  0.41929810612E+02  0.00000000000E+00 0.  1.
          1    1    1    2  501    0  0.47846988780E+02 -0.20448067263E+02 -0.73077847105E+02  0.89709695840E+02  0.00000000000E+00 0. -1.
<scales pt_clust_5="13000.00000" pt_clust_6="13000.00000" pt_clust_7="13000.00000" pt_clust_8="13000.00000" pt_clust_9="52.03324"></scales>
<clustering>
<clus scale="   52.033">  2  9  1 -1</clus>
<clus scale="   95.494">  7  8 -1 -1</clus>
<clus scale="   99.495">  5  6 -1 -1</clus>
<clus scale="  127.322">  2  7  1 -1</clus>
<clus scale="   52.033">  2  5  1 -1</clus>
</clustering>
</event>
<event>
 9    2  0.3764910E-005  0.1533915E+03  0.7546771E-02  0.1197371E+00
         -3   -1    0    0    0  501 -0.00000000000E+00  0.00000000000E+00  0.87886437732E+03  0.87886437732E+03  0.00000000000E+00 0.  1.
         21   -1    0    0  501  502  0.00000000000E+00 -0.00000000000E+00 -0.55320503175E+02  0.55320503175E+02  0.00000000000E+00 0.  1.
         24    2    1    2    0    0  0.10359951281E+03 -0.12039973892E+03  0.62251443797E+03  0.64765863706E+03  0.81905607181E+02 0.  0.
         23    2    1    2    0    0 -0.35635324267E+02  0.60453315962E+02  0.12597777867E+03  0.16885952833E+03  0.87855903863E+02 0.  0.
        -13    1    3    3    0    0  0.53425691138E+02 -0.91744631143E+02  0.51263850267E+03  0.52351658640E+03  0.00000000000E+00 0.  1.
         14    1    3    3    0    0  0.50173821675E+02 -0.28655107775E+02  0.10987593529E+03  0.12414205065E+03  0.00000000000E+00 0. -1.
        -11    1    4    4    0    0 -0.54885079460E+01  0.60185219186E+02  0.12482963968E+03  0.13868966533E+03  0.00000000000E+00 0.  1.
         11    1    4    4    0    0 -0.30146816321E+02  0.26809677620E+00  0.11481389899E+01  0.30169862998E+02  0.00000000000E+00 0. -1.
         -4    1    1    2    0  502 -0.67964188546E+02  0.59946422956E+02  0.75051657510E+02  0.11766671511E+03  0.00000000000E+00 0.  1.
<scales pt_clust_5="13000.00000" pt_clust_6="13000.00000" pt_clust_7="13000.00000" pt_clust_8="13000.00000" pt_clust_9="90.62397"></scales>
<clustering>
<clus scale="   81.906">  5  6 -1 -1</clus>
<clus scale="   87.856">  7  8 -1 -1</clus>
<clus scale="   90.624">  2  9  1 -1</clus>
<clus scale="  150.063">  1  5  2 -1</clus>
<clus scale="   90.624">  2  5  1 -1</clus>
</clustering>
</event>
<event>
 9    2  0.3764910E-005  0.9384097E+02  0.7546771E-02  0.1300274E+00
         -1   -1    0    0    0  501 -0.00000000000E+00  0.00000000000E+00  0.31838837202E+03  0.31838837202E+03  0.00000000000E+00 0.  1.
         21   -1    0    0  501  502  0.00000000000E+00 -0.00000000000E+00 -0.56623365429E+02  0.56623365429E+02  0.00000000000E+00 0.  1.
         23    2    1    2    0    0 -0.15542426113E+02 -0.43794648259E+02  0.11930718344E+03  0.15776634728E+03  0.92176342351E+02 0.  0.
         24    2    1    2    0    0  0.14574083729E+02 -0.31021386298E+02  0.65712703571E+02  0.11006241534E+03  0.81368578301E+02 0.  0.
        -11    1    4    4    0    0  0.36079210081E+02 -0.85954963380E+01 -0.31409483327E+00  0.37090303489E+02  0.00000000000E+00 0.  1.
         12    1    4    4    0    0 -0.21505126352E+02 -0.22425889960E+02  0.66026798404E+02  0.72972111847E+02  0.00000000000E+00 0. -1.
        -13    1    3    3    0    0  0.17486103456E+02  0.17394472995E+02  0.69353655808E+01  0.25620905538E+02  0.00000000000E+00 0. -1.
         13    1    3    3    0    0 -0.33028529569E+02 -0.61189121254E+02  0.11237181785E+03  0.13214544174E+03  0.00000000000E+00 0.  1.
         -2    1    1    2    0  502  0.96834238416E+00  0.74816034557E+02  0.76745119585E+02  0.10718297483E+03  0.00000000000E+00 0.  1.
<scales pt_clust_5="13000.00000" pt_clust_6="13000.00000" pt_clust_7="13000.00000" pt_clust_8="13000.00000" pt_clust_9="74.82234"></scales>
<clustering>
<clus scale="   74.822">  2  9  1 -1</clus>
<clus scale="   81.369">  5  6 -1 -1</clus>
<clus scale="   83.250">  2  5  1 -1</clus>
<clus scale="   92.176">  7  8 -1 -1</clus>
<clus scale="   74.822">  2  5  1 -1</clus>
</clustering>
</event>
<event>
 9    2  0.3764910E-005  0.1110161E+03  0.7546771E-02  0.1269975E+00
         21   -1    0    0  501  502  0.00000000000E+00  0.00000000000E+00  0.12511030714E+03  0.12511030714E+03  0.00000000000E+00 0.  1.
         -3   -1    0    0    0  501 -0.00000000000E+00 -0.00000000000E+00 -0.18791398797E+03  0.18791398797E+03  0.00000000000E+00 0.  1.
         23    2    1    2    0    0 -0.19414079226E+02  0.10942754969E+02  0.10541858841E+02  0.10662515082E+03  0.10373592261E+03 0.  0.
         24    2    1    2    0    0  0.44071462754E+02  0.53187591535E+02  0.45481005582E+00  0.10556671140E+03  0.79830507830E+02 0.  0.
        -13    1    4    4    0    0  0.32152487259E+02 -0.14921394349E+01 -0.28110618724E+02  0.42734246245E+02  0.00000000000E+00 0.  1.
         14    1    4    4    0    0  0.11918975495E+02  0.54679730970E+02  0.28565428780E+02  0.62832465153E+02  0.00000000000E+00 0. -1.
        -11    1    3    3    0    0  0.40923081743E+01 -0.42788098353E+02 -0.10620741811E+02  0.44276048869E+02  0.00000000000E+00 0. -1.
         11    1    3    3    0    0 -0.23506387400E+02  0.53730853322E+02  0.21162600652E+02  0.62349101947E+02  0.00000000000E+00 0.  1.
         -4    1    1    2    0  502 -0.24657383529E+02 -0.64130346504E+02 -0.73800349725E+02  0.10083243290E+03  0.00000000000E+00 0.  1.
<scales pt_clust_5="13000.00000" pt_clust_6="13000.00000" pt_clust_7="13000.00000" pt_clust_8="13000.00000" pt_clust_9="68.70730"></scales>
<clustering>
<clus scale="   68.707">  1  9  2 -1</clus>
<clus scale="   79.831">  5  6 -1 -1</clus>
<clus scale="   89.086">  1  5  2 -1</clus>
<clus scale="  103.736">  7  8 -1 -1</clus>
<clus scale="   68.707">  1  5  2 -1</clus>
</clustering>
</event>
<event>
 9    2  0.3764910E-005  0.9693453E+02  0.7546771E-02  0.1293626E+00
         -1   -1    0    0    0  501 -0.00000000000E+00  0.00000000000E+00  0.31301987914E+02  0.31301987914E+02  0.00000000000E+00 0.  1.
         21   -1    0    0  501  502  0.00000000000E+00 -0.00000000000E+00 -0.68971961983E+03  0.68971961983E+03  0.00000000000E+00 0.  1.
         24    2    1    2    0    0  0.28903649364E+02  0.30203723921E+02 -0.15985719082E+03  0.18152390191E+03  0.75159295003E+02 0.  0.
         23    2    1    2    0    0 -0.59353407263E+02  0.20852861442E+02 -0.44974964140E+03  0.46257919809E+03  0.88017644739E+02 0.  0.
        -11    1    3    3    0    0  0.15028082849E+02  0.29157197183E+02 -0.15119800675E+02  0.36119161038E+02  0.00000000000E+00 0.  1.
         12    1    3    3    0    0  0.13875566515E+02  0.10465267384E+01 -0.14473739014E+03  0.14540474088E+03  0.00000000000E+00 0. -1.
        -13    1    4    4    0    0 -0.11077011783E+02  0.50021950427E+02 -0.23745958337E+03  0.24292375233E+03  0.00000000000E+00 0.  1.
         13    1    4    4    0    0 -0.48276395480E+02 -0.29169088985E+02 -0.21229005803E+03  0.21965544576E+03  0.00000000000E+00 0. -1.
         -2    1    1    2    0  502  0.30449757898E+02 -0.51056585363E+02 -0.48810799704E+02  0.76918507739E+02  0.00000000000E+00 0.  1.
<scales pt_clust_5="13000.00000" pt_clust_6="13000.00000" pt_clust_7="13000.00000" pt_clust_8="13000.00000" pt_clust_9="59.44717"></scales>
<clustering>
<clus scale="   59.447">  2  9  1 -1</clus>
<clus scale="   75.159">  5  6 -1 -1</clus>
<clus scale="   85.429">  1  5  2 -1</clus>
<clus scale="   88.018">  7  8 -1 -1</clus>
<clus scale="   59.447">  2  5  1 -1</clus>
</clustering>
</event>
<event>
 9    2  0.3764910E-005  0.9937487E+02  0.7546771E-02  0.1285792E+00
         21   -1    0    0  501  502  0.00000000000E+00  0.00000000000E+00  0.33506616423E+03  0.33506616423E+03  0.00000000000E+00 0. -1.
         -1   -1    0    0    0  501 -0.00000000000E+00 -0.00000000000E+00 -0.64225909104E+02  0.64225909104E+02  0.00000000000E+00 0.  1.
         23    2    1    2    0    0 -0.95235141554E+01  0.38700535315E+02 -0.15065956205E+00  0.97969887705E+02  0.89496633697E+02 0.  0.
         24    2    1    2    0    0  0.34060644661E+02 -0.52172512378E+02  0.22993724599E+03  0.25163346806E+03  0.81031886286E+02 0.  0.
        -13    1    4    4    0    0  0.60953761566E+02 -0.35298739547E+02  0.15558525165E+03  0.17078680451E+03  0.00000000000E+00 0.  1.
         14    1    4    4    0    0 -0.26893116904E+02 -0.16873772832E+02  0.74351994332E+02  0.80846663553E+02  0.00000000000E+00 0. -1.
        -13    1    3    3    0    0 -0.98178198282E+00 -0.29172198696E+02 -0.39583427679E+01  0.29455891602E+02  0.00000000000E+00 0. -1.
         13    1    3    3    0    0 -0.85417321726E+01  0.67872734011E+02  0.38076832058E+01  0.68513996103E+02  0.00000000000E+00 0.  1.
         -2    1    1    2    0  502 -0.24537130506E+02  0.13471977063E+02  0.41053668699E+02  0.49688717563E+02  0.00000000000E+00 0.  1.
<scales pt_clust_5="13000.00000" pt_clust_6="13000.00000" pt_clust_7="13000.00000" pt_clust_8="13000.00000" pt_clust_9="27.99223"></scales>
<clustering>
<clus scale="   27.992">  1  9  2 -1</clus>
<clus scale="   81.032">  5  6 -1 -1</clus>
<clus scale="   89.497">  7  8 -1 -1</clus>
<clus scale="   91.825">  1  5  2 -1</clus>
<clus scale="   27.992">  1  5  2 -1</clus>
</clustering>
</event>
<event>
 9    2  0.3764910E-005  0.1348077E+03  0.7546771E-02  0.1222376E+00
         -3   -1    0    0    0  501 -0.00000000000E+00  0.00000000000E+00  0.14321316696E+03  0.14321316696E+03  0.00000000000E+00 0.  1.
         21   -1    0    0  501  502  0.00000000000E+00 -0.00000000000E+00 -0.18900484542E+03  0.18900484542E+03  0.00000000000E+00 0. -1.
         24    2    1    2    0    0  0.39711125093E+02  0.10660330053E+03  0.21522835260E+02  0.14082712079E+03  0.80173613944E+02 0.  0.
         23    2    1    2    0    0 -0.46330084503E+02 -0.76201738444E+02 -0.97038045703E+01  0.12591525176E+03  0.88358956146E+02 0.  0.
        -11    1    3    3    0    0  0.43523720794E+02  0.61232701856E+02  0.47036756375E+02  0.88635289241E+02  0.00000000000E+00 0.  1.
         12    1    3    3    0    0 -0.38125957018E+01  0.45370598672E+02 -0.25513921116E+02  0.52191831550E+02  0.00000000000E+00 0. -1.
        -11    1    4    4    0    0 -0.70930642919E+02 -0.56876319429E+02  0.55975840828E+01  0.91090091472E+02  0.00000000000E+00 0.  1.
         11    1    4    4    0    0  0.24600558417E+02 -0.19325419015E+02 -0.15301388653E+02  0.34825160290E+02  0.00000000000E+00 0. -1.
         -4    1    1    2    0  502  0.66189594099E+01 -0.30401562085E+02 -0.57610709152E+02  0.65475639820E+02  0.00000000000E+00 0.  1.
<scales pt_clust_5="13000.00000" pt_clust_6="13000.00000" pt_clust_7="13000.00000" pt_clust_8="13000.00000" pt_clust_9="31.11375"></scales>
<clustering>
<clus scale="   31.114">  2  9  1 -1</clus>
<clus scale="   80.174">  5  6 -1 -1</clus>
<clus scale="   88.359">  7  8 -1 -1</clus>
<clus scale="  129.590">  1  5  2 -1</clus>
<clus scale="   31.114">  2  5  1 -1</clus>
</clustering>
</event>
<event>
 9    2  0.3764910E-005  0.1109801E+03  0.7546771E-02  0.1269375E+00
         21   -1    0    0  501  502  0.00000000000E+00  0.00000000000E+00  0.16246821271E+03  0.16246821271E+03  0.00000000000E+00 0. -1.
          2   -1    0    0  502    0 -0.00000000000E+00 -0.00000000000E+00 -0.37553359342E+03  0.37553359342E+03  0.00000000000E+00 0. -1.
         23    2    1    2    0    0  0.41566514001E+02 -0.85229932095E+01 -0.32116777145E+03  0.33993024373E+03  0.10297289296E+03 0.  0.
         24    2    1    2    0    0 -0.38800801395E+02 -0.12901935834E+02  0.22261003188E+01  0.90013866575E+02  0.80159706312E+02 0.  0.
        -13    1    4    4    0    0 -0.57693552060E+02 -0.21787367896E+02  0.17546399695E+02  0.64117949838E+02  0.00000000000E+00 0.  1.
         14    1    4    4    0    0  0.18892750666E+02  0.88854320623E+01 -0.15320299377E+02  0.25895916737E+02  0.00000000000E+00 0. -1.
        -13    1    3    3    0    0 -0.98880781440E+00  0.42524654760E+02 -0.16094037348E+03  0.16646659671E+03  0.00000000000E+00 0.  1.
         13    1    3    3    0    0  0.42555321816E+02 -0.51047647969E+02 -0.16022739797E+03  0.17346364703E+03  0.00000000000E+00 0. -1.
          1    1    1    2  501    0 -0.27657126068E+01  0.21424929044E+02  0.10587629043E+03  0.10805769582E+03  0.00000000000E+00 0. -1.
<scales pt_clust_5="13000.00000" pt_clust_6="13000.00000" pt_clust_7="13000.00000" pt_clust_8="13000.00000" pt_clust_9="21.60270"></scales>
<clustering>
<clus scale="   21.603">  1  9  2 -1</clus>
<clus scale="   80.160">  5  6 -1 -1</clus>
<clus scale="   90.215">  1  5  2 -1</clus>
<clus scale="  102.973">  7  8 -1 -1</clus>
<clus scale="   21.603">  1  5  2 -1</clus>
</clustering>
</event>
<event>
 9    2  0.3764910E-005  0.1172793E+03  0.7546771E-02  0.1251172E+00
          2   -1    0    0  502    0 -0.00000000000E+00  0.00000000000E+00  0.43203261617E+03  0.43203261617E+03  0.00000000000E+00 0. -1.
         21   -1    0    0  501  502  0.00000000000E+00 -0.00000000000E+00 -0.58322474723E+02  0.58322474723E+02  0.00000000000E+00 0. -1.
         23    2    1    2    0    0 -0.89243075560E+02 -0.87629756846E+01  0.31100584199E+03  0.33572459364E+03  0.89136147236E+02 0.  0.
         24    2    1    2    0    0  0.41123581264E+02 -0.67734869202E+01  0.27135046974E+02  0.92807854771E+02  0.78357884554E+02 0.  0.
        -13    1    4    4    0    0  0.13060631741E+02 -0.37044033294E+02 -0.61813660281E+01  0.39762416804E+02  0.00000000000E+00 0.  1.
         14    1    4    4    0    0  0.28062949523E+02  0.30270546374E+02  0.33316413002E+02  0.53045437966E+02  0.00000000000E+00 0. -1.
        -13    1    3    3    0    0 -0.73075912840E+02  0.34086845174E+02  0.19961742452E+03  0.21528845353E+03  0.00000000000E+00 0.  1.
         13    1    3    3    0    0 -0.16167162720E+02 -0.42849820858E+02  0.11138841747E+03  0.12043614011E+03  0.00000000000E+00 0. -1.
          1    1    1    2  501    0  0.48119494296E+02  0.15536462605E+02  0.35569252486E+02  0.61822642486E+02  0.00000000000E+00 0. -1.
<scales pt_clust_5="13000.00000" pt_clust_6="13000.00000" pt_clust_7="13000.00000" pt_clust_8="13000.00000" pt_clust_9="50.56548"></scales>
<clustering>
<clus scale="   50.565">  2  9  1 -1</clus>
<clus scale="   78.358">  5  6 -1 -1</clus>
<clus scale="   89.136">  7  8 -1 -1</clus>
<clus scale="  109.312">  2  5  1 -1</clus>
<clus scale="   50.565">  2  5  1 -1</clus>
</clustering>
</event>
<event>
 9    2  0.3764910E-005  0.9425090E+02  0.7546771E-02  0.1299493E+00
          2   -1    0    0  502    0 -0.00000000000E+00  0.00000000000E+00  0.38901069396E+03  0.38901069396E+03  0.00000000000E+00 0. -1.
         21   -1    0    0  501  502  0.00000000000E+00 -0.00000000000E+00 -0.29002896814E+02  0.29002896814E+02  0.00000000000E+00 0. -1.
         24    2    1    2    0    0 -0.38432956226E+01 -0.26715932292E+02  0.19068601681E+03  0.20864357788E+03  0.80265021183E+02 0.  0.
         23    2    1    2    0    0 -0.20742682426E+02  0.13401375229E+02  0.12345491235E+03  0.15565300139E+03  0.91525328320E+02 0.  0.
        -13    1    3    3    0    0  0.10407081011E+02 -0.29952468050E+02  0.20340030596E+02  0.37671932816E+02  0.00000000000E+00 0.  1.
         14    1    3    3    0    0 -0.14250376633E+02  0.32365357574E+01  0.17034598621E+03  0.17097164506E+03  0.00000000000E+00 0. -1.
        -13    1    4    4    0    0 -0.19144924531E+02 -0.38154438877E+02  0.64148270500E+02  0.77053812037E+02  0.00000000000E+00 0. -1.
         13    1    4    4    0    0 -0.15977578958E+01  0.51555814106E+02  0.59306641854E+02  0.78599189350E+02  0.00000000000E+00 0.  1.
          1    1    1    2  501    0  0.24585978049E+02  0.13314557064E+02  0.45866867983E+02  0.53717011505E+02  0.00000000000E+00 0. -1.
<scales pt_clust_5="13000.00000" pt_clust_6="13000.00000" pt_clust_7="13000.00000" pt_clust_8="13000.00000" pt_clust_9="27.95975"></scales>
<clustering>
<clus scale="   27.960">  2  9  1 -1</clus>
<clus scale="   80.265">  5  6 -1 -1</clus>
<clus scale="   83.360">  1  5  2 -1</clus>
<clus scale="   91.525">  7  8 -1 -1</clus>
<clus scale="   27.960">  2  5  1 -1</clus>
</clustering>
</event>
<event>
 9    2  0.3764910E-005  0.1040138E+03  0.7546771E-02  0.1278941E+00
         21   -1    0    0  501  502  0.00000000000E+00  0.00000000000E+00  0.14737018231E+03  0.14737018231E+03  0.00000000000E+00 0.  1.
          2   -1    0    0  502    0 -0.00000000000E+00 -0.00000000000E+00 -0.36274984970E+03  0.36274984970E+03  0.00000000000E+00 0. -1.
         23    2    1    2    0    0 -0.11372697015E+02  0.43414882696E+02 -0.32074796480E+03  0.33720992103E+03  0.93899327181E+02 0.  0.
         24    2    1    2    0    0 -0.26631318258E+02 -0.50150231084E+02  0.83862851994E+02  0.12872692099E+03  0.79456714336E+02 0.  0.
        -11    1    4    4    0    0 -0.26757253626E+02 -0.65714777499E+02  0.87589221050E+02  0.11272202202E+03  0.00000000000E+00 0.  1.
         12    1    4    4    0    0  0.12593536837E+00  0.15564546415E+02 -0.37263690563E+01  0.16004898974E+02  0.00000000000E+00 0. -1.
        -11    1    3    3    0    0 -0.27487551847E+02 -0.70970546555E+01 -0.28628453160E+02  0.40317763103E+02  0.00000000000E+00 0.  1.
         11    1    3    3    0    0  0.16114854832E+02  0.50511937351E+02 -0.29211951164E+03  0.29689215793E+03  0.00000000000E+00 0. -1.
          1    1    1    2  501    0  0.38004015273E+02  0.67353483884E+01  0.21505445416E+02  0.44183189986E+02  0.00000000000E+00 0. -1.
<scales pt_clust_5="13000.00000" pt_clust_6="13000.00000" pt_clust_7="13000.00000" pt_clust_8="13000.00000" pt_clust_9="38.59624"></scales>
<clustering>
<clus scale="   38.596">  1  9  2 -1</clus>
<clus scale="   79.457">  5  6 -1 -1</clus>
<clus scale="   91.188">  1  5  2 -1</clus>
<clus scale="   93.899">  7  8 -1 -1</clus>
<clus scale="   38.596">  1  5  2 -1</clus>
</clustering>
</event>
<event>
 9    2  0.5721874E-005  0.9486481E+02  0.7546771E-02  0.1297340E+00
          2   -1    0    0  502    0 -0.00000000000E+00  0.00000000000E+00  0.16572793757E+03  0.16572793757E+03  0.00000000000E+00 0. -1.
         21   -1    0    0  501  502  0.00000000000E+00 -0.00000000000E+00 -0.57085409285E+03  0.57085409285E+03  0.00000000000E+00 0. -1.
         24    2    1    2    0    0  0.15711400915E+02 -0.27535907884E+02  0.13626085638E+03  0.16134696399E+03  0.80378774979E+02 0.  0.
         23    2    1    2    0    0  0.23516718735E+02 -0.56522809844E+01 -0.12828636933E+03  0.15895097839E+03  0.90680960709E+02 0.  0.
        -11    1    3    3    0    0  0.43299873278E+02  0.48992282366E+01  0.75015126249E+02  0.86753389728E+02  0.00000000000E+00 0.  1.
         12    1    3    3    0    0 -0.27588472363E+02 -0.32435136120E+02  0.61245730130E+02  0.74593574265E+02  0.00000000000E+00 0. -1.
        -13    1    4    4    0    0  0.60401384642E+01  0.36338610518E+02 -0.96966176653E+02  0.10372761109E+03  0.00000000000E+00 0.  1.
         13    1    4    4    0    0  0.17476580271E+02 -0.41990891502E+02 -0.31320192677E+02  0.55223367304E+02  0.00000000000E+00 0. -1.
          1    1    1    2  501    0 -0.39228119650E+02  0.33188188868E+02 -0.41310064234E+03  0.41628408804E+03  0.00000000000E+00 0. -1.
<scales pt_clust_5="13000.00000" pt_clust_6="13000.00000" pt_clust_7="13000.00000" pt_clust_8="13000.00000" pt_clust_9="51.38386"></scales>
<clustering>
<clus scale="   51.384">  2  9  1 -1</clus>
<clus scale="   80.379">  5  6 -1 -1</clus>
<clus scale="   85.071">  1  5  2 -1</clus>
<clus scale="   90.681">  7  8 -1 -1</clus>
<clus scale="   51.384">  2  5  1 -1</clus>
</clustering>
</event>
<event>
 9    2  0.3764910E-005  0.1319466E+03  0.7546771E-02  0.1226944E+00
         21   -1    0    0  501  502  0.00000000000E+00  0.00000000000E+00  0.68551847505E+03  0.68551847505E+03  0.00000000000E+00 0.  1.
         -1   -1    0    0    0  501 -0.00000000000E+00 -0.00000000000E+00 -0.41632482612E+02  0.41632482612E+02  0.00000000000E+00 0.  1.
         24    2    1    2    0    0  0.88660447899E+02  0.51165831036E+02  0.11094394590E+03  0.17113994419E+03  0.80633145028E+02 0.  0.
         23    2    1    2    0    0 -0.70772218240E+02 -0.27707122656E+02  0.48952153102E+03  0.50351681449E+03  0.90119152366E+02 0.  0.
        -13    1    3    3    0    0  0.92510198502E+02  0.16474145310E+02  0.91638238480E+02  0.13125205157E+03  0.00000000000E+00 0.  1.
         14    1    3    3    0    0 -0.38497506029E+01  0.34691685725E+02  0.19305707425E+02  0.39887892616E+02  0.00000000000E+00 0. -1.
        -13    1    4    4    0    0 -0.83904387671E+02  0.35442711415E+01  0.34554265360E+03  0.35560122832E+03  0.00000000000E+00 0.  1.
         13    1    4    4    0    0  0.13132169431E+02 -0.31251393797E+02  0.14397887742E+03  0.14791558617E+03  0.00000000000E+00 0. -1.
         -2    1    1    2    0  502 -0.17888229659E+02 -0.23458708380E+02  0.43420515516E+02  0.52494198983E+02  0.00000000000E+00 0.  1.
<scales pt_clust_5="13000.00000" pt_clust_6="13000.00000" pt_clust_7="13000.00000" pt_clust_8="13000.00000" pt_clust_9="29.50086"></scales>
<clustering>
<clus scale="   29.501">  1  9  2 -1</clus>
<clus scale="   80.633">  5  6 -1 -1</clus>
<clus scale="   90.119">  7  8 -1 -1</clus>
<clus scale="  125.659">  2  5  1 -1</clus>
<clus scale="   29.501">  1  5  2 -1</clus>
</clustering>
</event>
<event>
 9    2  0.4659057E-005  0.9226765E+02  0.7546771E-02  0.1313917E+00
          4   -1    0    0  502    0 -0.00000000000E+00  0.00000000000E+00  0.29625034615E+03  0.29625034615E+03  0.00000000000E+00 0. -1.
         21   -1    0    0  501  502  0.00000000000E+00 -0.00000000000E+00 -0.10373416391E+03  0.10373416391E+03  0.00000000000E+00 0.  1.
         24    2    1    2    0    0 -0.16324852516E+02 -0.13101573322E+02  0.25510169921E+03  0.26400298880E+03  0.64672630389E+02 0.  0.
         23    2    1    2    0    0  0.28955053860E+02  0.30032843151E+02 -0.57089676856E+02  0.11415506615E+03  0.89620204821E+02 0.  0.
        -13    1    3    3    0    0  0.10501191606E+02  0.20935664151E+02  0.67081657489E+02  0.71052979037E+02  0.00000000000E+00 0.  1.
         14    1    3    3    0    0 -0.26826044122E+02 -0.34037237473E+02  0.18802004172E+03  0.19295000976E+03  0.00000000000E+00 0. -1.
        -11    1    4    4    0    0  0.33322884443E+02  0.59942509045E+02 -0.38026985696E+02  0.78419198283E+02  0.00000000000E+00 0. -1.
         11    1    4    4    0    0 -0.43678305831E+01 -0.29909665894E+02 -0.19062691160E+02  0.35735867866E+02  0.00000000000E+00 0.  1.
          3    1    1    2  501    0 -0.12630201344E+02 -0.16931269829E+02 -0.54958401232E+01  0.21826455110E+02  0.00000000000E+00 0. -1.
<scales pt_clust_5="13000.00000" pt_clust_6="13000.00000" pt_clust_7="13000.00000" pt_clust_8="13000.00000" pt_clust_9="21.12321"></scales>
<clustering>
<clus scale="   21.123">  2  9  1 -1</clus>
<clus scale="   64.673">  5  6 -1 -1</clus>
<clus scale="   68.294">  1  5  2 -1</clus>
<clus scale="   89.620">  7  8 -1 -1</clus>
<clus scale="   21.123">  2  5  1 -1</clus>
</clustering>
</event>
<event>
 9    2  0.3764910E-005  0.1357649E+03  0.7546771E-02  0.1237734E+00
          4   -1    0    0  502    0 -0.00000000000E+00  0.00000000000E+00  0.67838641891E+02  0.67838641891E+02  0.00000000000E+00 0. -1.
         21   -1    0    0  501  502  0.00000000000E+00 -0.00000000000E+00 -0.74763890904E+03  0.74763890904E+03  0.00000000000E+00 0. -1.
         23    2    1    2    0    0  0.48164292127E+01 -0.10053165859E+02 -0.54464052739E+02  0.10725038624E+03  0.91717218530E+02 0.  0.
         24    2    1    2    0    0  0.94284514791E+02 -0.26107112657E+02 -0.80973154722E+02  0.15373667460E+03  0.86643881896E+02 0.  0.
        -11    1    4    4    0    0  0.17859766773E+02 -0.42877291149E+02 -0.87688901165E+01  0.47268666147E+02  0.00000000000E+00 0.  1.
         12    1    4    4    0    0  0.76424748018E+02  0.16770178492E+02 -0.72204264605E+02  0.10646800845E+03  0.00000000000E+00 0. -1.
        -11    1    3    3    0    0 -0.33063129117E+02  0.24405239595E+02 -0.26599565529E+02  0.48952253401E+02  0.00000000000E+00 0.  1.
         11    1    3    3    0    0  0.37879558329E+02 -0.34458405454E+02 -0.27864487209E+02  0.58298132844E+02  0.00000000000E+00 0. -1.
          3    1    1    2  501    0 -0.99100944004E+02  0.36160278516E+02 -0.54436305969E+03  0.55449049009E+03  0.00000000000E+00 0. -1.
<scales pt_clust_5="13000.00000" pt_clust_6="13000.00000" pt_clust_7="13000.00000" pt_clust_8="13000.00000" pt_clust_9="104.52251"></scales>
<clustering>
<clus scale="   86.644">  5  6 -1 -1</clus>
<clus scale="   91.717">  7  8 -1 -1</clus>
<clus scale="   92.392">  1  7  2 -1</clus>
<clus scale="  104.523">  2  9  1 -1</clus>
<clus scale="  104.523">  2  5  1 -1</clus>
</clustering>
</event>
<event>
 9    2  0.3764910E-005  0.2458308E+03  0.7546771E-02  0.1115968E+00
         21   -1    0    0  501  502  0.00000000000E+00  0.00000000000E+00  0.30493806486E+03  0.30493806486E+03  0.00000000000E+00 0. -1.
         -3   -1    0    0    0  501 -0.00000000000E+00 -0.00000000000E+00 -0.14074454879E+03  0.14074454879E+03  0.00000000000E+00 0.  1.
         24    2    1    2    0    0 -0.10605632877E+03 -0.54933195024E+02  0.84539913767E+02  0.16696886597E+03  0.80411469306E+02 0.  0.
         23    2    1    2    0    0 -0.45168472346E+02  0.19096633837E+02  0.69140253453E+02  0.12294555422E+03  0.89052581867E+02 0.  0.
        -13    1    3    3    0    0 -0.47477676008E+02 -0.55605151290E+01 -0.62121554173E+01  0.48204148396E+02  0.00000000000E+00 0.  1.
         14    1    3    3    0    0 -0.58578652766E+02 -0.49372679895E+02  0.90752069184E+02  0.11876471758E+03  0.00000000000E+00 0. -1.
        -13    1    4    4    0    0 -0.58772722881E+02 -0.16779666983E+02  0.29822599012E+02  0.68008658204E+02  0.00000000000E+00 0.  1.
         13    1    4    4    0    0  0.13604250535E+02  0.35876300820E+02  0.39317654441E+02  0.54936896017E+02  0.00000000000E+00 0. -1.
         -4    1    1    2    0  502  0.15122480112E+03  0.35836561186E+02  0.10513348851E+02  0.15576819347E+03  0.00000000000E+00 0.  1.
<scales pt_clust_5="13000.00000" pt_clust_6="13000.00000" pt_clust_7="13000.00000" pt_clust_8="13000.00000" pt_clust_9="155.41307"></scales>
<clustering>
<clus scale="   80.411">  5  6 -1 -1</clus>
<clus scale="   89.053">  7  8 -1 -1</clus>
<clus scale="   99.397">  5  7 -1 -1</clus>
<clus scale="  155.413">  1  9  2 -1</clus>
<clus scale="  155.413">  1  5  2 -1</clus>
</clustering>
</event>
<event>
 9    2  0.3764910E-005  0.1348460E+03  0.7546771E-02  0.1223582E+00
          2   -1    0    0  502    0 -0.00000000000E+00  0.00000000000E+00  0.72732352800E+03  0.72732352800E+03  0.00000000000E+00 0. -1.
         21   -1    0    0  501  502  0.00000000000E+00 -0.00000000000E+00 -0.76241794485E+02  0.76241794485E+02  0.00000000000E+00 0.  1.
         24    2    1    2    0    0 -0.59782228230E+02 -0.78130884730E+02  0.50045152989E+03  0.51620335919E+03  0.79597891399E+02 0.  0.
         23    2    1    2    0    0  0.88621621455E+02  0.50620633429E+02  0.66639756257E+01  0.13798057445E+03  0.92617439152E+02 0.  0.
        -11    1    3    3    0    0 -0.26907593863E+02 -0.55108797597E+02  0.13175101933E+03  0.14532490934E+03  0.00000000000E+00 0.  1.
         12    1    3    3    0    0 -0.32874634367E+02 -0.23022087133E+02  0.36870051056E+03  0.37087844985E+03  0.00000000000E+00 0. -1.
        -13    1    4    4    0    0  0.93370384995E+02  0.18174257086E+02  0.27635726914E+02  0.99055872198E+02  0.00000000000E+00 0. -1.
         13    1    4    4    0    0 -0.47487635397E+01  0.32446376343E+02 -0.20971751289E+02  0.38924702248E+02  0.00000000000E+00 0.  1.
          1    1    1    2  501    0 -0.28839393226E+02  0.27510251301E+02  0.14396622801E+03  0.14938138885E+03  0.00000000000E+00 0. -1.
<scales pt_clust_5="13000.00000" pt_clust_6="13000.00000" pt_clust_7="13000.00000" pt_clust_8="13000.00000" pt_clust_9="39.85632"></scales>
<clustering>
<clus scale="   39.856">  2  9  1 -1</clus>
<clus scale="   79.598">  5  6 -1 -1</clus>
<clus scale="   92.617">  7  8 -1 -1</clus>
<clus scale="  126.259">  1  5  2 -1</clus>
<clus scale="   39.856">  2  5  1 -1</clus>
</clustering>
</event>
<event>
 9    2  0.3764910E-005  0.9082636E+02  0.7546771E-02  0.1305692E+00
          2   -1    0    0  502    0 -0.00000000000E+00  0.00000000000E+00  0.82550808042E+03  0.82550808042E+03  0.00000000000E+00 0. -1.
         21   -1    0    0  501  502  0.00000000000E+00 -0.00000000000E+00 -0.31604899991E+02  0.31604899991E+02  0.00000000000E+00 0.  1.
         24    2    1    2    0    0  0.11633731185E+02  0.18693294606E+02  0.60421772806E+03  0.61005137419E+03  0.81233203054E+02 0.  0.
         23    2    1    2    0    0 -0.20046157312E+02  0.15058014386E+02  0.19100883752E+03  0.21225253959E+03  0.89096421540E+02 0.  0.
        -13    1    3    3    0    0 -0.30611016770E+02  0.17176137096E+02  0.15883952220E+03  0.16267159508E+03  0.00000000000E+00 0.  1.
         14    1    3    3    0    0  0.42244747955E+02  0.15171575101E+01  0.44537820586E+03  0.44737977911E+03  0.00000000000E+00 0. -1.
        -11    1    4    4    0    0 -0.37395371512E+02  0.40748093616E+02  0.15588460709E+03  0.16540505335E+03  0.00000000000E+00 0. -1.
         11    1    4    4    0    0  0.17349214200E+02 -0.25690079230E+02  0.35124230424E+02  0.46847486241E+02  0.00000000000E+00 0.  1.
          1    1    1    2  501    0  0.84124261270E+01 -0.33751308991E+02 -0.13233851485E+01  0.34809066638E+02  0.00000000000E+00 0. -1.
<scales pt_clust_5="13000.00000" pt_clust_6="13000.00000" pt_clust_7="13000.00000" pt_clust_8="13000.00000" pt_clust_9="34.78390"></scales>
<clustering>
<clus scale="   34.784">  2  9  1 -1</clus>
<clus scale="   81.233">  5  6 -1 -1</clus>
<clus scale="   83.127">  1  5  2 -1</clus>
<clus scale="   89.096">  7  8 -1 -1</clus>
<clus scale="   34.784">  2  5  1 -1</clus>
</clustering>
</event>
<event>
 9    2  0.3764910E-005  0.9967422E+02  0.7546771E-02  0.1286845E+00
          2   -1    0    0  502    0 -0.00000000000E+00  0.00000000000E+00  0.95802142357E+03  0.95802142357E+03  0.00000000000E+00 0. -1.
         21   -1    0    0  501  502  0.00000000000E+00 -0.00000000000E+00 -0.15821707208E+02  0.15821707208E+02  0.00000000000E+00 0. -1.
         24    2    1    2    0    0 -0.36524548893E+02  0.28461389573E+02  0.64764357185E+03  0.65424375426E+03  0.80303178408E+02 0.  0.
         23    2    1    2    0    0  0.16133911611E+02 -0.61708274346E+01  0.21086110710E+03  0.23061900488E+03  0.91784185509E+02 0.  0.
        -13    1    3    3    0    0 -0.34993053684E+02 -0.16306785436E+02  0.16190670548E+03  0.16644580601E+03  0.00000000000E+00 0.  1.
         14    1    3    3    0    0 -0.15314952090E+01  0.44768175010E+02  0.48573686636E+03  0.48779794825E+03  0.00000000000E+00 0. -1.
        -11    1    4    4    0    0 -0.21037929814E+02 -0.38054715488E+02  0.11558560378E+03  0.12349407947E+03  0.00000000000E+00 0.  1.
         11    1    4    4    0    0  0.37171841425E+02  0.31883888054E+02  0.95275503318E+02  0.10712492541E+03  0.00000000000E+00 0. -1.
          1    1    1    2  501    0  0.20390637283E+02 -0.22290562139E+02  0.83695037415E+02  0.88980371639E+02  0.00000000000E+00 0. -1.
<scales pt_clust_5="13000.00000" pt_clust_6="13000.00000" pt_clust_7="13000.00000" pt_clust_8="13000.00000" pt_clust_9="30.21005"></scales>
<clustering>
<clus scale="   30.210">  2  9  1 -1</clus>
<clus scale="   80.303">  5  6 -1 -1</clus>
<clus scale="   89.214">  1  5  2 -1</clus>
<clus scale="   91.784">  7  8 -1 -1</clus>
<clus scale="   30.210">  2  5  1 -1</clus>
</clustering>
</event>
<event>
 9    2  0.3764910E-005  0.1000015E+03  0.7546771E-02  0.1283598E+00
         21   -1    0    0  501  502  0.00000000000E+00  0.00000000000E+00  0.13905172503E+03  0.13905172503E+03  0.00000000000E+00 0. -1.
         -3   -1    0    0    0  501 -0.00000000000E+00 -0.00000000000E+00 -0.14823840087E+03  0.14823840087E+03  0.00000000000E+00 0.  1.
         24    2    1    2    0    0 -0.33846734899E+02  0.33912486645E+02 -0.96684441282E+02  0.13480545526E+03  0.80802050524E+02 0.  0.
         23    2    1    2    0    0  0.48718011827E+02 -0.17675847618E+02  0.78628493183E+02  0.12874762544E+03  0.87793113910E+02 0.  0.
        -13    1    3    3    0    0  0.23257906932E+02  0.22138171899E+02 -0.52929934149E+02  0.61908051325E+02  0.00000000000E+00 0.  1.
         14    1    3    3    0    0 -0.57104641831E+02  0.11774314746E+02 -0.43754507133E+02  0.72897403938E+02  0.00000000000E+00 0. -1.
        -13    1    4    4    0    0  0.10638374338E+02 -0.37179144965E+02 -0.63301580495E+00  0.38676408027E+02  0.00000000000E+00 0.  1.
         13    1    4    4    0    0  0.38079637488E+02  0.19503297347E+02  0.79261508988E+02  0.90071217410E+02  0.00000000000E+00 0. -1.
         -4    1    1    2    0  502 -0.14871276928E+02 -0.16236639027E+02  0.88692722615E+01  0.23737045200E+02  0.00000000000E+00 0.  1.
<scales pt_clust_5="13000.00000" pt_clust_6="13000.00000" pt_clust_7="13000.00000" pt_clust_8="13000.00000" pt_clust_9="22.01780"></scales>
<clustering>
<clus scale="   22.018">  1  9  2 -1</clus>
<clus scale="   80.802">  5  6 -1 -1</clus>
<clus scale="   87.793">  7  8 -1 -1</clus>
<clus scale="   93.924">  2  5  1 -1</clus>
<clus scale="   22.018">  1  5  2 -1</clus>
</clustering>
</event>
<event>
 9    2  0.3764910E-005  0.9971635E+02  0.7546771E-02  0.1283416E+00
          2   -1    0    0  502    0 -0.00000000000E+00  0.00000000000E+00  0.43227011256E+03  0.43227011256E+03  0.00000000000E+00 0. -1.
         21   -1    0    0  501  502  0.00000000000E+00 -0.00000000000E+00 -0.54288010122E+02  0.54288010122E+02  0.00000000000E+00 0.  1.
         23    2    1    2    0    0 -0.35176930385E+02 -0.45282525109E+02  0.31139873497E+03  0.32885689686E+03  0.88824337666E+02 0.  0.
         24    2    1    2    0    0 -0.14021118002E+02  0.21744257742E+02  0.49706401235E+02  0.10061068382E+03  0.83560629970E+02 0.  0.
        -13    1    4    4    0    0  0.14752483430E+02  0.44225127388E+02  0.12039676661E+02  0.48150300871E+02  0.00000000000E+00 0.  1.
         14    1    4    4    0    0 -0.28773601432E+02 -0.22480869646E+02  0.37666724573E+02  0.52460382952E+02  0.00000000000E+00 0. -1.
        -11    1    3    3    0    0  0.20541297150E+02 -0.14030857629E+02  0.24439684984E+02  0.34872740881E+02  0.00000000000E+00 0.  1.
         11    1    3    3    0    0 -0.55718227534E+02 -0.31251667480E+02  0.28695904999E+03  0.29398415598E+03  0.00000000000E+00 0. -1.
          1    1    1    2  501    0  0.49198048387E+02  0.23538267367E+02  0.16876966226E+02  0.57090541990E+02  0.00000000000E+00 0. -1.
<scales pt_clust_5="13000.00000" pt_clust_6="13000.00000" pt_clust_7="13000.00000" pt_clust_8="13000.00000" pt_clust_9="54.53896"></scales>
<clustering>
<clus scale="   54.539">  2  9  1 -1</clus>
<clus scale="   83.561">  5  6 -1 -1</clus>
<clus scale="   88.824">  7  8 -1 -1</clus>
<clus scale="   95.058">  2  5  1 -1</clus>
<clus scale="   54.539">  2  5  1 -1</clus>
</clustering>
</event>
<event>
 9    2  0.3764910E-005  0.1060965E+03  0.7546771E-02  0.1273280E+00
         21   -1    0    0  501  502  0.00000000000E+00  0.00000000000E+00  0.30517025168E+03  0.30517025168E+03  0.00000000000E+00 0. -1.
          2   -1    0    0  502    0 -0.00000000000E+00 -0.00000000000E+00 -0.25034677930E+03  0.25034677930E+03  0.00000000000E+00 0. -1.
         23    2    1    2    0    0 -0.45751225567E+02 -0.31101836901E+02 -0.21532168735E+03  0.24123937246E+03  0.93661661756E+02 0.  0.
         24    2    1    2    0    0  0.55750183123E+01  0.14335067473E+02  0.67875395049E+02  0.10737596714E+03  0.81767683575E+02 0.  0.
        -11    1    4    4    0    0  0.38879367146E+02  0.54825248870E+01  0.60516602480E+02  0.72138217642E+02  0.00000000000E+00 0.  1.
         12    1    4    4    0    0 -0.33304348834E+02  0.88525425856E+01  0.73587925684E+01  0.35237749496E+02  0.00000000000E+00 0. -1.
        -13    1    3    3    0    0 -0.11319499140E+01 -0.43771881470E+02 -0.17298158614E+03  0.17843735052E+03  0.00000000000E+00 0. -1.
         13    1    3    3    0    0 -0.44619275653E+02  0.12670044568E+02 -0.42340101211E+02  0.62802021940E+02  0.00000000000E+00 0.  1.
          1    1    1    2  501    0  0.40176207255E+02  0.16766769429E+02  0.20226976469E+03  0.20690169138E+03  0.00000000000E+00 0. -1.
<scales pt_clust_5="13000.00000" pt_clust_6="13000.00000" pt_clust_7="13000.00000" pt_clust_8="13000.00000" pt_clust_9="43.53449"></scales>
<clustering>
<clus scale="   43.534">  1  9  2 -1</clus>
<clus scale="   81.768">  5  6 -1 -1</clus>
<clus scale="   93.662">  7  8 -1 -1</clus>
<clus scale="   95.760">  1  5  2 -1</clus>
<clus scale="   43.534">  1  5  2 -1</clus>
</clustering>
</event>
<event>
 9    2  0.3764910E-005  0.1248579E+03  0.7546771E-02  0.1250843E+00
         21   -1    0    0  501  502  0.00000000000E+00  0.00000000000E+00  0.45223317143E+02  0.45223317143E+02  0.00000000000E+00 0.  1.
          2   -1    0    0  502    0 -0.00000000000E+00 -0.00000000000E+00 -0.70668675385E+03  0.70668675385E+03  0.00000000000E+00 0. -1.
         23    2    1    2    0    0 -0.18940060605E+01  0.97561909215E+01 -0.18309681385E+03  0.20454694359E+03  0.90643468429E+02 0.  0.
         24    2    1    2    0    0 -0.70912068912E+02  0.59868426564E+02 -0.10917910539E+03  0.16467822443E+03  0.81154732028E+02 0.  0.
        -13    1    4    4    0    0 -0.82126409683E+02  0.68130428323E+02 -0.83614181274E+02  0.13556486913E+03  0.00000000000E+00 0.  1.
         14    1    4    4    0    0  0.11214340771E+02 -0.82620017589E+01 -0.25564924113E+02  0.29113355301E+02  0.00000000000E+00 0. -1.
        -11    1    3    3    0    0  0.29729254904E+02 -0.28529800423E+02 -0.91685417704E+02  0.10051862479E+03  0.00000000000E+00 0. -1.
         11    1    3    3    0    0 -0.31623260965E+02  0.38285991345E+02 -0.91411396143E+02  0.10402831880E+03  0.00000000000E+00 0.  1.
          1    1    1    2  501    0  0.72806074972E+02 -0.69624617485E+02 -0.36918751747E+03  0.38268490298E+03  0.00000000000E+00 0. -1.
<scales pt_clust_5="13000.00000" pt_clust_6="13000.00000" pt_clust_7="13000.00000" pt_clust_8="13000.00000" pt_clust_9="94.88628"></scales>
<clustering>
<clus scale="   81.155">  5  6 -1 -1</clus>
<clus scale="   90.643">  7  8 -1 -1</clus>
<clus scale="   91.187">  2  7  1 -1</clus>
<clus scale="   94.886">  1  9  2 -1</clus>
<clus scale="   94.886">  1  5  2 -1</clus>
</clustering>
</event>
<event>
 9    2  0.3764910E-005  0.9754578E+02  0.7546771E-02  0.1291358E+00
          2   -1    0    0  502    0 -0.00000000000E+00  0.00000000000E+00  0.28588886676E+03  0.28588886676E+03  0.00000000000E+00 0. -1.
         21   -1    0    0  501  502  0.00000000000E+00 -0.00000000000E+00 -0.41642223041E+02  0.41642223041E+02  0.00000000000E+00 0.  1.
         23    2    1    2    0    0  0.39775849968E+02  0.16732316688E+02  0.12634380925E+03  0.16153853801E+03  0.90938729178E+02 0.  0.
         24    2    1    2    0    0 -0.30423885395E+02  0.12045469105E+02  0.83801138273E+02  0.12040147942E+03  0.80019868417E+02 0.  0.
        -13    1    4    4    0    0 -0.46163793598E+02 -0.19272998003E+02  0.59574991321E+02  0.77792826676E+02  0.00000000000E+00 0.  1.
         14    1    4    4    0    0  0.15739908204E+02  0.31318467108E+02  0.24226146953E+02  0.42608652741E+02  0.00000000000E+00 0. -1.
        -11    1    3    3    0    0 -0.27371185924E+02  0.87366899352E+01  0.18256246953E+02  0.34041182746E+02  0.00000000000E+00 0. -1.
         11    1    3    3    0    0  0.67147035892E+02  0.79956267532E+01  0.10808756230E+03  0.12749735527E+03  0.00000000000E+00 0.  1.
          1    1    1    2  501    0 -0.93519645733E+01 -0.28777785794E+02  0.34101696194E+02  0.45591072371E+02  0.00000000000E+00 0. -1.
<scales pt_clust_5="13000.00000" pt_clust_6="13000.00000" pt_clust_7="13000.00000" pt_clust_8="13000.00000" pt_clust_9="30.25923"></scales>
<clustering>
<clus scale="   30.259">  2  9  1 -1</clus>
<clus scale="   80.020">  5  6 -1 -1</clus>
<clus scale="   87.456">  2  5  1 -1</clus>
<clus scale="   90.939">  7  8 -1 -1</clus>
<clus scale="   30.259">  2  5  1 -1</clus>
</clustering>
</event>
<event>
 9    2  0.3764910E-005  0.2015003E+03  0.7546771E-02  0.1163406E+00
          2   -1    0    0  502    0 -0.00000000000E+00  0.00000000000E+00  0.11054207005E+04  0.11054207005E+04  0.00000000000E+00 0. -1.
         21   -1    0    0  501  502  0.00000000000E+00 -0.00000000000E+00 -0.82467573950E+02  0.82467573950E+02  0.00000000000E+00 0. -1.
         24    2    1    2    0    0  0.10888622374E+03 -0.41936336550E+02  0.54436903654E+03  0.56258397020E+03  0.80921008068E+02 0.  0.
         23    2    1    2    0    0 -0.81003229093E+02 -0.15252590494E+03  0.30764941203E+03  0.36489752842E+03  0.93147038179E+02 0.  0.
        -13    1    3    3    0    0  0.61033965057E+01 -0.37511503909E+02  0.11752834007E+03  0.12352034284E+03  0.00000000000E+00 0.  1.
         14    1    3    3    0    0  0.10278282724E+03 -0.44248326407E+01  0.42684069646E+03  0.43906362737E+03  0.00000000000E+00 0. -1.
        -11    1    4    4    0    0 -0.93146751205E+02 -0.80567363616E+02  0.18788431142E+03  0.22465068844E+03  0.00000000000E+00 0.  1.
         11    1    4    4    0    0  0.12143522112E+02 -0.71958541323E+02  0.11976510062E+03  0.14024683998E+03  0.00000000000E+00 0. -1.
          1    1    1    2  501    0 -0.27882994648E+02  0.19446224149E+03  0.17093467796E+03  0.26040677580E+03  0.00000000000E+00 0. -1.
<scales pt_clust_5="13000.00000" pt_clust_6="13000.00000" pt_clust_7="13000.00000" pt_clust_8="13000.00000" pt_clust_9="178.67848"></scales>
<clustering>
<clus scale="   80.921">  5  6 -1 -1</clus>
<clus scale="   93.147">  7  8 -1 -1</clus>
<clus scale="  141.997">  1  5  2 -1</clus>
<clus scale="  178.678">  2  9  1 -1</clus>
<clus scale="  178.678">  2  5  1 -1</clus>
</clustering>
</event>
<event>
 9    2  0.3764910E-005  0.1010865E+03  0.7546771E-02  0.1284499E+00
         21   -1    0    0  501  502  0.00000000000E+00  0.00000000000E+00  0.22643859657E+03  0.22643859657E+03  0.00000000000E+00 0.  1.
         -1   -1    0    0    0  501 -0.00000000000E+00 -0.00000000000E+00 -0.67074610454E+02  0.67074610454E+02  0.00000000000E+00 0.  1.
         23    2    1    2    0    0 -0.46989368966E+02 -0.13414144384E+02  0.27630173333E+01  0.10405546067E+03  0.91825729323E+02 0.  0.
         24    2    1    2    0    0  0.23485206750E+02  0.11667580960E+02  0.11978106080E+03  0.14574045287E+03  0.78772391708E+02 0.  0.
        -11    1    4    4    0    0 -0.16497194871E+02  0.28684218139E+02  0.81000873177E+02  0.87499047219E+02  0.00000000000E+00 0.  1.
         12    1    4    4    0    0  0.39982401621E+02 -0.17016637179E+02  0.38780187618E+02  0.58241405649E+02  0.00000000000E+00 0. -1.
        -11    1    3    3    0    0 -0.88759606588E+01  0.36125019460E+02 -0.13325219343E+02  0.39514063055E+02  0.00000000000E+00 0. -1.
         11    1    3    3    0    0 -0.38113408307E+02 -0.49539163844E+02  0.16088236677E+02  0.64541397618E+02  0.00000000000E+00 0.  1.
         -2    1    1    2    0  502  0.23504162216E+02  0.17465634234E+01  0.36819907986E+02  0.43717293482E+02  0.00000000000E+00 0.  1.
<scales pt_clust_5="13000.00000" pt_clust_6="13000.00000" pt_clust_7="13000.00000" pt_clust_8="13000.00000" pt_clust_9="23.56897"></scales>
<clustering>
<clus scale="   23.569">  1  9  2 -1</clus>
<clus scale="   78.772">  5  6 -1 -1</clus>
<clus scale="   89.396">  1  5  2 -1</clus>
<clus scale="   91.826">  7  8 -1 -1</clus>
<clus scale="   23.569">  1  5  2 -1</clus>
</clustering>
</event>
<event>
 9    2  0.3764910E-005  0.1406548E+03  0.7546771E-02  0.1214889E+00
          2   -1    0    0  502    0 -0.00000000000E+00  0.00000000000E+00  0.18160144660E+04  0.18160144660E+04  0.00000000000E+00 0. -1.
         21   -1    0    0  501  502  0.00000000000E+00 -0.00000000000E+00 -0.62137681409E+02  0.62137681409E+02  0.00000000000E+00 0. -1.
         24    2    1    2    0    0 -0.92218561267E+01  0.12129218795E+03  0.14160355868E+04  0.14234908783E+04  0.79828942753E+02 0.  0.
         23    2    1    2    0    0  0.15984268768E+02 -0.71173134802E+02  0.37444311584E+03  0.39223250866E+03  0.91200777903E+02 0.  0.
        -11    1    3    3    0    0 -0.26963216725E+02  0.28617075303E+02  0.20181219398E+03  0.20560669661E+03  0.00000000000E+00 0.  1.
         12    1    3    3    0    0  0.17741360599E+02  0.92675112649E+02  0.12142233928E+04  0.12178841817E+04  0.00000000000E+00 0. -1.
        -13    1    4    4    0    0 -0.19542468110E+02  0.53455944614E+01  0.22319564793E+02  0.30143762415E+02  0.00000000000E+00 0. -1.
         13    1    4    4    0    0  0.35526736877E+02 -0.76518729263E+02  0.35212355104E+03  0.36208874625E+03  0.00000000000E+00 0.  1.
          1    1    1    2  501    0 -0.67624126412E+01 -0.50119053151E+02 -0.36601918094E+02  0.62428760372E+02  0.00000000000E+00 0. -1.
<scales pt_clust_5="13000.00000" pt_clust_6="13000.00000" pt_clust_7="13000.00000" pt_clust_8="13000.00000" pt_clust_9="50.57321"></scales>
<clustering>
<clus scale="   50.573">  2  9  1 -1</clus>
<clus scale="   79.829">  5  6 -1 -1</clus>
<clus scale="   91.201">  7  8 -1 -1</clus>
<clus scale="  133.562">  1  5  2 -1</clus>
<clus scale="   50.573">  2  5  1 -1</clus>
</clustering>
</event>
<event>
 9    2  0.3764910E-005  0.1001132E+03  0.7546771E-02  0.1287034E+00
         21   -1    0    0  501  502  0.00000000000E+00  0.00000000000E+00  0.69064289625E+03  0.69064289625E+03  0.00000000000E+00 0.  1.
          4   -1    0    0  502    0 -0.00000000000E+00 -0.00000000000E+00 -0.18691030154E+03  0.18691030154E+03  0.00000000000E+00 0. -1.
         23    2    1    2    0    0 -0.14269612105E+02 -0.27595619388E+02 -0.15409285350E+03  0.18335799924E+03  0.94394959341E+02 0.  0.
         24    2    1    2    0    0  0.74674295285E+02  0.82067126734E+02  0.46562847890E+03  0.48549554384E+03  0.81146651580E+02 0.  0.
        -11    1    4    4    0    0  0.90746981760E+02  0.71097454663E+02  0.42635470035E+03  0.44166525024E+03  0.00000000000E+00 0.  1.
         12    1    4    4    0    0 -0.16072686475E+02  0.10969672071E+02  0.39273778548E+02  0.43830293603E+02  0.00000000000E+00 0. -1.
        -13    1    3    3    0    0  0.13310632995E+02  0.30753987722E+02 -0.67487870390E+02  0.75349806644E+02  0.00000000000E+00 0.  1.
         13    1    3    3    0    0 -0.27580245100E+02 -0.58349607110E+02 -0.86604983106E+02  0.10800819260E+03  0.00000000000E+00 0. -1.
          3    1    1    2  501    0 -0.60404683179E+02 -0.54471507346E+02  0.19219696930E+03  0.20869965470E+03  0.00000000000E+00 0. -1.
<scales pt_clust_5="13000.00000" pt_clust_6="13000.00000" pt_clust_7="13000.00000" pt_clust_8="13000.00000" pt_clust_9="81.33800"></scales>
<clustering>
<clus scale="   81.147">  5  6 -1 -1</clus>
<clus scale="   81.338">  1  9  2 -1</clus>
<clus scale="   87.733">  1  5  2 -1</clus>
<clus scale="   94.395">  7  8 -1 -1</clus>
<clus scale="   81.338">  1  5  2 -1</clus>
</clustering>
</event>
<event>
 9    2  0.3764910E-005  0.1582779E+03  0.7546771E-02  0.1192370E+00
          2   -1    0    0  502    0 -0.00000000000E+00  0.00000000000E+00  0.60719120712E+03  0.60719120712E+03  0.00000000000E+00 0. -1.
         21   -1    0    0  501  502  0.00000000000E+00 -0.00000000000E+00 -0.16778240753E+03  0.16778240753E+03  0.00000000000E+00 0.  1.
         24    2    1    2    0    0  0.49284027318E+02  0.12511130323E+03  0.26955669674E+03  0.31185279962E+03  0.80682106637E+02 0.  0.
         23    2    1    2    0    0 -0.68108429240E+02 -0.73616129891E+02 -0.11206226316E+03  0.17592433046E+03  0.91287055544E+02 0.  0.
        -13    1    3    3    0    0  0.39669337448E+02  0.14950194223E+02  0.46713513980E+02  0.63081828042E+02  0.00000000000E+00 0.  1.
         14    1    3    3    0    0  0.96146898703E+01  0.11016110900E+03  0.22284318276E+03  0.24877097158E+03  0.00000000000E+00 0. -1.
        -11    1    4    4    0    0 -0.45494630911E+02 -0.19297177801E+02 -0.10577684292E+03  0.11675137263E+03  0.00000000000E+00 0.  1.
         11    1    4    4    0    0 -0.22613798329E+02 -0.54318952089E+02 -0.62854202414E+01  0.59172957832E+02  0.00000000000E+00 0. -1.
          1    1    1    2  501    0  0.18824401922E+02 -0.51495173336E+02  0.28191436601E+03  0.28719648457E+03  0.00000000000E+00 0. -1.
<scales pt_clust_5="13000.00000" pt_clust_6="13000.00000" pt_clust_7="13000.00000" pt_clust_8="13000.00000" pt_clust_9="54.82804"></scales>
<clustering>
<clus scale="   54.828">  2  9  1 -1</clus>
<clus scale="   80.682">  5  6 -1 -1</clus>
<clus scale="   91.287">  7  8 -1 -1</clus>
<clus scale="  152.408">  1  5  2 -1</clus>
<clus scale="   54.828">  2  5  1 -1</clus>
</clustering>
</event>
<event>
 9    2  0.3764910E-005  0.2552842E+03  0.7546771E-02  0.1135724E+00
         21   -1    0    0  501  502  0.00000000000E+00  0.00000000000E+00  0.10941107169E+03  0.10941107169E+03  0.00000000000E+00 0. -1.
          2   -1    0    0  502    0 -0.00000000000E+00 -0.00000000000E+00 -0.10668796889E+04  0.10668796889E+04  0.00000000000E+00 0. -1.
         24    2    1    2    0    0 -0.10878178406E+03  0.52769854689E+01 -0.65331878496E+02  0.14964703240E+03  0.79149585226E+02 0.  0.
         23    2    1    2    0    0  0.28144705084E+03 -0.64165011458E+02 -0.39845633873E+03  0.50033447378E+03  0.90760898251E+02 0.  0.
        -13    1    3    3    0    0 -0.75520162310E+02 -0.58128868739E+01 -0.27551311271E+00  0.75744045816E+02  0.00000000000E+00 0.  1.
         14    1    3    3    0    0 -0.33261621747E+02  0.11089872343E+02 -0.65056365383E+02  0.73902986589E+02  0.00000000000E+00 0. -1.
        -11    1    4    4    0    0  0.16100690107E+03 -0.78643652882E+02 -0.26599058105E+03  0.32071644102E+03  0.00000000000E+00 0. -1.
         11    1    4    4    0    0  0.12044014977E+03  0.14478641423E+02 -0.13246575768E+03  0.17961803276E+03  0.00000000000E+00 0.  1.
          1    1    1    2  501    0 -0.17266526678E+03  0.58888025990E+02 -0.49368040001E+03  0.52630925445E+03  0.00000000000E+00 0. -1.
<scales pt_clust_5="13000.00000" pt_clust_6="13000.00000" pt_clust_7="13000.00000" pt_clust_8="13000.00000" pt_clust_9="238.60542"></scales>
<clustering>
<clus scale="   79.150">  5  6 -1 -1</clus>
<clus scale="   90.761">  7  8 -1 -1</clus>
<clus scale="  134.633">  2  5  1 -1</clus>
<clus scale="  238.605">  1  9  2 -1</clus>
<clus scale="  238.605">  1  5  2 -1</clus>
</clustering>
</event>
<event>
 9    2  0.3764910E-005  0.1021922E+03  0.7546771E-02  0.1281089E+00
         -3   -1    0    0    0  501 -0.00000000000E+00  0.00000000000E+00  0.32874356601E+03  0.32874356601E+03  0.00000000000E+00 0.  1.
         21   -1    0    0  501  502  0.00000000000E+00 -0.00000000000E+00 -0.55459752720E+02  0.55459752720E+02  0.00000000000E+00 0. -1.
         24    2    1    2    0    0 -0.13328785853E+02  0.11881624695E+02  0.59321144910E+02  0.10050143363E+03  0.79137288240E+02 0.  0.
         23    2    1    2    0    0  0.68310043736E+02 -0.44894881979E+02  0.13345083012E+03  0.18077001455E+03  0.90481277612E+02 0.  0.
        -13    1    3    3    0    0 -0.24773347772E+02  0.40238467340E+02  0.21637183176E+02  0.51971345081E+02  0.00000000000E+00 0.  1.
         14    1    3    3    0    0  0.11444561919E+02 -0.28356842645E+02  0.37683961735E+02  0.48530088547E+02  0.00000000000E+00 0. -1.
        -13    1    4    4    0    0  0.39802475928E+02  0.17391590988E+02  0.89217567671E+02  0.99229425617E+02  0.00000000000E+00 0. -1.
         13    1    4    4    0    0  0.28507567808E+02 -0.62286472966E+02  0.44233262446E+02  0.81540588933E+02  0.00000000000E+00 0.  1.
         -4    1    1    2    0  502 -0.54981257883E+02  0.33013257284E+02  0.80511838260E+02  0.10293187055E+03  0.00000000000E+00 0.  1.
<scales pt_clust_5="13000.00000" pt_clust_6="13000.00000" pt_clust_7="13000.00000" pt_clust_8="13000.00000" pt_clust_9="64.13126"></scales>
<clustering>
<clus scale="   64.131">  2  9  1 -1</clus>
<clus scale="   79.137">  5  6 -1 -1</clus>
<clus scale="   90.481">  7  8 -1 -1</clus>
<clus scale="   92.299">  1  5  2 -1</clus>
<clus scale="   64.131">  2  5  1 -1</clus>
</clustering>
</event>
<event>
 9    2  0.3764910E-005  0.1009554E+03  0.7546771E-02  0.1282669E+00
         21   -1    0    0  501  502  0.00000000000E+00  0.00000000000E+00  0.14950015226E+03  0.14950015226E+03  0.00000000000E+00 0.  1.
         -1   -1    0    0    0  501 -0.00000000000E+00 -0.00000000000E+00 -0.89801058470E+02  0.89801058470E+02  0.00000000000E+00 0.  1.
         23    2    1    2    0    0 -0.25131167956E+02 -0.20746598515E+02  0.17302869007E+01  0.97081080268E+02  0.91431642775E+02 0.  0.
         24    2    1    2    0    0  0.47548862474E+02  0.36426105715E+02  0.51117277995E+02  0.11401829681E+03  0.82458719351E+02 0.  0.
        -11    1    4    4    0    0  0.52567378025E+02  0.58792941180E+02  0.37182238821E+02  0.87192075607E+02  0.00000000000E+00 0.  1.
         12    1    4    4    0    0 -0.50185155511E+01 -0.22366835465E+02  0.13935039174E+02  0.26826221199E+02  0.00000000000E+00 0. -1.
        -11    1    3    3    0    0  0.34540958712E+02 -0.28855139547E+01 -0.16599163311E+01  0.34700999146E+02  0.00000000000E+00 0.  1.
         11    1    3    3    0    0 -0.59672126668E+02 -0.17861084560E+02  0.33902032317E+01  0.62380081121E+02  0.00000000000E+00 0. -1.
         -2    1    1    2    0  502 -0.22417694518E+02 -0.15679507200E+02  0.68515288994E+01  0.28201833660E+02  0.00000000000E+00 0.  1.
<scales pt_clust_5="13000.00000" pt_clust_6="13000.00000" pt_clust_7="13000.00000" pt_clust_8="13000.00000" pt_clust_9="27.35691"></scales>
<clustering>
<clus scale="   27.357">  1  9  2 -1</clus>
<clus scale="   82.459">  5  6 -1 -1</clus>
<clus scale="   91.432">  7  8 -1 -1</clus>
<clus scale="   92.907">  1  5  2 -1</clus>
<clus scale="   27.357">  1  5  2 -1</clus>
</clustering>
</event>
<event>
 9    2  0.3764910E-005  0.1329118E+03  0.7546771E-02  0.1234270E+00
          2   -1    0    0  502    0 -0.00000000000E+00  0.00000000000E+00  0.37163778300E+02  0.37163778300E+02  0.00000000000E+00 0. -1.
         21   -1    0    0  501  502  0.00000000000E+00 -0.00000000000E+00 -0.83541917284E+03  0.83541917284E+03  0.00000000000E+00 0. -1.
         23    2    1    2    0    0  0.16708181636E+02  0.53420136646E+02 -0.20640654373E+03  0.23189582096E+03  0.89661229919E+02 0.  0.
         24    2    1    2    0    0  0.96151066622E+02 -0.40322380440E+02 -0.30567301412E+03  0.33278232243E+03  0.80231917465E+02 0.  0.
        -13    1    4    4    0    0  0.33174313186E+02 -0.63445724156E+01 -0.22202914948E+02  0.40419773461E+02  0.00000000000E+00 0.  1.
         14    1    4    4    0    0  0.62976753437E+02 -0.33977808024E+02 -0.28347009918E+03  0.29236254897E+03  0.00000000000E+00 0. -1.
        -11    1    3    3    0    0  0.12346891731E+02 -0.24615792686E+02 -0.54278635096E+02  0.60865040975E+02  0.00000000000E+00 0.  1.
         11    1    3    3    0    0  0.43612899049E+01  0.78035929332E+02 -0.15212790863E+03  0.17103077998E+03  0.00000000000E+00 0. -1.
          1    1    1    2  501    0 -0.11285924826E+03 -0.13097756206E+02 -0.28617583669E+03  0.30790480776E+03  0.00000000000E+00 0. -1.
<scales pt_clust_5="13000.00000" pt_clust_6="13000.00000" pt_clust_7="13000.00000" pt_clust_8="13000.00000" pt_clust_9="105.96410"></scales>
<clustering>
<clus scale="   80.232">  5  6 -1 -1</clus>
<clus scale="   89.661">  7  8 -1 -1</clus>
<clus scale="  105.698">  1  7  2 -1</clus>
<clus scale="  105.964">  2  9  1 -1</clus>
<clus scale="  105.964">  2  5  1 -1</clus>
</clustering>
</event>
<event>
 9    2  0.3764910E-005  0.9513656E+02  0.7546771E-02  0.1296007E+00
          2   -1    0    0  502    0 -0.00000000000E+00  0.00000000000E+00  0.37077428942E+03  0.37077428942E+03  0.00000000000E+00 0. -1.
         21   -1    0    0  501  502  0.00000000000E+00 -0.00000000000E+00 -0.23857656013E+03  0.23857656013E+03  0.00000000000E+00 0. -1.
         23    2    1    2    0    0 -0.19392544438E+02  0.63578696018E+01  0.25093442366E+03  0.26752949548E+03  0.90484543910E+02 0.  0.
         24    2    1    2    0    0  0.52693251036E+02 -0.61279323072E+01  0.88837200510E+02  0.13159311674E+03  0.81305411387E+02 0.  0.
        -13    1    4    4    0    0  0.20464613556E+02  0.35614797313E+02  0.56070068273E+02  0.69505875664E+02  0.00000000000E+00 0.  1.
         14    1    4    4    0    0  0.32228637480E+02 -0.41742729620E+02  0.32767132237E+02  0.62087241080E+02  0.00000000000E+00 0. -1.
        -13    1    3    3    0    0  0.44815885624E+01  0.45755690422E+02  0.10875654843E+03  0.11807478422E+03  0.00000000000E+00 0.  1.
         13    1    3    3    0    0 -0.23874133000E+02 -0.39397820821E+02  0.14217787524E+03  0.14945471126E+03  0.00000000000E+00 0. -1.
          1    1    1    2  501    0 -0.33300706598E+02 -0.22993729466E+00 -0.20757389489E+03  0.21022823733E+03  0.00000000000E+00 0. -1.
<scales pt_clust_5="13000.00000" pt_clust_6="13000.00000" pt_clust_7="13000.00000" pt_clust_8="13000.00000" pt_clust_9="33.30150"></scales>
<clustering>
<clus scale="   33.302">  2  9  1 -1</clus>
<clus scale="   81.305">  5  6 -1 -1</clus>
<clus scale="   86.453">  2  5  1 -1</clus>
<clus scale="   90.485">  7  8 -1 -1</clus>
<clus scale="   33.302">  2  5  1 -1</clus>
</clustering>
</event>
<event>
 9    2  0.3764910E-005  0.1021592E+03  0.7546771E-02  0.1279783E+00
         21   -1    0    0  501  502  0.00000000000E+00  0.00000000000E+00  0.28591569965E+03  0.28591569965E+03  0.00000000000E+00 0. -1.
          4   -1    0    0  502    0 -0.00000000000E+00 -0.00000000000E+00 -0.12871103867E+03  0.12871103867E+03  0.00000000000E+00 0. -1.
         24    2    1    2    0    0  0.41713305649E+02 -0.27926920204E+02 -0.77733185980E+02  0.12627415213E+03  0.85923224761E+02 0.  0.
         23    2    1    2    0    0  0.47355079460E+01  0.26387108698E+01  0.76651345379E+02  0.12146459262E+03  0.94068223552E+02 0.  0.
        -11    1    3    3    0    0  0.42753730981E+02 -0.47945151930E+00  0.11230299089E+01  0.42771165319E+02  0.00000000000E+00 0.  1.
         12    1    3    3    0    0 -0.10404253325E+01 -0.27447468685E+02 -0.78856215889E+02  0.83502986811E+02  0.00000000000E+00 0. -1.
        -13    1    4    4    0    0 -0.36511102077E+02 -0.22816189559E+02  0.50600812320E+02  0.66438552726E+02  0.00000000000E+00 0.  1.
         13    1    4    4    0    0  0.41246610023E+02  0.25454900429E+02  0.26050533059E+02  0.55026039898E+02  0.00000000000E+00 0. -1.
          3    1    1    2  501    0 -0.46448813595E+02  0.25288209335E+02  0.15828650158E+03  0.16688799357E+03  0.00000000000E+00 0. -1.
<scales pt_clust_5="13000.00000" pt_clust_6="13000.00000" pt_clust_7="13000.00000" pt_clust_8="13000.00000" pt_clust_9="52.88654"></scales>
<clustering>
<clus scale="   52.887">  1  9  2 -1</clus>
<clus scale="   85.923">  5  6 -1 -1</clus>
<clus scale="   94.068">  7  8 -1 -1</clus>
<clus scale="   94.713">  2  5  1 -1</clus>
<clus scale="   52.887">  1  5  2 -1</clus>
</clustering>
</event>
<event>
 9    2  0.3764910E-005  0.9360278E+02  0.7546771E-02  0.1299862E+00
         21   -1    0    0  501  502  0.00000000000E+00  0.00000000000E+00  0.52266608328E+02  0.52266608328E+02  0.00000000000E+00 0. -1.
         -3   -1    0    0    0  501 -0.00000000000E+00 -0.00000000000E+00 -0.33913323076E+03  0.33913323076E+03  0.00000000000E+00 0.  1.
         23    2    1    2    0    0  0.13354288401E+01  0.23339357836E+02 -0.24179722244E+03  0.25881071392E+03  0.89278104066E+02 0.  0.
         24    2    1    2    0    0  0.20411794170E+02 -0.44746162256E+02 -0.39100153432E+02  0.10149531729E+03  0.79709579444E+02 0.  0.
        -13    1    4    4    0    0  0.34760266006E+02 -0.34834472282E+02 -0.57809519586E+02  0.75918753327E+02  0.00000000000E+00 0.  1.
         14    1    4    4    0    0 -0.14348471836E+02 -0.99116899741E+01  0.18709366154E+02  0.25576563961E+02  0.00000000000E+00 0. -1.
        -11    1    3    3    0    0  0.38000906516E+02 -0.13059254636E+02 -0.93386084667E+02  0.10166402430E+03  0.00000000000E+00 0. -1.
         11    1    3    3    0    0 -0.36665477676E+02  0.36398612472E+02 -0.14841113777E+03  0.15714668962E+03  0.00000000000E+00 0.  1.
         -4    1    1    2    0  502 -0.21747223010E+02  0.21406804420E+02 -0.59692465643E+01  0.31093807883E+02  0.00000000000E+00 0.  1.
<scales pt_clust_5="13000.00000" pt_clust_6="13000.00000" pt_clust_7="13000.00000" pt_clust_8="13000.00000" pt_clust_9="30.51545"></scales>
<clustering>
<clus scale="   30.515">  1  9  2 -1</clus>
<clus scale="   79.710">  5  6 -1 -1</clus>
<clus scale="   84.525">  1  5  2 -1</clus>
<clus scale="   89.278">  7  8 -1 -1</clus>
<clus scale="   30.515">  1  5  2 -1</clus>
</clustering>
</event>
<event>
 9    2  0.3764910E-005  0.2385837E+03  0.7546771E-02  0.1121941E+00
         21   -1    0    0  501  502  0.00000000000E+00  0.00000000000E+00  0.12907363605E+03  0.12907363605E+03  0.00000000000E+00 0. -1.
         -1   -1    0    0    0  501 -0.00000000000E+00 -0.00000000000E+00 -0.58735408233E+03  0.58735408233E+03  0.00000000000E+00 0.  1.
         23    2    1    2    0    0 -0.22009732026E+03  0.48102926981E+02 -0.36575324354E+03  0.43920183295E+03  0.91466348637E+02 0.  0.
         24    2    1    2    0    0  0.19845344980E+03 -0.74322222222E+02 -0.95561112351E+02  0.24309213119E+03  0.71093555252E+02 0.  0.
        -13    1    4    4    0    0  0.87072233934E+02 -0.56796625502E+02 -0.75711543755E+02  0.12860664232E+03  0.00000000000E+00 0.  1.
         14    1    4    4    0    0  0.11138121587E+03 -0.17525596720E+02 -0.19849568597E+02  0.11448548887E+03  0.00000000000E+00 0. -1.
        -13    1    3    3    0    0 -0.38942090516E+02 -0.11560751947E+02 -0.22290132281E+02  0.46335595350E+02  0.00000000000E+00 0. -1.
         13    1    3    3    0    0 -0.18115522974E+03  0.59663678929E+02 -0.34346311126E+03  0.39286623760E+03  0.00000000000E+00 0.  1.
         -2    1    1    2    0  502  0.21643870454E+02  0.26219295240E+02  0.30339096094E+01  0.34133754242E+02  0.00000000000E+00 0.  1.
<scales pt_clust_5="13000.00000" pt_clust_6="13000.00000" pt_clust_7="13000.00000" pt_clust_8="13000.00000" pt_clust_9="33.99866"></scales>
<clustering>
<clus scale="   33.999">  1  9  2 -1</clus>
<clus scale="   71.094">  5  6 -1 -1</clus>
<clus scale="   91.466">  7  8 -1 -1</clus>
<clus scale="  231.539">  1  5  2 -1</clus>
<clus scale="   33.999">  1  5  2 -1</clus>
</clustering>
</event>
<event>
 9    2  0.3764910E-005  0.1192397E+03  0.7546771E-02  0.1249124E+00
         21   -1    0    0  501  502  0.00000000000E+00  0.00000000000E+00  0.98177824257E+02  0.98177824257E+02  0.00000000000E+00 0. -1.
          2   -1    0    0  502    0 -0.00000000000E+00 -0.00000000000E+00 -0.60652439965E+03  0.60652439965E+03  0.00000000000E+00 0. -1.
         23    2    1    2    0    0  0.46707424393E+02  0.36412671219E+02 -0.16714068351E+03  0.19918806865E+03  0.90732642908E+02 0.  0.
         24    2    1    2    0    0  0.67035914817E+02 -0.53816132953E+02  0.25933427188E+02  0.12076526663E+03  0.80757147897E+02 0.  0.
        -11    1    4    4    0    0  0.21728073227E+02  0.58097677596E+01  0.38735706972E+02  0.44791936353E+02  0.00000000000E+00 0.  1.
         12    1    4    4    0    0  0.45307841590E+02 -0.59625900713E+02 -0.12802279784E+02  0.75973330275E+02  0.00000000000E+00 0. -1.
        -13    1    3    3    0    0 -0.26811902517E+02  0.18522663517E+02 -0.46485639125E+02  0.56770430906E+02  0.00000000000E+00 0.  1.
         13    1    3    3    0    0  0.73519326910E+02  0.17890007702E+02 -0.12065504438E+03  0.14241763774E+03  0.00000000000E+00 0. -1.
          1    1    1    2  501    0 -0.11374333921E+03  0.17403461734E+02 -0.36713931908E+03  0.38474888864E+03  0.00000000000E+00 0. -1.
<scales pt_clust_5="13000.00000" pt_clust_6="13000.00000" pt_clust_7="13000.00000" pt_clust_8="13000.00000" pt_clust_9="87.72916"></scales>
<clustering>
<clus scale="   80.757">  5  6 -1 -1</clus>
<clus scale="   90.733">  7  8 -1 -1</clus>
<clus scale="  108.351">  2  7  1 -1</clus>
<clus scale="   87.729">  1  9  2 -1</clus>
<clus scale="   87.729">  1  5  2 -1</clus>
</clustering>
</event>
<event>
 9    2  0.3764910E-005  0.9593877E+02  0.7546771E-02  0.1295574E+00
         -1   -1    0    0    0  501 -0.00000000000E+00  0.00000000000E+00  0.18774858768E+03  0.18774858768E+03  0.00000000000E+00 0.  1.
         21   -1    0    0  501  502  0.00000000000E+00 -0.00000000000E+00 -0.12091161503E+03  0.12091161503E+03  0.00000000000E+00 0. -1.
         23    2    1    2    0    0  0.22858942942E+02  0.20502153428E+02  0.11863602539E+03  0.15375694596E+03  0.92864537595E+02 0.  0.
         24    2    1    2    0    0  0.62629178598E-01  0.15003316723E+02 -0.70396875452E+02  0.10873058205E+03  0.81495496593E+02 0.  0.
        -11    1    4    4    0    0 -0.23945990030E+02  0.22052368163E+02  0.15162629945E+01  0.32588593612E+02  0.00000000000E+00 0.  1.
         12    1    4    4    0    0  0.24008619208E+02 -0.70490514401E+01 -0.71913138447E+02  0.76141988441E+02  0.00000000000E+00 0. -1.
        -13    1    3    3    0    0  0.59201780622E+02  0.14779927726E+02  0.73918704124E+02  0.95850257755E+02  0.00000000000E+00 0.  1.
         13    1    3    3    0    0 -0.36342837680E+02  0.57222257016E+01  0.44717321266E+02  0.57906688204E+02  0.00000000000E+00 0. -1.
         -2    1    1    2    0  502 -0.22921572121E+02 -0.35505470151E+02  0.18597822719E+02  0.46172674701E+02  0.00000000000E+00 0.  1.
<scales pt_clust_5="13000.00000" pt_clust_6="13000.00000" pt_clust_7="13000.00000" pt_clust_8="13000.00000" pt_clust_9="42.26155"></scales>
<clustering>
<clus scale="   42.262">  2  9  1 -1</clus>
<clus scale="   81.495">  5  6 -1 -1</clus>
<clus scale="   84.982">  2  5  1 -1</clus>
<clus scale="   92.865">  7  8 -1 -1</clus>
<clus scale="   42.262">  2  5  1 -1</clus>
</clustering>
</event>
<event>
 9    2  0.3764910E-005  0.1275075E+03  0.7546771E-02  0.1234489E+00
         21   -1    0    0  501  502  0.00000000000E+00  0.00000000000E+00  0.21333656970E+03  0.21333656970E+03  0.00000000000E+00 0. -1.
          2   -1    0    0  502    0 -0.00000000000E+00 -0.00000000000E+00 -0.16359788999E+03  0.16359788999E+03  0.00000000000E+00 0. -1.
         23    2    1    2    0    0 -0.27461508347E+02 -0.72234238449E+02 -0.45433570260E+02  0.12783649131E+03  0.91137476150E+02 0.  0.
         24    2    1    2    0    0  0.10230738298E+03  0.79900778734E+02  0.44449474733E+02  0.15835943898E+03  0.79063398955E+02 0.  0.
        -11    1    4    4    0    0  0.22688137405E+02  0.60832075362E+02  0.40231987631E+02  0.76380009168E+02  0.00000000000E+00 0.  1.
         12    1    4    4    0    0  0.79619245575E+02  0.19068703372E+02  0.42174871018E+01  0.81979429808E+02  0.00000000000E+00 0. -1.
        -13    1    3    3    0    0 -0.54790930282E+02 -0.31623216044E+02 -0.47080314929E+02  0.78858289913E+02  0.00000000000E+00 0. -1.
         13    1    3    3    0    0  0.27329421936E+02 -0.40611022405E+02  0.16467446693E+01  0.48978201397E+02  0.00000000000E+00 0.  1.
          1    1    1    2  501    0 -0.74845874633E+02 -0.76665402845E+01  0.50722775236E+02  0.90738529397E+02  0.00000000000E+00 0. -1.
<scales pt_clust_5="13000.00000" pt_clust_6="13000.00000" pt_clust_7="13000.00000" pt_clust_8="13000.00000" pt_clust_9="75.23750"></scales>
<clustering>
<clus scale="   75.237">  1  9  2 -1</clus>
<clus scale="   79.063">  5  6 -1 -1</clus>
<clus scale="   91.137">  7  8 -1 -1</clus>
<clus scale="  119.177">  1  5  2 -1</clus>
<clus scale="   75.237">  1  5  2 -1</clus>
</clustering>
</event>
<event>
 9    2  0.3764910E-005  0.1330105E+03  0.7546771E-02  0.1224057E+00
         21   -1    0    0  501  502  0.00000000000E+00  0.00000000000E+00  0.72180009810E+03  0.72180009810E+03  0.00000000000E+00 0. -1.
         -1   -1    0    0    0  501 -0.00000000000E+00 -0.00000000000E+00 -0.56061729164E+02  0.56061729164E+02  0.00000000000E+00 0.  1.
         23    2    1    2    0    0 -0.37864789097E+02  0.97933809811E+02  0.50450802265E+02  0.14431133176E+03  0.85180418340E+02 0.  0.
         24    2    1    2    0    0  0.53018436955E+02 -0.72292395594E+02  0.51347090828E+03  0.52746681583E+03  0.80819075938E+02 0.  0.
        -13    1    4    4    0    0  0.74928215820E+01 -0.34639785846E+02  0.56519714310E+02  0.66712332027E+02  0.00000000000E+00 0.  1.
         14    1    4    4    0    0  0.45525615373E+02 -0.37652609748E+02  0.45695119397E+03  0.46075448380E+03  0.00000000000E+00 0. -1.
        -13    1    3    3    0    0  0.27486465682E+02  0.24459904168E+02  0.15950986150E+02  0.40102701489E+02  0.00000000000E+00 0. -1.
         13    1    3    3    0    0 -0.65351254778E+02  0.73473905643E+02  0.34499816115E+02  0.10420863027E+03  0.00000000000E+00 0.  1.
         -2    1    1    2    0  502 -0.15153647858E+02 -0.25641414217E+02  0.10181665840E+03  0.10608367968E+03  0.00000000000E+00 0.  1.
<scales pt_clust_5="13000.00000" pt_clust_6="13000.00000" pt_clust_7="13000.00000" pt_clust_8="13000.00000" pt_clust_9="29.78448"></scales>
<clustering>
<clus scale="   29.784">  1  9  2 -1</clus>
<clus scale="   80.819">  5  6 -1 -1</clus>
<clus scale="   85.180">  7  8 -1 -1</clus>
<clus scale="  130.261">  1  5  2 -1</clus>
<clus scale="   29.784">  1  5  2 -1</clus>
</clustering>
</event>
<event>
 9    2  0.3764910E-005  0.1274590E+03  0.7546771E-02  0.1234128E+00
         21   -1    0    0  501  502  0.00000000000E+00  0.00000000000E+00  0.85984514705E+02  0.85984514705E+02  0.00000000000E+00 0.  1.
         -1   -1    0    0    0  501 -0.00000000000E+00 -0.00000000000E+00 -0.23636229556E+03  0.23636229556E+03  0.00000000000E+00 0.  1.
         23    2    1    2    0    0 -0.89285359487E+02 -0.59022442878E+01 -0.92992941614E+02  0.15762188349E+03  0.90500050049E+02 0.  0.
         24    2    1    2    0    0  0.89652934286E+02 -0.23072928498E+02 -0.58783751616E+02  0.13571367542E+03  0.79954134267E+02 0.  0.
        -13    1    4    4    0    0  0.60615880864E+02 -0.49920253773E+02 -0.55238823695E+02  0.96008564164E+02  0.00000000000E+00 0.  1.
         14    1    4    4    0    0  0.29037053422E+02  0.26847325275E+02 -0.35449279213E+01  0.39705111256E+02  0.00000000000E+00 0. -1.
        -13    1    3    3    0    0 -0.17866346757E+02 -0.11224277297E+02 -0.82602907326E+02  0.85255093959E+02  0.00000000000E+00 0. -1.
         13    1    3    3    0    0 -0.71419012730E+02  0.53220330095E+01 -0.10390034288E+02  0.72366789532E+02  0.00000000000E+00 0.  1.
         -2    1    1    2    0  502 -0.36757479922E+00  0.28975172785E+02  0.13989123773E+01  0.29011251352E+02  0.00000000000E+00 0.  1.
<scales pt_clust_5="13000.00000" pt_clust_6="13000.00000" pt_clust_7="13000.00000" pt_clust_8="13000.00000" pt_clust_9="28.97750"></scales>
<clustering>
<clus scale="   28.978">  1  9  2 -1</clus>
<clus scale="   79.954">  5  6 -1 -1</clus>
<clus scale="   90.500">  7  8 -1 -1</clus>
<clus scale="  120.201">  1  5  2 -1</clus>
<clus scale="   28.978">  1  5  2 -1</clus>
</clustering>
</event>
<event>
 9    2  0.3764910E-005  0.1068202E+03  0.7546771E-02  0.1275303E+00
         -3   -1    0    0    0  501 -0.00000000000E+00  0.00000000000E+00  0.53164181356E+03  0.53164181356E+03  0.00000000000E+00 0.  1.
         21   -1    0    0  501  502  0.00000000000E+00 -0.00000000000E+00 -0.35849569328E+02  0.35849569328E+02  0.00000000000E+00 0.  1.
         23    2    1    2    0    0  0.17837680349E+02  0.56328969724E+02  0.38822199118E+03  0.40195099051E+03  0.85773822707E+02 0.  0.
         24    2    1    2    0    0 -0.35728841467E+02 -0.71458718732E+02  0.89300405043E+02  0.13582860520E+03  0.63968344158E+02 0.  0.
        -13    1    4    4    0    0 -0.18610373394E+02 -0.49679363138E+02  0.12950526986E+02  0.54608618998E+02  0.00000000000E+00 0.  1.
         14    1    4    4    0    0 -0.17118468073E+02 -0.21779355594E+02  0.76349878058E+02  0.81219986202E+02  0.00000000000E+00 0. -1.
        -13    1    3    3    0    0 -0.22184742688E+02 -0.98098714731E+01  0.59356879357E+02  0.64122036099E+02  0.00000000000E+00 0.  1.
         13    1    3    3    0    0  0.40022423037E+02  0.66138841197E+02  0.32886511183E+03  0.33782895441E+03  0.00000000000E+00 0. -1.
         -4    1    1    2    0  502  0.17891161118E+02  0.15129749008E+02  0.18269848000E+02  0.29711787175E+02  0.00000000000E+00 0.  1.
<scales pt_clust_5="13000.00000" pt_clust_6="13000.00000" pt_clust_7="13000.00000" pt_clust_8="13000.00000" pt_clust_9="23.43081"></scales>
<clustering>
<clus scale="   23.431">  2  9  1 -1</clus>
<clus scale="   63.968">  5  6 -1 -1</clus>
<clus scale="   85.774">  7  8 -1 -1</clus>
<clus scale="   90.252">  2  5  1 -1</clus>
<clus scale="   23.431">  2  5  1 -1</clus>
</clustering>
</event>
<event>
 9    2  0.3764910E-005  0.1034435E+03  0.7546771E-02  0.1276464E+00
          2   -1    0    0  502    0 -0.00000000000E+00  0.00000000000E+00  0.89301345201E+03  0.89301345201E+03  0.00000000000E+00 0. -1.
         21   -1    0    0  501  502  0.00000000000E+00 -0.00000000000E+00 -0.35023515836E+02  0.35023515836E+02  0.00000000000E+00 0. -1.
         24    2    1    2    0    0 -0.40590869820E+02 -0.44639338602E+02  0.52195084725E+03  0.53329548582E+03  0.91274854107E+02 0.  0.
         23    2    1    2    0    0 -0.47698937932E+02 -0.92630734379E+01  0.17107806182E+03  0.20002964202E+03  0.91559604840E+02 0.  0.
        -13    1    3    3    0    0 -0.52927422232E+02  0.10637851445E+00  0.16353296868E+03  0.17188471481E+03  0.00000000000E+00 0.  1.
         14    1    3    3    0    0  0.12336552412E+02 -0.44745717116E+02  0.35841787857E+03  0.36141077101E+03  0.00000000000E+00 0. -1.
        -13    1    4    4    0    0 -0.61350094003E+02 -0.25855057218E+02  0.69649217165E+02  0.96350046547E+02  0.00000000000E+00 0. -1.
         13    1    4    4    0    0  0.13651156072E+02  0.16591983780E+02  0.10142884466E+03  0.10367959547E+03  0.00000000000E+00 0.  1.
          1    1    1    2  501    0  0.88289807752E+02  0.53902412039E+02  0.16496102710E+03  0.19471184000E+03  0.00000000000E+00 0. -1.
<scales pt_clust_5="13000.00000" pt_clust_6="13000.00000" pt_clust_7="13000.00000" pt_clust_8="13000.00000" pt_clust_9="103.44351"></scales>
<clustering>
<clus scale="   91.275">  5  6 -1 -1</clus>
<clus scale="   91.560">  7  8 -1 -1</clus>
<clus scale="  103.444">  2  9  1 -1</clus>
<clus scale="   97.195">  1  5  2 -1</clus>
<clus scale="  103.444">  2  5  1 -1</clus>
</clustering>
</event>
<event>
 9    2  0.3764910E-005  0.1004191E+03  0.7546771E-02  0.1285515E+00
         21   -1    0    0  501  502  0.00000000000E+00  0.00000000000E+00  0.19557747998E+03  0.19557747998E+03  0.00000000000E+00 0.  1.
         -1   -1    0    0    0  501 -0.00000000000E+00 -0.00000000000E+00 -0.45814691836E+03  0.45814691836E+03  0.00000000000E+00 0.  1.
         23    2    1    2    0    0  0.34367250477E+02 -0.18603958573E+02 -0.42128341345E+03  0.43304614015E+03  0.92314840998E+02 0.  0.
         24    2    1    2    0    0 -0.25539214476E+02  0.46968795947E+02  0.51292314513E+02  0.10922462938E+03  0.80254587817E+02 0.  0.
        -13    1    4    4    0    0 -0.39110784723E+02  0.62805632148E+02  0.31307965201E+02  0.80339215805E+02  0.00000000000E+00 0.  1.
         14    1    4    4    0    0  0.13571570247E+02 -0.15836836201E+02  0.19984349311E+02  0.28885413572E+02  0.00000000000E+00 0. -1.
        -13    1    3    3    0    0  0.65676963488E+02 -0.18690349048E+02 -0.26492333862E+03  0.27358210473E+03  0.00000000000E+00 0.  1.
         13    1    3    3    0    0 -0.31309713011E+02  0.86390474993E-01 -0.15636007483E+03  0.15946403542E+03  0.00000000000E+00 0. -1.
         -2    1    1    2    0  502 -0.88280360013E+01 -0.28364837374E+02  0.10742166055E+03  0.11145362881E+03  0.00000000000E+00 0.  1.
<scales pt_clust_5="13000.00000" pt_clust_6="13000.00000" pt_clust_7="13000.00000" pt_clust_8="13000.00000" pt_clust_9="29.70687"></scales>
<clustering>
<clus scale="   29.707">  1  9  2 -1</clus>
<clus scale="   80.255">  5  6 -1 -1</clus>
<clus scale="   89.458">  1  5  2 -1</clus>
<clus scale="   92.315">  7  8 -1 -1</clus>
<clus scale="   29.707">  1  5  2 -1</clus>
</clustering>
</event>
<event>
 9    2  0.3764910E-005  0.1377757E+03  0.7546771E-02  0.1217546E+00
          2   -1    0    0  502    0 -0.00000000000E+00  0.00000000000E+00  0.51771060952E+03  0.51771060952E+03  0.00000000000E+00 0. -1.
         21   -1    0    0  501  502  0.00000000000E+00 -0.00000000000E+00 -0.82389459138E+02  0.82389459138E+02  0.00000000000E+00 0. -1.
         24    2    1    2    0    0 -0.10898964520E+03  0.57197812158E+02  0.36360401141E+03  0.39328388585E+03  0.85521957898E+02 0.  0.
         23    2    1    2    0    0  0.37112359980E+02 -0.16405929192E+02  0.32783913832E+01  0.99512016909E+02  0.90804250359E+02 0.  0.
        -11    1    3    3    0    0 -0.51903361366E+02  0.19433582742E+02  0.58452511773E+02  0.80550103612E+02  0.00000000000E+00 0.  1.
         12    1    3    3    0    0 -0.57086283837E+02  0.37764229416E+02  0.30515149963E+03  0.31273378224E+03  0.00000000000E+00 0. -1.
        -11    1    4    4    0    0 -0.11867251447E+01 -0.48696509182E+02 -0.40712759551E+01  0.48880810253E+02  0.00000000000E+00 0. -1.
         11    1    4    4    0    0  0.38299085125E+02  0.32290579990E+02  0.73496673383E+01  0.50631206656E+02  0.00000000000E+00 0.  1.
          1    1    1    2  501    0  0.71877285224E+02 -0.40791882966E+02  0.68438747596E+02  0.10730416590E+03  0.00000000000E+00 0. -1.
<scales pt_clust_5="13000.00000" pt_clust_6="13000.00000" pt_clust_7="13000.00000" pt_clust_8="13000.00000" pt_clust_9="82.64576"></scales>
<clustering>
<clus scale="   82.646">  2  9  1 -1</clus>
<clus scale="   85.522">  5  6 -1 -1</clus>
<clus scale="   90.804">  7  8 -1 -1</clus>
<clus scale="  134.353">  1  5  2 -1</clus>
<clus scale="   82.646">  2  5  1 -1</clus>
</clustering>
</event>
<event>
 9    2  0.3764910E-005  0.1062160E+03  0.7546771E-02  0.1268149E+00
          2   -1    0    0  502    0 -0.00000000000E+00  0.00000000000E+00  0.46487255717E+03  0.46487255717E+03  0.00000000000E+00 0. -1.
         21   -1    0    0  501  502  0.00000000000E+00 -0.00000000000E+00 -0.12423902136E+03  0.12423902136E+03  0.00000000000E+00 0. -1.
         24    2    1    2    0    0  0.17777092520E+02 -0.70302118473E+02  0.38687855276E+03  0.40204394293E+03  0.81889587764E+02 0.  0.
         23    2    1    2    0    0 -0.12587883154E+02  0.38584753884E+02  0.35722931154E+02  0.99024103026E+02  0.82960274441E+02 0.  0.
        -13    1    3    3    0    0  0.27285036807E+02 -0.24287909889E+02  0.50097861643E+02  0.62001383384E+02  0.00000000000E+00 0.  1.
         14    1    3    3    0    0 -0.95079442870E+01 -0.46014208584E+02  0.33678069112E+03  0.34004255955E+03  0.00000000000E+00 0. -1.
        -11    1    4    4    0    0  0.30662426572E+02  0.19057291156E+02  0.36807621729E+02  0.51557402639E+02  0.00000000000E+00 0. -1.
         11    1    4    4    0    0 -0.43250309726E+02  0.19527462728E+02 -0.10846905753E+01  0.47466700387E+02  0.00000000000E+00 0.  1.
          1    1    1    2  501    0 -0.51892093658E+01  0.31717364590E+02 -0.81967948108E+02  0.88043532570E+02  0.00000000000E+00 0. -1.
<scales pt_clust_5="13000.00000" pt_clust_6="13000.00000" pt_clust_7="13000.00000" pt_clust_8="13000.00000" pt_clust_9="32.13906"></scales>
<clustering>
<clus scale="   32.139">  2  9  1 -1</clus>
<clus scale="   81.890">  5  6 -1 -1</clus>
<clus scale="   82.960">  7  8 -1 -1</clus>
<clus scale="  105.382">  1  5  2 -1</clus>
<clus scale="   32.139">  2  5  1 -1</clus>
</clustering>
</event>
<event>
 9    2  0.3764910E-005  0.9661820E+02  0.7546771E-02  0.1293548E+00
         -3   -1    0    0    0  501 -0.00000000000E+00  0.00000000000E+00  0.37493810057E+03  0.37493810057E+03  0.00000000000E+00 0.  1.
         21   -1    0    0  501  502  0.00000000000E+00 -0.00000000000E+00 -0.49825861144E+02  0.49825861144E+02  0.00000000000E+00 0. -1.
         23    2    1    2    0    0  0.18065629600E+02  0.41885610413E+02  0.24695118016E+03  0.26701190574E+03  0.90717699997E+02 0.  0.
         24    2    1    2    0    0 -0.24871539571E+02  0.10495184423E+02  0.49250458276E+02  0.97536684777E+02  0.79743682259E+02 0.  0.
        -13    1    4    4    0    0  0.24931690240E+02  0.16774517891E+02  0.46882374532E+01  0.30413043240E+02  0.00000000000E+00 0.  1.
         14    1    4    4    0    0 -0.49803229812E+02 -0.62793334687E+01  0.44562220823E+02  0.67123641537E+02  0.00000000000E+00 0. -1.
        -11    1    3    3    0    0  0.32033347567E+02 -0.15320245243E+02  0.49172396649E+02  0.60652863600E+02  0.00000000000E+00 0.  1.
         11    1    3    3    0    0 -0.13967717966E+02  0.57205855656E+02  0.19777878351E+03  0.20635904214E+03  0.00000000000E+00 0. -1.
         -4    1    1    2    0  502  0.68059099710E+01 -0.52380794836E+02  0.28910600984E+02  0.60215371189E+02  0.00000000000E+00 0.  1.
<scales pt_clust_5="13000.00000" pt_clust_6="13000.00000" pt_clust_7="13000.00000" pt_clust_8="13000.00000" pt_clust_9="52.82110"></scales>
<clustering>
<clus scale="   52.821">  2  9  1 -1</clus>
<clus scale="   79.744">  5  6 -1 -1</clus>
<clus scale="   86.397">  2  5  1 -1</clus>
<clus scale="   90.718">  7  8 -1 -1</clus>
<clus scale="   52.821">  2  5  1 -1</clus>
</clustering>
</event>
<event>
 9    2  0.3764910E-005  0.1433147E+03  0.7546771E-02  0.1232844E+00
         21   -1    0    0  501  502  0.00000000000E+00  0.00000000000E+00  0.10131571062E+04  0.10131571062E+04  0.00000000000E+00 0.  1.
         -1   -1    0    0    0  501 -0.00000000000E+00 -0.00000000000E+00 -0.33625852395E+02  0.33625852395E+02  0.00000000000E+00 0.  1.
         24    2    1    2    0    0 -0.29165776395E+01 -0.19731514159E+02  0.40882936584E+03  0.41794537123E+03  0.84492862953E+02 0.  0.
         23    2    1    2    0    0  0.93482158226E+02 -0.54186920527E+02  0.37968106694E+03  0.40488443726E+03  0.89991992299E+02 0.  0.
        -11    1    3    3    0    0 -0.18876805698E+02 -0.49013137363E+02  0.21909845008E+03  0.22530590817E+03  0.00000000000E+00 0.  1.
         12    1    3    3    0    0  0.15960228059E+02  0.29281623204E+02  0.18973091576E+03  0.19263946307E+03  0.00000000000E+00 0. -1.
        -13    1    4    4    0    0  0.53034559761E+02  0.19421813871E+02  0.14355968563E+03  0.15427007072E+03  0.00000000000E+00 0.  1.
         13    1    4    4    0    0  0.40447598465E+02 -0.73608734397E+02  0.23612138131E+03  0.25061436654E+03  0.00000000000E+00 0. -1.
         -2    1    1    2    0  502 -0.90565580586E+02  0.73918434685E+02  0.19102082101E+03  0.22395315008E+03  0.00000000000E+00 0.  1.
<scales pt_clust_5="13000.00000" pt_clust_6="13000.00000" pt_clust_7="13000.00000" pt_clust_8="13000.00000" pt_clust_9="111.53728"></scales>
<clustering>
<clus scale="   84.493">  5  6 -1 -1</clus>
<clus scale="   86.815">  2  5  1 -1</clus>
<clus scale="   89.992">  7  8 -1 -1</clus>
<clus scale="  111.537">  1  9  2 -1</clus>
<clus scale="  111.537">  1  5  2 -1</clus>
</clustering>
</event>
<event>
 9    2  0.3764910E-005  0.1120764E+03  0.7546771E-02  0.1258126E+00
         -1   -1    0    0    0  501 -0.00000000000E+00  0.00000000000E+00  0.35155938783E+03  0.35155938783E+03  0.00000000000E+00 0.  1.
         21   -1    0    0  501  502  0.00000000000E+00 -0.00000000000E+00 -0.23773628617E+03  0.23773628617E+03  0.00000000000E+00 0.  1.
         24    2    1    2    0    0 -0.48059057958E+02 -0.44649204699E+02  0.31604034459E+03  0.33413874667E+03  0.86394317439E+02 0.  0.
         23    2    1    2    0    0  0.71875024706E+02  0.47981792346E+02 -0.13553410610E+03  0.18427006572E+03  0.90098233224E+02 0.  0.
        -11    1    3    3    0    0 -0.68545271898E+02 -0.40742813942E+02  0.18505925587E+03  0.20150771542E+03  0.00000000000E+00 0.  1.
         12    1    3    3    0    0  0.20486213940E+02 -0.39063907562E+01  0.13098108872E+03  0.13263103125E+03  0.00000000000E+00 0. -1.
        -11    1    4    4    0    0  0.46967547672E+02 -0.26733212471E+01 -0.11492029302E+03  0.12417637025E+03  0.00000000000E+00 0. -1.
         11    1    4    4    0    0  0.24907477034E+02  0.50655113593E+02 -0.20613813080E+02  0.60093695468E+02  0.00000000000E+00 0.  1.
         -2    1    1    2    0  502 -0.23815966747E+02 -0.33325876470E+01 -0.66683136826E+02  0.70886861614E+02  0.00000000000E+00 0.  1.
<scales pt_clust_5="13000.00000" pt_clust_6="13000.00000" pt_clust_7="13000.00000" pt_clust_8="13000.00000" pt_clust_9="24.04800"></scales>
<clustering>
<clus scale="   24.048">  2  9  1 -1</clus>
<clus scale="   86.394">  5  6 -1 -1</clus>
<clus scale="   90.098">  7  8 -1 -1</clus>
<clus scale="  109.121">  1  5  2 -1</clus>
<clus scale="   24.048">  2  5  1 -1</clus>
</clustering>
</event>
<event>
 9    2  0.3764910E-005  0.1378380E+03  0.7546771E-02  0.1218736E+00
          2   -1    0    0  502    0 -0.00000000000E+00  0.00000000000E+00  0.15788911127E+04  0.15788911127E+04  0.00000000000E+00 0. -1.
         21   -1    0    0  501  502  0.00000000000E+00 -0.00000000000E+00 -0.49220297823E+02  0.49220297823E+02  0.00000000000E+00 0. -1.
         24    2    1    2    0    0 -0.10259041949E+03  0.24874709010E+02  0.11259728678E+04  0.11337107066E+04  0.79633673128E+02 0.  0.
         23    2    1    2    0    0  0.58335338967E+02 -0.11201774080E+03  0.12635297194E+03  0.20033837146E+03  0.90660926178E+02 0.  0.
        -13    1    3    3    0    0 -0.56145592961E+02 -0.20486722072E+02  0.35371516837E+03  0.35872894185E+03  0.00000000000E+00 0.  1.
         14    1    3    3    0    0 -0.46444826527E+02  0.45361431082E+02  0.77225769945E+03  0.77498176475E+03  0.00000000000E+00 0. -1.
        -13    1    4    4    0    0  0.33183131811E+02 -0.11889871466E+03  0.79831675578E+02  0.14700721414E+03  0.00000000000E+00 0. -1.
         13    1    4    4    0    0  0.25152207157E+02  0.68809738552E+01  0.46521296363E+02  0.53331157322E+02  0.00000000000E+00 0.  1.
          1    1    1    2  501    0  0.44255080521E+02  0.87143031793E+02  0.27734497509E+03  0.29406233242E+03  0.00000000000E+00 0. -1.
<scales pt_clust_5="13000.00000" pt_clust_6="13000.00000" pt_clust_7="13000.00000" pt_clust_8="13000.00000" pt_clust_9="97.73653"></scales>
<clustering>
<clus scale="   79.634">  5  6 -1 -1</clus>
<clus scale="   90.661">  7  8 -1 -1</clus>
<clus scale="   97.737">  2  9  1 -1</clus>
<clus scale="  130.849">  1  5  2 -1</clus>
<clus scale="   97.737">  2  5  1 -1</clus>
</clustering>
</event>
<event>
 9    2  0.3764910E-005  0.1268259E+03  0.7546771E-02  0.1253039E+00
         -1   -1    0    0    0  501 -0.00000000000E+00  0.00000000000E+00  0.74029422564E+03  0.74029422564E+03  0.00000000000E+00 0.  1.
         21   -1    0    0  501  502  0.00000000000E+00 -0.00000000000E+00 -0.15743545324E+03  0.15743545324E+03  0.00000000000E+00 0. -1.
         23    2    1    2    0    0 -0.19898409367E+02 -0.13959899710E+02  0.70538123712E+03  0.71671680810E+03  0.12461728548E+03 0.  0.
         24    2    1    2    0    0  0.11117646838E+01  0.24138860598E+02 -0.34282741862E+02  0.90223014774E+02  0.79880945123E+02 0.  0.
        -11    1    4    4    0    0  0.28034629752E+02 -0.13279670352E+01  0.12345534886E+02  0.30661314281E+02  0.00000000000E+00 0.  1.
         12    1    4    4    0    0 -0.26922865068E+02  0.25466827633E+02 -0.46628276748E+02  0.59561700494E+02  0.00000000000E+00 0. -1.
        -11    1    3    3    0    0 -0.42975931792E+02 -0.60907872568E+02  0.42901327958E+03  0.43544126322E+03  0.00000000000E+00 0.  1.
         11    1    3    3    0    0  0.23077522425E+02  0.46947972858E+02  0.27636795754E+03  0.28127554489E+03  0.00000000000E+00 0. -1.
         -2    1    1    2    0  502  0.18786644683E+02 -0.10178960888E+02 -0.88239722858E+02  0.90789856004E+02  0.00000000000E+00 0.  1.
<scales pt_clust_5="13000.00000" pt_clust_6="13000.00000" pt_clust_7="13000.00000" pt_clust_8="13000.00000" pt_clust_9="21.36701"></scales>
<clustering>
<clus scale="   21.367">  2  9  1 -1</clus>
<clus scale="   79.881">  5  6 -1 -1</clus>
<clus scale="   83.284">  2  5  1 -1</clus>
<clus scale="  124.617">  7  8 -1 -1</clus>
<clus scale="   21.367">  2  5  1 -1</clus>
</clustering>
</event>
<event>
 9    2  0.3764910E-005  0.9800016E+02  0.7546771E-02  0.1289742E+00
         -1   -1    0    0    0  501 -0.00000000000E+00  0.00000000000E+00  0.95637898204E+02  0.95637898204E+02  0.00000000000E+00 0.  1.
         21   -1    0    0  501  502  0.00000000000E+00 -0.00000000000E+00 -0.22875675093E+03  0.22875675093E+03  0.00000000000E+00 0. -1.
         23    2    1    2    0    0 -0.41443119359E+02  0.26599333240E+01  0.50757505406E+02  0.11136359512E+03  0.90005103050E+02 0.  0.
         24    2    1    2    0    0  0.23485433589E+02  0.89161813125E+01 -0.16223074355E+03  0.18261695303E+03  0.79994209167E+02 0.  0.
        -13    1    4    4    0    0  0.26627948280E+02  0.15376086468E+02 -0.13281083502E+02  0.33494161337E+02  0.00000000000E+00 0.  1.
         14    1    4    4    0    0 -0.31425146909E+01 -0.64599051557E+01 -0.14894966005E+03  0.14912279169E+03  0.00000000000E+00 0. -1.
        -13    1    3    3    0    0 -0.35535461567E+02 -0.32141769098E+02  0.58099286456E+02  0.75308627901E+02  0.00000000000E+00 0.  1.
         13    1    3    3    0    0 -0.59076577921E+01  0.34801702422E+02 -0.73417810501E+01  0.36054967218E+02  0.00000000000E+00 0. -1.
         -2    1    1    2    0  502  0.17957685770E+02 -0.11576114637E+02 -0.21645614585E+02  0.30414100991E+02  0.00000000000E+00 0.  1.
<scales pt_clust_5="13000.00000" pt_clust_6="13000.00000" pt_clust_7="13000.00000" pt_clust_8="13000.00000" pt_clust_9="21.36551"></scales>
<clustering>
<clus scale="   21.366">  2  9  1 -1</clus>
<clus scale="   79.994">  5  6 -1 -1</clus>
<clus scale="   88.894">  2  5  1 -1</clus>
<clus scale="   90.005">  7  8 -1 -1</clus>
<clus scale="   21.366">  2  5  1 -1</clus>
</clustering>
</event>
<event>
 9    2  0.3764910E-005  0.9131180E+02  0.7546771E-02  0.1307290E+00
         21   -1    0    0  501  502  0.00000000000E+00  0.00000000000E+00  0.11166957473E+03  0.11166957473E+03  0.00000000000E+00 0. -1.
         -1   -1    0    0    0  501 -0.00000000000E+00 -0.00000000000E+00 -0.24139303897E+03  0.24139303897E+03  0.00000000000E+00 0.  1.
         23    2    1    2    0    0 -0.44970034755E+01  0.92862160280E+00 -0.18697793366E+03  0.20791495856E+03  0.90811876643E+02 0.  0.
         24    2    1    2    0    0  0.23497987681E+02 -0.23709005236E+02  0.59218221094E+01  0.85860017662E+02  0.78883472930E+02 0.  0.
        -13    1    4    4    0    0 -0.25107528021E+02 -0.18925963992E+01 -0.14203284969E+02  0.28908531412E+02  0.00000000000E+00 0.  1.
         14    1    4    4    0    0  0.48605515703E+02 -0.21816408837E+02  0.20125107078E+02  0.56951486251E+02  0.00000000000E+00 0. -1.
        -11    1    3    3    0    0 -0.38115630572E+02 -0.98923209168E+00 -0.16081261071E+03  0.16527091588E+03  0.00000000000E+00 0.  1.
         11    1    3    3    0    0  0.33618627097E+02  0.19178536945E+01 -0.26165322948E+02  0.42644042675E+02  0.00000000000E+00 0. -1.
         -2    1    1    2    0  502 -0.19000984206E+02  0.22780383633E+02  0.51332647298E+02  0.59287637480E+02  0.00000000000E+00 0.  1.
<scales pt_clust_5="13000.00000" pt_clust_6="13000.00000" pt_clust_7="13000.00000" pt_clust_8="13000.00000" pt_clust_9="29.66451"></scales>
<clustering>
<clus scale="   29.665">  1  9  2 -1</clus>
<clus scale="   78.883">  5  6 -1 -1</clus>
<clus scale="   79.458">  1  5  2 -1</clus>
<clus scale="   90.812">  7  8 -1 -1</clus>
<clus scale="   29.665">  1  5  2 -1</clus>
</clustering>
</event>
<event>
 9    2  0.3764910E-005  0.2990302E+03  0.7546771E-02  0.1129044E+00
          2   -1    0    0  502    0 -0.00000000000E+00  0.00000000000E+00  0.52712253679E+03  0.52712253679E+03  0.00000000000E+00 0. -1.
         21   -1    0    0  501  502  0.00000000000E+00 -0.00000000000E+00 -0.22607403324E+03  0.22607403324E+03  0.00000000000E+00 0. -1.
         23    2    1    2    0    0  0.26391543038E+02 -0.90532959186E+01  0.65593091200E+02  0.11845166528E+03  0.94603740326E+02 0.  0.
         24    2    1    2    0    0 -0.18830621438E+03 -0.22386788113E+03  0.92800093452E+02  0.31722455025E+03  0.80271410603E+02 0.  0.
        -13    1    4    4    0    0 -0.42735016112E+02 -0.10433385948E+03  0.53555782007E+02  0.12482010103E+03  0.00000000000E+00 0.  1.
         14    1    4    4    0    0 -0.14557119827E+03 -0.11953402166E+03  0.39244311445E+02  0.19240444922E+03  0.00000000000E+00 0. -1.
        -11    1    3    3    0    0  0.35040092821E+02 -0.45813287873E+02  0.24567512752E+02  0.62691531593E+02  0.00000000000E+00 0. -1.
         11    1    3    3    0    0 -0.86485497834E+01  0.36759991955E+02  0.41025578448E+02  0.55760133688E+02  0.00000000000E+00 0.  1.
          1    1    1    2  501    0  0.16191467134E+03  0.23292117705E+03  0.14265531890E+03  0.31752035450E+03  0.00000000000E+00 0. -1.
<scales pt_clust_5="13000.00000" pt_clust_6="13000.00000" pt_clust_7="13000.00000" pt_clust_8="13000.00000" pt_clust_9="288.05491"></scales>
<clustering>
<clus scale="   80.271">  5  6 -1 -1</clus>
<clus scale="   94.604">  7  8 -1 -1</clus>
<clus scale="   98.632">  1  7  2 -1</clus>
<clus scale="  288.055">  2  9  1 -1</clus>
<clus scale="  288.055">  2  5  1 -1</clus>
</clustering>
</event>
<event>
 9    2  0.3764910E-005  0.1280916E+03  0.7546771E-02  0.1236993E+00
         21   -1    0    0  501  502  0.00000000000E+00  0.00000000000E+00  0.38949182720E+02  0.38949182720E+02  0.00000000000E+00 0.  1.
          2   -1    0    0  502    0 -0.00000000000E+00 -0.00000000000E+00 -0.74538607516E+03  0.74538607516E+03  0.00000000000E+00 0. -1.
         24    2    1    2    0    0  0.77479883907E+02  0.41899317565E+01 -0.46063170170E+03  0.47338800461E+03  0.76772067597E+02 0.  0.
         23    2    1    2    0    0 -0.90703679449E+02  0.13263321831E+02 -0.25392661627E+03  0.28759254535E+03  0.99134618175E+02 0.  0.
        -13    1    3    3    0    0  0.19338521639E+02 -0.18477726230E+02 -0.39786831183E+02  0.47941596984E+02  0.00000000000E+00 0.  1.
         14    1    3    3    0    0  0.58141362268E+02  0.22667657986E+02 -0.42084487051E+03  0.42544640763E+03  0.00000000000E+00 0. -1.
        -13    1    4    4    0    0  0.19071414403E+02 -0.76121156976E+01 -0.21672802907E+02  0.29855879464E+02  0.00000000000E+00 0. -1.
         13    1    4    4    0    0 -0.10977509385E+03  0.20875437529E+02 -0.23225381336E+03  0.25773666589E+03  0.00000000000E+00 0.  1.
          1    1    1    2  501    0  0.13223795541E+02 -0.17453253588E+02  0.81214255256E+01  0.23354707917E+02  0.00000000000E+00 0. -1.
<scales pt_clust_5="13000.00000" pt_clust_6="13000.00000" pt_clust_7="13000.00000" pt_clust_8="13000.00000" pt_clust_9="21.89714"></scales>
<clustering>
<clus scale="   21.897">  1  9  2 -1</clus>
<clus scale="   76.772">  5  6 -1 -1</clus>
<clus scale="   99.135">  7  8 -1 -1</clus>
<clus scale="  111.686">  2  5  1 -1</clus>
<clus scale="   21.897">  1  5  2 -1</clus>
</clustering>
</event>
<event>
 9    2  0.3764910E-005  0.9472567E+02  0.7546771E-02  0.1298201E+00
          2   -1    0    0  502    0 -0.00000000000E+00  0.00000000000E+00  0.40736621723E+02  0.40736621723E+02  0.00000000000E+00 0. -1.
         21   -1    0    0  501  502  0.00000000000E+00 -0.00000000000E+00 -0.47444570720E+03  0.47444570720E+03  0.00000000000E+00 0. -1.
         24    2    1    2    0    0  0.17934280754E+02 -0.21658137734E+02 -0.34626154437E+02  0.91793441570E+02  0.80226878213E+02 0.  0.
         23    2    1    2    0    0  0.13366147004E+02  0.26674972756E+02 -0.20087124060E+03  0.22265832257E+03  0.91308626383E+02 0.  0.
        -13    1    3    3    0    0 -0.26993352438E+02  0.11312490024E+02 -0.11061410882E+02  0.31288469395E+02  0.00000000000E+00 0.  1.
         14    1    3    3    0    0  0.44927633192E+02 -0.32970627758E+02 -0.23564743555E+02  0.60504972175E+02  0.00000000000E+00 0. -1.
        -13    1    4    4    0    0  0.17535359419E+02 -0.19818872263E+02 -0.13788173749E+02  0.29839407887E+02  0.00000000000E+00 0. -1.
         13    1    4    4    0    0 -0.41692124152E+01  0.46493845019E+02 -0.18708306685E+03  0.19281891468E+03  0.00000000000E+00 0.  1.
          1    1    1    2  501    0 -0.31300427758E+02 -0.50168350222E+01 -0.19821169043E+03  0.20073056478E+03  0.00000000000E+00 0. -1.
<scales pt_clust_5="13000.00000" pt_clust_6="13000.00000" pt_clust_7="13000.00000" pt_clust_8="13000.00000" pt_clust_9="31.69993"></scales>
<clustering>
<clus scale="   31.700">  2  9  1 -1</clus>
<clus scale="   80.227">  5  6 -1 -1</clus>
<clus scale="   84.095">  1  5  2 -1</clus>
<clus scale="   91.309">  7  8 -1 -1</clus>
<clus scale="   31.700">  2  5  1 -1</clus>
</clustering>
</event>
<event>
 9    2  0.3764910E-005  0.1177156E+03  0.7546771E-02  0.1250869E+00
         -1   -1    0    0    0  501 -0.00000000000E+00  0.00000000000E+00  0.13486911898E+03  0.13486911898E+03  0.00000000000E+00 0.  1.
         21   -1    0    0  501  502  0.00000000000E+00 -0.00000000000E+00 -0.22684757160E+03  0.22684757160E+03  0.00000000000E+00 0. -1.
         23    2    1    2    0    0 -0.26864640363E+02  0.19500209833E+02 -0.22512029978E+02  0.10076527072E+03  0.92438526621E+02 0.  0.
         24    2    1    2    0    0  0.64737699720E+02 -0.95559945316E+02  0.14376609586E+02  0.14158180044E+03  0.80722031683E+02 0.  0.
        -11    1    4    4    0    0  0.38729805663E+02 -0.95851537456E+02  0.34187609695E+02  0.10888667382E+03  0.00000000000E+00 0.  1.
         12    1    4    4    0    0  0.26007894057E+02  0.29159214042E+00 -0.19811000109E+02  0.32695126619E+02  0.00000000000E+00 0. -1.
        -13    1    3    3    0    0 -0.54346351309E+02  0.33443249115E+02 -0.27611695503E+02  0.69529724151E+02  0.00000000000E+00 0.  1.
         13    1    3    3    0    0  0.27481710946E+02 -0.13943039282E+02  0.50996655251E+01  0.31235546568E+02  0.00000000000E+00 0. -1.
         -2    1    1    2    0  502 -0.37873059357E+02  0.76059735483E+02 -0.83843032228E+02  0.11936961942E+03  0.00000000000E+00 0.  1.
<scales pt_clust_5="13000.00000" pt_clust_6="13000.00000" pt_clust_7="13000.00000" pt_clust_8="13000.00000" pt_clust_9="84.96736"></scales>
<clustering>
<clus scale="   80.722">  5  6 -1 -1</clus>
<clus scale="   84.967">  2  9  1 -1</clus>
<clus scale="   92.439">  7  8 -1 -1</clus>
<clus scale="  108.757">  2  5  1 -1</clus>
<clus scale="   84.967">  2  5  1 -1</clus>
</clustering>
</event>
<event>
 9    2  0.3764910E-005  0.1355237E+03  0.7546771E-02  0.1221236E+00
          2   -1    0    0  502    0 -0.00000000000E+00  0.00000000000E+00  0.84421638436E+03  0.84421638436E+03  0.00000000000E+00 0. -1.
         21   -1    0    0  501  502  0.00000000000E+00 -0.00000000000E+00 -0.39546718511E+02  0.39546718511E+02  0.00000000000E+00 0. -1.
         24    2    1    2    0    0 -0.20920761557E+02 -0.67841474026E+02  0.22820761098E+03  0.25170003865E+03  0.78956012332E+02 0.  0.
         23    2    1    2    0    0  0.20523537656E+02  0.14448659283E+03  0.47812590480E+03  0.50738495695E+03  0.86818906861E+02 0.  0.
        -11    1    3    3    0    0 -0.17205080843E+02 -0.14895613274E+02  0.64135905576E+01  0.23643778156E+02  0.00000000000E+00 0.  1.
         12    1    3    3    0    0 -0.37156807132E+01 -0.52945860752E+02  0.22179402042E+03  0.22805626049E+03  0.00000000000E+00 0. -1.
        -13    1    4    4    0    0  0.53473446892E+02  0.86282722601E+02  0.25539150205E+03  0.27482528461E+03  0.00000000000E+00 0. -1.
         13    1    4    4    0    0 -0.32949909236E+02  0.58203870232E+02  0.22273440275E+03  0.23255967234E+03  0.00000000000E+00 0.  1.
          1    1    1    2  501    0  0.39722390101E+00 -0.76645118807E+02  0.98336150065E+02  0.12467810727E+03  0.00000000000E+00 0. -1.
<scales pt_clust_5="13000.00000" pt_clust_6="13000.00000" pt_clust_7="13000.00000" pt_clust_8="13000.00000" pt_clust_9="76.64615"></scales>
<clustering>
<clus scale="   76.646">  2  9  1 -1</clus>
<clus scale="   78.956">  5  6 -1 -1</clus>
<clus scale="   86.819">  7  8 -1 -1</clus>
<clus scale="  130.626">  1  5  2 -1</clus>
<clus scale="   76.646">  2  5  1 -1</clus>
</clustering>
</event>
<event>
 9    2  0.3764910E-005  0.1494843E+03  0.7546771E-02  0.1227969E+00
         21   -1    0    0  501  502  0.00000000000E+00  0.00000000000E+00  0.25195878887E+02  0.25195878887E+02  0.00000000000E+00 0.  1.
          2   -1    0    0  502    0 -0.00000000000E+00 -0.00000000000E+00 -0.17511951066E+04  0.17511951066E+04  0.00000000000E+00 0. -1.
         24    2    1    2    0    0  0.12298424191E+02  0.23949362898E+02 -0.18725093184E+03  0.20547467042E+03  0.80200408283E+02 0.  0.
         23    2    1    2    0    0  0.57759809623E+02  0.94460901203E+02 -0.42297125689E+03  0.44668878139E+03  0.91471994589E+02 0.  0.
        -13    1    3    3    0    0  0.23413786927E+02  0.49903994758E+02 -0.13956665842E+03  0.15005820955E+03  0.00000000000E+00 0.  1.
         14    1    3    3    0    0 -0.11115362736E+02 -0.25954631860E+02 -0.47684273414E+02  0.55416460865E+02  0.00000000000E+00 0. -1.
        -11    1    4    4    0    0  0.54915917293E+02  0.33938417359E+02 -0.10704364691E+03  0.12500366590E+03  0.00000000000E+00 0.  1.
         11    1    4    4    0    0  0.28438923301E+01  0.60522483844E+02 -0.31592760999E+03  0.32168511549E+03  0.00000000000E+00 0. -1.
          1    1    1    2  501    0 -0.70058233814E+02 -0.11841026410E+03 -0.11157770390E+04  0.11242275337E+04  0.00000000000E+00 0. -1.
<scales pt_clust_5="13000.00000" pt_clust_6="13000.00000" pt_clust_7="13000.00000" pt_clust_8="13000.00000" pt_clust_9="118.23043"></scales>
<clustering>
<clus scale="   80.200">  5  6 -1 -1</clus>
<clus scale="   84.599">  2  5  1 -1</clus>
<clus scale="   91.472">  7  8 -1 -1</clus>
<clus scale="  118.230">  1  9  2 -1</clus>
<clus scale="  118.230">  1  5  2 -1</clus>
</clustering>
</event>
<event>
 9    2  0.3764910E-005  0.1378366E+03  0.7546771E-02  0.1232553E+00
         -1   -1    0    0    0  501 -0.00000000000E+00  0.00000000000E+00  0.61762126326E+03  0.61762126326E+03  0.00000000000E+00 0.  1.
         21   -1    0    0  501  502  0.00000000000E+00 -0.00000000000E+00 -0.60466004283E+02  0.60466004283E+02  0.00000000000E+00 0.  1.
         24    2    1    2    0    0 -0.35726936371E+01 -0.43229960240E+02  0.77770742247E+02  0.12524103666E+03  0.88064949401E+02 0.  0.
         23    2    1    2    0    0 -0.84595793381E+02 -0.42775483321E+02  0.14257615289E+03  0.19422318034E+03  0.91697841725E+02 0.  0.
        -11    1    3    3    0    0  0.18547078977E+02 -0.41015523084E+02  0.89443866537E+02  0.10013227518E+03  0.00000000000E+00 0.  1.
         12    1    3    3    0    0 -0.22119772614E+02 -0.22144371558E+01 -0.11673124290E+02  0.25108761481E+02  0.00000000000E+00 0. -1.
        -13    1    4    4    0    0 -0.89761013728E+02 -0.22804456555E+02  0.14640926479E+03  0.17324189921E+03  0.00000000000E+00 0.  1.
         13    1    4    4    0    0  0.51652203476E+01 -0.19971026766E+02 -0.38331118947E+01  0.20981281137E+02  0.00000000000E+00 0. -1.
         -2    1    1    2    0  502  0.88168487018E+02  0.86005443561E+02  0.33680836383E+03  0.35862305053E+03  0.00000000000E+00 0.  1.
<scales pt_clust_5="13000.00000" pt_clust_6="13000.00000" pt_clust_7="13000.00000" pt_clust_8="13000.00000" pt_clust_9="102.90995"></scales>
<clustering>
<clus scale="   88.065">  5  6 -1 -1</clus>
<clus scale="   91.698">  7  8 -1 -1</clus>
<clus scale="   98.168">  1  5  2 -1</clus>
<clus scale="  102.910">  2  9  1 -1</clus>
<clus scale="  102.910">  2  5  1 -1</clus>
</clustering>
</event>
<event>
 9    2  0.3764910E-005  0.1012324E+03  0.7546771E-02  0.1282718E+00
         -1   -1    0    0    0  501 -0.00000000000E+00  0.00000000000E+00  0.16875929971E+03  0.16875929971E+03  0.00000000000E+00 0.  1.
         21   -1    0    0  501  502  0.00000000000E+00 -0.00000000000E+00 -0.10855353872E+03  0.10855353872E+03  0.00000000000E+00 0.  1.
         24    2    1    2    0    0 -0.85148618994E+01 -0.56697701922E+02  0.78018685233E+02  0.12664620879E+03  0.81640766029E+02 0.  0.
         23    2    1    2    0    0 -0.11210709688E+01  0.45622185954E+01 -0.29074465434E+02  0.96465318463E+02  0.91859471408E+02 0.  0.
        -13    1    3    3    0    0  0.22308966200E+02 -0.32977791150E+01  0.57336930828E+02  0.61612409113E+02  0.00000000000E+00 0.  1.
         14    1    3    3    0    0 -0.30823828099E+02 -0.53399922807E+02  0.20681754406E+02  0.65033799672E+02  0.00000000000E+00 0. -1.
        -11    1    4    4    0    0  0.19798238218E+02 -0.27492234810E+02 -0.43869672329E+02  0.55428705213E+02  0.00000000000E+00 0.  1.
         11    1    4    4    0    0 -0.20919309187E+02  0.32054453405E+02  0.14795206895E+02  0.41036613250E+02  0.00000000000E+00 0. -1.
         -2    1    1    2    0  502  0.96359328682E+01  0.52135483327E+02  0.11261541187E+02  0.54201311182E+02  0.00000000000E+00 0.  1.
<scales pt_clust_5="13000.00000" pt_clust_6="13000.00000" pt_clust_7="13000.00000" pt_clust_8="13000.00000" pt_clust_9="53.01849"></scales>
<clustering>
<clus scale="   53.018">  2  9  1 -1</clus>
<clus scale="   81.641">  5  6 -1 -1</clus>
<clus scale="   91.859">  7  8 -1 -1</clus>
<clus scale="   92.060">  1  5  2 -1</clus>
<clus scale="   53.018">  2  5  1 -1</clus>
</clustering>
</event>
<event>
 9    2  0.3764910E-005  0.1854474E+03  0.7546771E-02  0.1190739E+00
         21   -1    0    0  501  502  0.00000000000E+00  0.00000000000E+00  0.13356204688E+03  0.13356204688E+03  0.00000000000E+00 0. -1.
          2   -1    0    0  502    0 -0.00000000000E+00 -0.00000000000E+00 -0.45034536109E+03  0.45034536109E+03  0.00000000000E+00 0. -1.
         23    2    1    2    0    0  0.17052514782E+02 -0.20205539215E+02 -0.10606647615E+03  0.14456074827E+03  0.94597359903E+02 0.  0.
         24    2    1    2    0    0 -0.10902004080E+03  0.13746040883E+03 -0.15513344463E+02  0.19376340660E+03  0.80764228407E+02 0.  0.
        -11    1    4    4    0    0 -0.57651180848E+02  0.30500301880E+02  0.22772992007E+02  0.69083545312E+02  0.00000000000E+00 0.  1.
         12    1    4    4    0    0 -0.51368859957E+02  0.10696010695E+03 -0.38286336470E+02  0.12467986129E+03  0.00000000000E+00 0. -1.
        -11    1    3    3    0    0 -0.34748354859E+02  0.10666362601E+02 -0.27817407140E+02  0.45771471426E+02  0.00000000000E+00 0. -1.
         11    1    3    3    0    0  0.51800869641E+02 -0.30871901817E+02 -0.78249069015E+02  0.98789276843E+02  0.00000000000E+00 0.  1.
          1    1    1    2  501    0  0.91967526023E+02 -0.11725486961E+03 -0.19520349360E+03  0.24558325310E+03  0.00000000000E+00 0. -1.
<scales pt_clust_5="13000.00000" pt_clust_6="13000.00000" pt_clust_7="13000.00000" pt_clust_8="13000.00000" pt_clust_9="166.93685"></scales>
<clustering>
<clus scale="   80.764">  5  6 -1 -1</clus>
<clus scale="   94.597">  7  8 -1 -1</clus>
<clus scale="   98.223">  2  7  1 -1</clus>
<clus scale="  166.937">  1  9  2 -1</clus>
<clus scale="  166.937">  1  5  2 -1</clus>
</clustering>
</event>
<event>
 9    2  0.3764910E-005  0.1202025E+03  0.7546771E-02  0.1245344E+00
         21   -1    0    0  501  502  0.00000000000E+00  0.00000000000E+00  0.15953408342E+03  0.15953408342E+03  0.00000000000E+00 0. -1.
          2   -1    0    0  502    0 -0.00000000000E+00 -0.00000000000E+00 -0.16963237931E+03  0.16963237931E+03  0.00000000000E+00 0. -1.
         23    2    1    2    0    0  0.10116930334E+03 -0.19225716918E+02 -0.73818442086E+02  0.15595374329E+03  0.90926077259E+02 0.  0.
         24    2    1    2    0    0 -0.31658115759E+02  0.16475382872E+02  0.47306243791E+02  0.10173694922E+03  0.82697349414E+02 0.  0.
        -11    1    4    4    0    0 -0.42237598683E+02 -0.84434834029E+01 -0.44759249619E+01  0.43305208218E+02  0.00000000000E+00 0.  1.
         12    1    4    4    0    0  0.10579482925E+02  0.24918866275E+02  0.51782168753E+02  0.58431740999E+02  0.00000000000E+00 0. -1.
        -11    1    3    3    0    0  0.41178645511E+02 -0.50973604823E+01  0.18113376340E+02  0.45274256841E+02  0.00000000000E+00 0.  1.
         11    1    3    3    0    0  0.59990657832E+02 -0.14128356436E+02 -0.91931818426E+02  0.11067948645E+03  0.00000000000E+00 0. -1.
          1    1    1    2  501    0 -0.69511187585E+02  0.27503340461E+01  0.16413902402E+02  0.71475770222E+02  0.00000000000E+00 0. -1.
<scales pt_clust_5="13000.00000" pt_clust_6="13000.00000" pt_clust_7="13000.00000" pt_clust_8="13000.00000" pt_clust_9="69.56558"></scales>
<clustering>
<clus scale="   69.566">  1  9  2 -1</clus>
<clus scale="   82.697">  5  6 -1 -1</clus>
<clus scale="   90.926">  7  8 -1 -1</clus>
<clus scale="  114.105">  1  5  2 -1</clus>
<clus scale="   69.566">  1  5  2 -1</clus>
</clustering>
</event>
<event>
 9    2  0.3764910E-005  0.1534264E+03  0.7546771E-02  0.1198516E+00
         21   -1    0    0  501  502  0.00000000000E+00  0.00000000000E+00  0.38334107105E+02  0.38334107105E+02  0.00000000000E+00 0.  1.
         -3   -1    0    0    0  501 -0.00000000000E+00 -0.00000000000E+00 -0.85333067364E+03  0.85333067364E+03  0.00000000000E+00 0.  1.
         23    2    1    2    0    0  0.69392237601E+02 -0.11308223110E+03 -0.60258122186E+03  0.62388270785E+03  0.92318094605E+02 0.  0.
         24    2    1    2    0    0 -0.45956401630E+02  0.89481248963E+02 -0.15367479395E+03  0.20027876138E+03  0.79854587824E+02 0.  0.
        -11    1    4    4    0    0 -0.53773899342E+02  0.45740048042E+02 -0.47246547252E+02  0.84947162828E+02  0.00000000000E+00 0.  1.
         12    1    4    4    0    0  0.78174977118E+01  0.43741200921E+02 -0.10642824670E+03  0.11533159855E+03  0.00000000000E+00 0. -1.
        -13    1    3    3    0    0  0.15721305011E+02  0.13365621440E+02 -0.43104186005E+02  0.47788807464E+02  0.00000000000E+00 0. -1.
         13    1    3    3    0    0  0.53670932590E+02 -0.12644785254E+03 -0.55947703585E+03  0.57609390039E+03  0.00000000000E+00 0.  1.
         -4    1    1    2    0  502 -0.23435835971E+02  0.23600982141E+02 -0.58740550718E+02  0.67503311506E+02  0.00000000000E+00 0.  1.
<scales pt_clust_5="13000.00000" pt_clust_6="13000.00000" pt_clust_7="13000.00000" pt_clust_8="13000.00000" pt_clust_9="33.26026"></scales>
<clustering>
<clus scale="   33.260">  1  9  2 -1</clus>
<clus scale="   79.855">  5  6 -1 -1</clus>
<clus scale="   92.318">  7  8 -1 -1</clus>
<clus scale="  146.266">  1  5  2 -1</clus>
<clus scale="   33.260">  1  5  2 -1</clus>
</clustering>
</event>
<event>
 9    2  0.3764910E-005  0.1012292E+03  0.7546771E-02  0.1282517E+00
         -1   -1    0    0    0  501 -0.00000000000E+00  0.00000000000E+00  0.68102132553E+02  0.68102132553E+02  0.00000000000E+00 0.  1.
         21   -1    0    0  501  502  0.00000000000E+00 -0.00000000000E+00 -0.31114426522E+03  0.31114426522E+03  0.00000000000E+00 0.  1.
         23    2    1    2    0    0 -0.52641319149E+02  0.69896156133E+01 -0.18395507690E+02  0.10715505500E+03  0.91235124269E+02 0.  0.
         24    2    1    2    0    0  0.20796947918E+02  0.42837223954E+02 -0.13273264473E+03  0.16279835267E+03  0.81349910004E+02 0.  0.
        -11    1    4    4    0    0  0.36832296494E+02  0.60166857946E+02 -0.96023285886E+02  0.11915175321E+03  0.00000000000E+00 0.  1.
         12    1    4    4    0    0 -0.16035348576E+02 -0.17329633992E+02 -0.36709358840E+02  0.43646599463E+02  0.00000000000E+00 0. -1.
        -11    1    3    3    0    0  0.84301447054E+01  0.21141042195E+02  0.22740813438E+02  0.32173834099E+02  0.00000000000E+00 0.  1.
         11    1    3    3    0    0 -0.61071463854E+02 -0.14151426581E+02 -0.41136321128E+02  0.74981220899E+02  0.00000000000E+00 0. -1.
         -2    1    1    2    0  502  0.31844371230E+02 -0.49826839567E+02 -0.91913980254E+02  0.10929299011E+03  0.00000000000E+00 0.  1.
<scales pt_clust_5="13000.00000" pt_clust_6="13000.00000" pt_clust_7="13000.00000" pt_clust_8="13000.00000" pt_clust_9="59.13356"></scales>
<clustering>
<clus scale="   59.134">  2  9  1 -1</clus>
<clus scale="   81.350">  5  6 -1 -1</clus>
<clus scale="   91.235">  7  8 -1 -1</clus>
<clus scale="   92.419">  2  5  1 -1</clus>
<clus scale="   59.134">  2  5  1 -1</clus>
</clustering>
</event>
<event>
 9    2  0.3764910E-005  0.1606293E+03  0.7546771E-02  0.1189602E+00
          2   -1    0    0  502    0 -0.00000000000E+00  0.00000000000E+00  0.15698348257E+04  0.15698348257E+04  0.00000000000E+00 0. -1.
         21   -1    0    0  501  502  0.00000000000E+00 -0.00000000000E+00 -0.59617866156E+02  0.59617866156E+02  0.00000000000E+00 0. -1.
         23    2    1    2    0    0  0.75764206296E+01 -0.97056175580E+02  0.48238189885E+03  0.50125969745E+03  0.95350325562E+02 0.  0.
         24    2    1    2    0    0 -0.12712421423E+03  0.12682273118E+03  0.97338874710E+03  0.99350029283E+03  0.85513787667E+02 0.  0.
        -11    1    4    4    0    0 -0.67435424761E+02  0.12145342297E+03  0.68921622018E+03  0.70307714273E+03  0.00000000000E+00 0.  1.
         12    1    4    4    0    0 -0.59688789473E+02  0.53693082053E+01  0.28417252692E+03  0.29042315010E+03  0.00000000000E+00 0. -1.
        -11    1    3    3    0    0  0.34708692157E+02 -0.10254954038E+03  0.36961157894E+03  0.38514129982E+03  0.00000000000E+00 0.  1.
         11    1    3    3    0    0 -0.27132271527E+02  0.54933648044E+01  0.11277031991E+03  0.11611839763E+03  0.00000000000E+00 0. -1.
          1    1    1    2  501    0  0.11954779360E+03 -0.29766555598E+02  0.54446313558E+02  0.13469270154E+03  0.00000000000E+00 0. -1.
<scales pt_clust_5="13000.00000" pt_clust_6="13000.00000" pt_clust_7="13000.00000" pt_clust_8="13000.00000" pt_clust_9="123.19790"></scales>
<clustering>
<clus scale="   85.514">  5  6 -1 -1</clus>
<clus scale="   95.350">  7  8 -1 -1</clus>
<clus scale="  123.198">  2  9  1 -1</clus>
<clus scale="  154.993">  2  5  1 -1</clus>
<clus scale="  123.198">  2  5  1 -1</clus>
</clustering>
</event>
<event>
 9    2  0.3764910E-005  0.9746382E+02  0.7546771E-02  0.1290225E+00
         -1   -1    0    0    0  501 -0.00000000000E+00  0.00000000000E+00  0.18947232983E+03  0.18947232983E+03  0.00000000000E+00 0.  1.
         21   -1    0    0  501  502  0.00000000000E+00 -0.00000000000E+00 -0.17056570447E+03  0.17056570447E+03  0.00000000000E+00 0.  1.
         24    2    1    2    0    0  0.47459684349E+02  0.46429264245E+02  0.15071621875E+03  0.18209947137E+03  0.77696464933E+02 0.  0.
         23    2    1    2    0    0 -0.87387627802E+01 -0.19986409543E+02 -0.64344552697E+02  0.95779777341E+02  0.67510900930E+02 0.  0.
        -11    1    3    3    0    0  0.68448865530E+02  0.42958026454E+02  0.12269465347E+03  0.14691704196E+03  0.00000000000E+00 0.  1.
         12    1    3    3    0    0 -0.20989181181E+02  0.34712377916E+01  0.28021565284E+02  0.35182429413E+02  0.00000000000E+00 0. -1.
        -11    1    4    4    0    0 -0.46050707178E+01 -0.45176029706E+02 -0.40385413989E+02  0.60770568529E+02  0.00000000000E+00 0. -1.
         11    1    4    4    0    0 -0.41336920624E+01  0.25189620163E+02 -0.23959138708E+02  0.35009208812E+02  0.00000000000E+00 0.  1.
         -2    1    1    2    0  502 -0.38720921569E+02 -0.26442854702E+02 -0.67465040700E+02  0.82158785583E+02  0.00000000000E+00 0.  1.
<scales pt_clust_5="13000.00000" pt_clust_6="13000.00000" pt_clust_7="13000.00000" pt_clust_8="13000.00000" pt_clust_9="46.88853"></scales>
<clustering>
<clus scale="   46.889">  2  9  1 -1</clus>
<clus scale="   67.511">  7  8 -1 -1</clus>
<clus scale="   77.696">  5  6 -1 -1</clus>
<clus scale="   89.555">  2  7  1 -1</clus>
<clus scale="   46.889">  2  5  1 -1</clus>
</clustering>
</event>
<event>
 9    2  0.3764910E-005  0.1027618E+03  0.7546771E-02  0.1280775E+00
          2   -1    0    0  502    0 -0.00000000000E+00  0.00000000000E+00  0.18366614333E+03  0.18366614333E+03  0.00000000000E+00 0. -1.
         21   -1    0    0  501  502  0.00000000000E+00 -0.00000000000E+00 -0.44768533823E+03  0.44768533823E+03  0.00000000000E+00 0. -1.
         23    2    1    2    0    0 -0.45774858248E+02  0.99148850181E+01  0.15439671962E+03  0.18590874340E+03  0.92358384832E+02 0.  0.
         24    2    1    2    0    0  0.18990886710E+02 -0.34989002907E+02 -0.14852860229E+03  0.17307303754E+03  0.79426988625E+02 0.  0.
        -13    1    4    4    0    0  0.43133540037E+02 -0.44645399654E+01 -0.11030844305E+03  0.11852589169E+03  0.00000000000E+00 0.  1.
         14    1    4    4    0    0 -0.24142653327E+02 -0.30524462942E+02 -0.38220159236E+02  0.54547145843E+02  0.00000000000E+00 0. -1.
        -13    1    3    3    0    0 -0.44566107393E+02 -0.35900116761E+02  0.76610717833E+02  0.95625092934E+02  0.00000000000E+00 0.  1.
         13    1    3    3    0    0 -0.12087508547E+01  0.45815001779E+02  0.77786001787E+02  0.90283650462E+02  0.00000000000E+00 0. -1.
          1    1    1    2  501    0  0.26783971538E+02  0.25074117889E+02 -0.26988731223E+03  0.27236970063E+03  0.00000000000E+00 0. -1.
<scales pt_clust_5="13000.00000" pt_clust_6="13000.00000" pt_clust_7="13000.00000" pt_clust_8="13000.00000" pt_clust_9="36.68913"></scales>
<clustering>
<clus scale="   36.689">  2  9  1 -1</clus>
<clus scale="   79.427">  5  6 -1 -1</clus>
<clus scale="   91.316">  2  5  1 -1</clus>
<clus scale="   92.358">  7  8 -1 -1</clus>
<clus scale="   36.689">  2  5  1 -1</clus>
</clustering>
</event>
<event>
 9    2  0.3764910E-005  0.1441215E+03  0.7546771E-02  0.1222464E+00
         -1   -1    0    0    0  501 -0.00000000000E+00  0.00000000000E+00  0.18266223545E+03  0.18266223545E+03  0.00000000000E+00 0.  1.
         21   -1    0    0  501  502  0.00000000000E+00 -0.00000000000E+00 -0.18968828920E+03  0.18968828920E+03  0.00000000000E+00 0. -1.
         24    2    1    2    0    0  0.58985722889E+02 -0.35543664023E+02 -0.16633477674E+02  0.10715903891E+03  0.80397260425E+02 0.  0.
         23    2    1    2    0    0 -0.70781663561E+02 -0.84871261631E+02  0.15342916250E+02  0.14406430296E+03  0.91136948385E+02 0.  0.
        -11    1    3    3    0    0  0.42246523471E+02 -0.61227837169E+02 -0.56846662336E+01  0.74605175557E+02  0.00000000000E+00 0.  1.
         12    1    3    3    0    0  0.16739199418E+02  0.25684173145E+02 -0.10948811440E+02  0.32553863354E+02  0.00000000000E+00 0. -1.
        -13    1    4    4    0    0 -0.21225168453E+02 -0.90375018297E+02  0.39495387220E+01  0.92917977615E+02  0.00000000000E+00 0. -1.
         13    1    4    4    0    0 -0.49556495107E+02  0.55037566659E+01  0.11393377528E+02  0.51146325344E+02  0.00000000000E+00 0.  1.
         -2    1    1    2    0  502  0.11795940672E+02  0.12041492565E+03 -0.57354923276E+01  0.12112718278E+03  0.00000000000E+00 0.  1.
<scales pt_clust_5="13000.00000" pt_clust_6="13000.00000" pt_clust_7="13000.00000" pt_clust_8="13000.00000" pt_clust_9="111.64702"></scales>
<clustering>
<clus scale="   80.397">  5  6 -1 -1</clus>
<clus scale="   91.137">  7  8 -1 -1</clus>
<clus scale="  105.860">  1  5  2 -1</clus>
<clus scale="  111.647">  2  9  1 -1</clus>
<clus scale="  111.647">  2  5  1 -1</clus>
</clustering>
</event>
<event>
 9    2  0.3764910E-005  0.9802679E+02  0.7546771E-02  0.1288674E+00
         21   -1    0    0  501  502  0.00000000000E+00  0.00000000000E+00  0.19635329992E+03  0.19635329992E+03  0.00000000000E+00 0. -1.
          4   -1    0    0  502    0 -0.00000000000E+00 -0.00000000000E+00 -0.35585222127E+03  0.35585222127E+03  0.00000000000E+00 0. -1.
         24    2    1    2    0    0 -0.30325324890E+02  0.19673337401E+02 -0.27354577069E+03  0.28740364699E+03  0.80417051096E+02 0.  0.
         23    2    1    2    0    0  0.74478314891E+02 -0.82155177232E+02  0.19725950247E+02  0.14335271266E+03  0.88681421834E+02 0.  0.
        -13    1    3    3    0    0 -0.12376414110E+02  0.30533729180E+02 -0.35490663632E+02  0.48425937770E+02  0.00000000000E+00 0.  1.
         14    1    3    3    0    0 -0.17948910779E+02 -0.10860391780E+02 -0.23805510705E+03  0.23897770922E+03  0.00000000000E+00 0. -1.
        -13    1    4    4    0    0  0.21850352473E+02 -0.21312552803E+02 -0.34708550379E+02  0.46220626127E+02  0.00000000000E+00 0.  1.
         13    1    4    4    0    0  0.52627962418E+02 -0.60842624429E+02  0.54434500626E+02  0.97132086532E+02  0.00000000000E+00 0. -1.
          3    1    1    2  501    0 -0.44152990001E+02  0.62481839832E+02  0.94320899093E+02  0.12144916155E+03  0.00000000000E+00 0. -1.
<scales pt_clust_5="13000.00000" pt_clust_6="13000.00000" pt_clust_7="13000.00000" pt_clust_8="13000.00000" pt_clust_9="76.50795"></scales>
<clustering>
<clus scale="   76.508">  1  9  2 -1</clus>
<clus scale="   80.417">  5  6 -1 -1</clus>
<clus scale="   88.681">  7  8 -1 -1</clus>
<clus scale="   90.619">  2  5  1 -1</clus>
<clus scale="   76.508">  1  5  2 -1</clus>
</clustering>
</event>
<event>
 9    2  0.3764910E-005  0.2294078E+03  0.7546771E-02  0.1166589E+00
          2   -1    0    0  502    0 -0.00000000000E+00  0.00000000000E+00  0.78081314630E+03  0.78081314630E+03  0.00000000000E+00 0. -1.
         21   -1    0    0  501  502  0.00000000000E+00 -0.00000000000E+00 -0.98184722460E+02  0.98184722460E+02  0.00000000000E+00 0. -1.
         24    2    1    2    0    0  0.33444879825E+02 -0.19026976603E+02  0.43560630743E+02  0.99456894974E+02  0.80706626629E+02 0.  0.
         23    2    1    2    0    0 -0.77893470121E+02  0.21368236443E+03  0.38588955294E+03  0.45710397455E+03  0.91135892625E+02 0.  0.
        -13    1    3    3    0    0  0.37066782419E+02 -0.34129905951E+02  0.58979513459E+02  0.77571772230E+02  0.00000000000E+00 0.  1.
         14    1    3    3    0    0 -0.36219025938E+01  0.15102929348E+02 -0.15418882715E+02  0.21885122743E+02  0.00000000000E+00 0. -1.
        -13    1    4    4    0    0 -0.30461308053E+02  0.18824540735E+03  0.28839742165E+03  0.34574166294E+03  0.00000000000E+00 0. -1.
         13    1    4    4    0    0 -0.47432162068E+02  0.25436957078E+02  0.97492131285E+02  0.11136231161E+03  0.00000000000E+00 0.  1.
          1    1    1    2  501    0  0.44448590296E+02 -0.19465538783E+03  0.25317824016E+03  0.32243699924E+03  0.00000000000E+00 0. -1.
<scales pt_clust_5="13000.00000" pt_clust_6="13000.00000" pt_clust_7="13000.00000" pt_clust_8="13000.00000" pt_clust_9="210.52835"></scales>
<clustering>
<clus scale="   80.707">  5  6 -1 -1</clus>
<clus scale="   89.410">  1  5  2 -1</clus>
<clus scale="   91.136">  7  8 -1 -1</clus>
<clus scale="  210.528">  2  9  1 -1</clus>
<clus scale="  210.528">  2  5  1 -1</clus>
</clustering>
</event>
<event>
 9    2  0.3764910E-005  0.2426489E+03  0.7546771E-02  0.1137715E+00
         -1   -1    0    0    0  501 -0.00000000000E+00  0.00000000000E+00  0.13623039138E+03  0.13623039138E+03  0.00000000000E+00 0.  1.
         21   -1    0    0  501  502  0.00000000000E+00 -0.00000000000E+00 -0.78094746063E+03  0.78094746063E+03  0.00000000000E+00 0.  1.
         23    2    1    2    0    0  0.11914970445E+03 -0.18941200964E+02 -0.89869221614E+02  0.17433444255E+03  0.88094265997E+02 0.  0.
         24    2    1    2    0    0 -0.26827594147E+03  0.12014025065E+03 -0.33054210978E+03  0.45510577503E+03  0.10703980350E+03 0.  0.
        -11    1    4    4    0    0 -0.21635076751E+03  0.49115331154E+02 -0.26370480293E+03  0.34461600869E+03  0.00000000000E+00 0.  1.
         12    1    4    4    0    0 -0.51925173963E+02  0.71024919493E+02 -0.66837306847E+02  0.11048976634E+03  0.00000000000E+00 0. -1.
        -11    1    3    3    0    0  0.49461323867E+02  0.28838815386E+02 -0.64210238022E+02  0.86029381599E+02  0.00000000000E+00 0.  1.
         11    1    3    3    0    0  0.69688380582E+02 -0.47780016351E+02 -0.25658983593E+02  0.88305060951E+02  0.00000000000E+00 0. -1.
         -2    1    1    2    0  502  0.14912623702E+03 -0.10119904968E+03 -0.22430573785E+03  0.28773763442E+03  0.00000000000E+00 0.  1.
<scales pt_clust_5="13000.00000" pt_clust_6="13000.00000" pt_clust_7="13000.00000" pt_clust_8="13000.00000" pt_clust_9="217.76360"></scales>
<clustering>
<clus scale="   88.094">  7  8 -1 -1</clus>
<clus scale="  107.040">  5  6 -1 -1</clus>
<clus scale="  149.385">  1  7  2 -1</clus>
<clus scale="  217.764">  2  9  1 -1</clus>
<clus scale="  217.764">  2  5  1 -1</clus>
</clustering>
</event>
<event>
 9    2  0.3764910E-005  0.9327672E+02  0.7546771E-02  0.1301541E+00
         -3   -1    0    0    0  501 -0.00000000000E+00  0.00000000000E+00  0.45346563298E+03  0.45346563298E+03  0.00000000000E+00 0.  1.
         21   -1    0    0  501  502  0.00000000000E+00 -0.00000000000E+00 -0.29619409502E+02  0.29619409502E+02  0.00000000000E+00 0.  1.
         23    2    1    2    0    0 -0.25693336920E+01  0.55206150736E+01  0.21273431643E+03  0.23150064134E+03  0.91102024615E+02 0.  0.
         24    2    1    2    0    0  0.41673076768E+02 -0.18593113109E+02  0.11901303876E+03  0.15067754078E+03  0.80357132344E+02 0.  0.
        -11    1    4    4    0    0  0.27214292878E+02 -0.48440573901E+02  0.93783753061E+02  0.10900687719E+03  0.00000000000E+00 0.  1.
         12    1    4    4    0    0  0.14458783890E+02  0.29847460791E+02  0.25229285704E+02  0.41670663594E+02  0.00000000000E+00 0. -1.
        -11    1    3    3    0    0  0.37032643082E+02 -0.20359693180E+02  0.78165846972E+02  0.88858502085E+02  0.00000000000E+00 0.  1.
         11    1    3    3    0    0 -0.39601976774E+02  0.25880308254E+02  0.13456846946E+03  0.14264213926E+03  0.00000000000E+00 0. -1.
         -4    1    1    2    0  502 -0.39103743076E+02  0.13072498036E+02  0.92098868281E+02  0.10090686035E+03  0.00000000000E+00 0.  1.
<scales pt_clust_5="13000.00000" pt_clust_6="13000.00000" pt_clust_7="13000.00000" pt_clust_8="13000.00000" pt_clust_9="41.23099"></scales>
<clustering>
<clus scale="   41.231">  2  9  1 -1</clus>
<clus scale="   80.357">  5  6 -1 -1</clus>
<clus scale="   82.814">  2  5  1 -1</clus>
<clus scale="   91.102">  7  8 -1 -1</clus>
<clus scale="   41.231">  2  5  1 -1</clus>
</clustering>
</event>
<event>
 9    2  0.3764910E-005  0.1219052E+03  0.7546771E-02  0.1243037E+00
          2   -1    0    0  502    0 -0.00000000000E+00  0.00000000000E+00  0.37068679197E+03  0.37068679197E+03  0.00000000000E+00 0. -1.
         21   -1    0    0  501  502  0.00000000000E+00 -0.00000000000E+00 -0.74135368668E+02  0.74135368668E+02  0.00000000000E+00 0.  1.
         23    2    1    2    0    0 -0.18817759133E+02  0.83399234838E+02  0.26956952849E+03  0.29727149164E+03  0.91613692315E+02 0.  0.
         24    2    1    2    0    0 -0.80524719918E+01 -0.63873343013E+02 -0.12182466622E+01  0.10397868544E+03  0.81642125449E+02 0.  0.
        -13    1    4    4    0    0  0.19451920174E+02 -0.32143685525E+02 -0.34027400561E+02  0.50689818569E+02  0.00000000000E+00 0.  1.
         14    1    4    4    0    0 -0.27504392166E+02 -0.31729657487E+02  0.32809153899E+02  0.53288866870E+02  0.00000000000E+00 0. -1.
        -13    1    3    3    0    0 -0.27878716407E+02 -0.81707962459E+01  0.36198951446E+02  0.46414963380E+02  0.00000000000E+00 0.  1.
         13    1    3    3    0    0  0.90609572735E+01  0.91570031084E+02  0.23337057705E+03  0.25085652826E+03  0.00000000000E+00 0. -1.
          1    1    1    2  501    0  0.26870231125E+02 -0.19525891825E+02  0.28200141469E+02  0.43571983558E+02  0.00000000000E+00 0. -1.
<scales pt_clust_5="13000.00000" pt_clust_6="13000.00000" pt_clust_7="13000.00000" pt_clust_8="13000.00000" pt_clust_9="33.21550"></scales>
<clustering>
<clus scale="   33.216">  2  9  1 -1</clus>
<clus scale="   81.642">  5  6 -1 -1</clus>
<clus scale="   91.614">  7  8 -1 -1</clus>
<clus scale="  114.600">  2  5  1 -1</clus>
<clus scale="   33.216">  2  5  1 -1</clus>
</clustering>
</event>
<event>
 9    2  0.3764910E-005  0.3810726E+03  0.7546771E-02  0.1050776E+00
          2   -1    0    0  502    0 -0.00000000000E+00  0.00000000000E+00  0.14737745907E+04  0.14737745907E+04  0.00000000000E+00 0. -1.
         21   -1    0    0  501  502  0.00000000000E+00 -0.00000000000E+00 -0.32632080278E+03  0.32632080278E+03  0.00000000000E+00 0.  1.
         23    2    1    2    0    0  0.35598520572E+03  0.12888940810E+03  0.12831690777E+04  0.13409326862E+04  0.90772465694E+02 0.  0.
         24    2    1    2    0    0 -0.31145809881E+03 -0.23627663827E+02 -0.11960861138E+03  0.34374120522E+03  0.79293016286E+02 0.  0.
        -13    1    4    4    0    0 -0.23126286087E+03 -0.44496278664E+02 -0.64341149291E+02  0.24413564493E+03  0.00000000000E+00 0.  1.
         14    1    4    4    0    0 -0.80195237947E+02  0.20868614837E+02 -0.55267462093E+02  0.99605560290E+02  0.00000000000E+00 0. -1.
        -13    1    3    3    0    0  0.28182803535E+03  0.11748692442E+03  0.11277108908E+04  0.11683159128E+04  0.00000000000E+00 0. -1.
         13    1    3    3    0    0  0.74157170373E+02  0.11402483683E+02  0.15545818695E+03  0.17261677335E+03  0.00000000000E+00 0.  1.
          1    1    1    2  501    0 -0.44527106908E+02 -0.10526174427E+03 -0.16106678431E+02  0.11542150210E+03  0.00000000000E+00 0. -1.
<scales pt_clust_5="13000.00000" pt_clust_6="13000.00000" pt_clust_7="13000.00000" pt_clust_8="13000.00000" pt_clust_9="114.29216"></scales>
<clustering>
<clus scale="   79.293">  5  6 -1 -1</clus>
<clus scale="   90.772">  7  8 -1 -1</clus>
<clus scale="  114.292">  2  9  1 -1</clus>
<clus scale="  378.502">  2  5  1 -1</clus>
<clus scale="  114.292">  2  5  1 -1</clus>
</clustering>
</event>
<event>
 9    2  0.3764910E-005  0.2184038E+03  0.7546771E-02  0.1137256E+00
         21   -1    0    0  501  502  0.00000000000E+00  0.00000000000E+00  0.62172182599E+02  0.62172182599E+02  0.00000000000E+00 0. -1.
          4   -1    0    0  502    0 -0.00000000000E+00 -0.00000000000E+00 -0.10495637886E+04  0.10495637886E+04  0.00000000000E+00 0. -1.
         23    2    1    2    0    0 -0.19406613676E+03 -0.10959481522E+03 -0.53268805153E+03  0.58706600921E+03  0.10591151950E+03 0.  0.
         24    2    1    2    0    0  0.11834196538E+03  0.10913514246E+03 -0.26359085005E+03  0.31910141571E+03  0.80189009140E+02 0.  0.
        -11    1    4    4    0    0  0.75512896923E+02  0.37692089576E+02 -0.74890048955E+02  0.11283355286E+03  0.00000000000E+00 0.  1.
         12    1    4    4    0    0  0.42829068456E+02  0.71443052881E+02 -0.18870080109E+03  0.20626786285E+03  0.00000000000E+00 0. -1.
        -11    1    3    3    0    0 -0.20256470536E+03 -0.91164953495E+02 -0.51187478340E+03  0.55799579075E+03  0.00000000000E+00 0. -1.
         11    1    3    3    0    0  0.84985686016E+01 -0.18429861720E+02 -0.20813268130E+02  0.29070218464E+02  0.00000000000E+00 0.  1.
          3    1    1    2  501    0  0.75724171383E+02  0.45967275874E+00 -0.19111270440E+03  0.20556854627E+03  0.00000000000E+00 0. -1.
<scales pt_clust_5="13000.00000" pt_clust_6="13000.00000" pt_clust_7="13000.00000" pt_clust_8="13000.00000" pt_clust_9="75.72560"></scales>
<clustering>
<clus scale="   75.726">  1  9  2 -1</clus>
<clus scale="   80.189">  5  6 -1 -1</clus>
<clus scale="  105.912">  7  8 -1 -1</clus>
<clus scale="  207.155">  1  5  2 -1</clus>
<clus scale="   75.726">  1  5  2 -1</clus>
</clustering>
</event>
<event>
 9    2  0.3764910E-005  0.9671126E+02  0.7546771E-02  0.1293264E+00
         -1   -1    0    0    0  501 -0.00000000000E+00  0.00000000000E+00  0.17208758568E+03  0.17208758568E+03  0.00000000000E+00 0.  1.
         21   -1    0    0  501  502  0.00000000000E+00 -0.00000000000E+00 -0.35472944977E+03  0.35472944977E+03  0.00000000000E+00 0.  1.
         23    2    1    2    0    0 -0.73646616489E+01  0.30346117249E+02  0.13991910966E+03  0.17077820114E+03  0.92804696353E+02 0.  0.
         24    2    1    2    0    0 -0.20003990047E+02  0.34987165366E+00 -0.10612479353E+03  0.13573017143E+03  0.82218766753E+02 0.  0.
        -11    1    4    4    0    0 -0.21938453606E+02  0.38266507383E+02 -0.40330362604E+02  0.59767545388E+02  0.00000000000E+00 0.  1.
         12    1    4    4    0    0  0.19344635590E+01 -0.37916635729E+02 -0.65794430922E+02  0.75962626038E+02  0.00000000000E+00 0. -1.
        -11    1    3    3    0    0  0.38280366027E+02  0.31471281812E+02  0.92573683379E+02  0.10500340402E+03  0.00000000000E+00 0. -1.
         11    1    3    3    0    0 -0.45645027675E+02 -0.11251645632E+01  0.47345426277E+02  0.65774797120E+02  0.00000000000E+00 0.  1.
         -2    1    1    2    0  502  0.27368651696E+02 -0.30695988902E+02 -0.21643618023E+03  0.22030866288E+03  0.00000000000E+00 0.  1.
<scales pt_clust_5="13000.00000" pt_clust_6="13000.00000" pt_clust_7="13000.00000" pt_clust_8="13000.00000" pt_clust_9="41.12526"></scales>
<clustering>
<clus scale="   41.125">  2  9  1 -1</clus>
<clus scale="   82.219">  5  6 -1 -1</clus>
<clus scale="   86.604">  2  5  1 -1</clus>
<clus scale="   92.805">  7  8 -1 -1</clus>
<clus scale="   41.125">  2  5  1 -1</clus>
</clustering>
</event>
<event>
 9    2  0.3764910E-005  0.2802808E+03  0.7546771E-02  0.1095879E+00
         -1   -1    0    0    0  501 -0.00000000000E+00  0.00000000000E+00  0.31386216552E+03  0.31386216552E+03  0.00000000000E+00 0.  1.
         21   -1    0    0  501  502  0.00000000000E+00 -0.00000000000E+00 -0.44454022127E+03  0.44454022127E+03  0.00000000000E+00 0.  1.
         23    2    1    2    0    0 -0.18550806772E+03  0.27658405928E+02 -0.99717326313E+02  0.22996392884E+03  0.88100129347E+02 0.  0.
         24    2    1    2    0    0  0.33763681888E+03 -0.89764721168E+02  0.12138950614E+02  0.35856222730E+03  0.79769606328E+02 0.  0.
        -11    1    4    4    0    0  0.29893214058E+03 -0.55934649017E+02  0.26261749542E+02  0.30525200920E+03  0.00000000000E+00 0.  1.
         12    1    4    4    0    0  0.38704678300E+02 -0.33830072151E+02 -0.14122798928E+02  0.53310218098E+02  0.00000000000E+00 0. -1.
        -13    1    3    3    0    0 -0.13063938945E+03 -0.10923034924E+02 -0.96552748812E+02  0.16281399225E+03  0.00000000000E+00 0.  1.
         13    1    3    3    0    0 -0.54868678266E+02  0.38581440852E+02 -0.31645775012E+01  0.67149936587E+02  0.00000000000E+00 0. -1.
         -2    1    1    2    0  502 -0.15212875116E+03  0.62106315240E+02 -0.43099680047E+02  0.16987623065E+03  0.00000000000E+00 0.  1.
<scales pt_clust_5="13000.00000" pt_clust_6="13000.00000" pt_clust_7="13000.00000" pt_clust_8="13000.00000" pt_clust_9="164.31784"></scales>
<clustering>
<clus scale="   79.770">  5  6 -1 -1</clus>
<clus scale="   88.100">  7  8 -1 -1</clus>
<clus scale="  164.318">  2  9  1 -1</clus>
<clus scale="  277.775">  2  5  1 -1</clus>
<clus scale="  164.318">  2  5  1 -1</clus>
</clustering>
</event>
<event>
 9    2  0.3764910E-005  0.1231605E+03  0.7546771E-02  0.1240337E+00
         21   -1    0    0  501  502  0.00000000000E+00  0.00000000000E+00  0.58573258038E+03  0.58573258038E+03  0.00000000000E+00 0. -1.
          2   -1    0    0  502    0 -0.00000000000E+00 -0.00000000000E+00 -0.17006662484E+03  0.17006662484E+03  0.00000000000E+00 0. -1.
         23    2    1    2    0    0 -0.73182723509E+02 -0.28132123718E+02  0.21710013510E+02  0.12241411122E+03  0.91470008931E+02 0.  0.
         24    2    1    2    0    0  0.11172084527E+03  0.18392929578E+02  0.50037776108E+03  0.51978209094E+03  0.83520483436E+02 0.  0.
        -11    1    4    4    0    0  0.35271126955E+02 -0.30040328652E+02  0.23124852102E+03  0.23584391495E+03  0.00000000000E+00 0.  1.
         12    1    4    4    0    0  0.76449718317E+02  0.48433258230E+02  0.26912924006E+03  0.28393817600E+03  0.00000000000E+00 0. -1.
        -13    1    3    3    0    0 -0.26256220617E+02 -0.58802976352E+02  0.10663825330E+02  0.65275541511E+02  0.00000000000E+00 0.  1.
         13    1    3    3    0    0 -0.46926502892E+02  0.30670852634E+02  0.11046188180E+02  0.57138569708E+02  0.00000000000E+00 0. -1.
          1    1    1    2  501    0 -0.38538121763E+02  0.97391941396E+01 -0.10642181906E+03  0.11360300306E+03  0.00000000000E+00 0. -1.
<scales pt_clust_5="13000.00000" pt_clust_6="13000.00000" pt_clust_7="13000.00000" pt_clust_8="13000.00000" pt_clust_9="39.74972"></scales>
<clustering>
<clus scale="   39.750">  1  9  2 -1</clus>
<clus scale="   83.520">  5  6 -1 -1</clus>
<clus scale="   91.470">  7  8 -1 -1</clus>
<clus scale="  117.377">  1  5  2 -1</clus>
<clus scale="   39.750">  1  5  2 -1</clus>
</clustering>
</event>
<event>
 9    2  0.3764910E-005  0.1108397E+03  0.7546771E-02  0.1263427E+00
         21   -1    0    0  501  502  0.00000000000E+00  0.00000000000E+00  0.12423523168E+03  0.12423523168E+03  0.00000000000E+00 0. -1.
          4   -1    0    0  502    0 -0.00000000000E+00 -0.00000000000E+00 -0.69473837345E+03  0.69473837345E+03  0.00000000000E+00 0. -1.
         23    2    1    2    0    0  0.62912682285E+02 -0.22816357289E+02 -0.55823286891E+03  0.56961479527E+03  0.91424763092E+02 0.  0.
         24    2    1    2    0    0 -0.52511245449E+02 -0.22734246111E+01 -0.11120761704E+03  0.14676112412E+03  0.80056817986E+02 0.  0.
        -11    1    4    4    0    0 -0.69656385751E+02  0.15150331319E+02 -0.80954593777E+02  0.10786654193E+03  0.00000000000E+00 0.  1.
         12    1    4    4    0    0  0.17145140302E+02 -0.17423755930E+02 -0.30253023266E+02  0.38894582186E+02  0.00000000000E+00 0. -1.
        -11    1    3    3    0    0  0.57832594322E+02 -0.55533501581E+02 -0.39110034612E+03  0.39923434158E+03  0.00000000000E+00 0. -1.
         11    1    3    3    0    0  0.50800879632E+01  0.32717144293E+02 -0.16713252280E+03  0.17038045369E+03  0.00000000000E+00 0.  1.
          3    1    1    2  501    0 -0.10401436836E+02  0.25089781900E+02  0.98937344183E+02  0.10259768573E+03  0.00000000000E+00 0. -1.
<scales pt_clust_5="13000.00000" pt_clust_6="13000.00000" pt_clust_7="13000.00000" pt_clust_8="13000.00000" pt_clust_9="27.16039"></scales>
<clustering>
<clus scale="   27.160">  1  9  2 -1</clus>
<clus scale="   80.057">  5  6 -1 -1</clus>
<clus scale="   91.425">  7  8 -1 -1</clus>
<clus scale="  101.666">  1  5  2 -1</clus>
<clus scale="   27.160">  1  5  2 -1</clus>
</clustering>
</event>
<event>
 9    2  0.3764910E-005  0.2059466E+03  0.7546771E-02  0.1145986E+00
         21   -1    0    0  501  502  0.00000000000E+00  0.00000000000E+00  0.92257646402E+02  0.92257646402E+02  0.00000000000E+00 0. -1.
          2   -1    0    0  502    0 -0.00000000000E+00 -0.00000000000E+00 -0.94656601217E+03  0.94656601217E+03  0.00000000000E+00 0. -1.
         24    2    1    2    0    0  0.19700651626E+03 -0.72495233828E+02 -0.70724298152E+03  0.74207739513E+03  0.80119280283E+02 0.  0.
         23    2    1    2    0    0 -0.11018791930E+03  0.67913923742E+02 -0.13484394520E+03  0.20895206801E+03  0.93404489019E+02 0.  0.
        -13    1    3    3    0    0  0.96389737407E+02  0.54171481544E+01 -0.27272732722E+03  0.28931042495E+03  0.00000000000E+00 0.  1.
         14    1    3    3    0    0  0.10061677885E+03 -0.77912381983E+02 -0.43451565430E+03  0.45276697018E+03  0.00000000000E+00 0. -1.
        -13    1    4    4    0    0 -0.44460240223E+02  0.78055365792E+02 -0.56215506415E+02  0.10596950623E+03  0.00000000000E+00 0. -1.
         13    1    4    4    0    0 -0.65727679075E+02 -0.10141442049E+02 -0.78628438786E+02  0.10298256177E+03  0.00000000000E+00 0.  1.
          1    1    1    2  501    0 -0.86818596963E+02  0.45813100860E+01 -0.12221439047E+02  0.87794195440E+02  0.00000000000E+00 0. -1.
<scales pt_clust_5="13000.00000" pt_clust_6="13000.00000" pt_clust_7="13000.00000" pt_clust_8="13000.00000" pt_clust_9="86.93939"></scales>
<clustering>
<clus scale="   80.119">  5  6 -1 -1</clus>
<clus scale="   86.939">  1  9  2 -1</clus>
<clus scale="   93.404">  7  8 -1 -1</clus>
<clus scale="  200.272">  2  5  1 -1</clus>
<clus scale="   86.939">  1  5  2 -1</clus>
</clustering>
</event>
<event>
 9    2  0.3764910E-005  0.1324247E+03  0.7546771E-02  0.1227396E+00
         21   -1    0    0  501  502  0.00000000000E+00  0.00000000000E+00  0.18536905236E+03  0.18536905236E+03  0.00000000000E+00 0.  1.
          2   -1    0    0  502    0 -0.00000000000E+00 -0.00000000000E+00 -0.54720219767E+03  0.54720219767E+03  0.00000000000E+00 0. -1.
         24    2    1    2    0    0 -0.16325287153E+02 -0.78767020654E+02 -0.49294777342E+03  0.51013817834E+03  0.10379159475E+03 0.  0.
         23    2    1    2    0    0  0.90809959576E+01  0.10787144791E+03  0.79140018483E+02  0.16242550977E+03  0.91652550094E+02 0.  0.
        -13    1    3    3    0    0  0.42600937935E+02 -0.46105140752E+02 -0.20399559418E+03  0.21343553210E+03  0.00000000000E+00 0.  1.
         14    1    3    3    0    0 -0.58926225088E+02 -0.32661879901E+02 -0.28895217924E+03  0.29670264624E+03  0.00000000000E+00 0. -1.
        -11    1    4    4    0    0 -0.36669921237E+02  0.73084511449E+02  0.30976960524E+02  0.87439127515E+02  0.00000000000E+00 0.  1.
         11    1    4    4    0    0  0.45750917195E+02  0.34786936457E+02  0.48163057960E+02  0.74986382259E+02  0.00000000000E+00 0. -1.
          1    1    1    2  501    0  0.72442911951E+01 -0.29104427253E+02  0.51974609626E+02  0.60007561910E+02  0.00000000000E+00 0. -1.
<scales pt_clust_5="13000.00000" pt_clust_6="13000.00000" pt_clust_7="13000.00000" pt_clust_8="13000.00000" pt_clust_9="29.99246"></scales>
<clustering>
<clus scale="   29.992">  1  9  2 -1</clus>
<clus scale="   91.653">  7  8 -1 -1</clus>
<clus scale="  103.792">  5  6 -1 -1</clus>
<clus scale="  123.141">  1  7  2 -1</clus>
<clus scale="   29.992">  1  5  2 -1</clus>
</clustering>
</event>
<event>
 9    2  0.3764910E-005  0.1634584E+03  0.7546771E-02  0.1215234E+00
         21   -1    0    0  501  502  0.00000000000E+00  0.00000000000E+00  0.51309962331E+02  0.51309962331E+02  0.00000000000E+00 0. -1.
          2   -1    0    0  502    0 -0.00000000000E+00 -0.00000000000E+00 -0.76126240692E+03  0.76126240692E+03  0.00000000000E+00 0. -1.
         24    2    1    2    0    0 -0.23506699932E+02 -0.20471262711E+02 -0.12215677566E+03  0.14852272322E+03  0.78518048473E+02 0.  0.
         23    2    1    2    0    0  0.21254100891E+02  0.14828476798E+03 -0.39820343940E+03  0.43538705654E+03  0.92497570980E+02 0.  0.
        -11    1    3    3    0    0  0.22441635636E+02 -0.28233636620E+02 -0.38440870419E+02  0.52711154089E+02  0.00000000000E+00 0.  1.
         12    1    3    3    0    0 -0.45948335568E+02  0.77623739085E+01 -0.83715905239E+02  0.95811569136E+02  0.00000000000E+00 0. -1.
        -11    1    4    4    0    0 -0.36742754023E+02  0.53956972429E+02 -0.15253213359E+03  0.16591394343E+03  0.00000000000E+00 0.  1.
         11    1    4    4    0    0  0.57996854915E+02  0.94327795548E+02 -0.24567130582E+03  0.26947311312E+03  0.00000000000E+00 0. -1.
          1    1    1    2  501    0  0.22525990413E+01 -0.12781350527E+03 -0.18959222953E+03  0.22866258949E+03  0.00000000000E+00 0. -1.
<scales pt_clust_5="13000.00000" pt_clust_6="13000.00000" pt_clust_7="13000.00000" pt_clust_8="13000.00000" pt_clust_9="134.76962"></scales>
<clustering>
<clus scale="   78.518">  5  6 -1 -1</clus>
<clus scale="   84.479">  2  5  1 -1</clus>
<clus scale="   92.498">  7  8 -1 -1</clus>
<clus scale="  134.770">  1  9  2 -1</clus>
<clus scale="  134.770">  1  5  2 -1</clus>
</clustering>
</event>
<event>
 9    2  0.3764910E-005  0.2722783E+03  0.7546771E-02  0.1133474E+00
          2   -1    0    0  502    0 -0.00000000000E+00  0.00000000000E+00  0.36566417247E+03  0.36566417247E+03  0.00000000000E+00 0. -1.
         21   -1    0    0  501  502  0.00000000000E+00 -0.00000000000E+00 -0.31132673498E+03  0.31132673498E+03  0.00000000000E+00 0. -1.
         23    2    1    2    0    0  0.47126592429E+02  0.55337325992E+02  0.31577842222E+02  0.12139411685E+03  0.91957795350E+02 0.  0.
         24    2    1    2    0    0 -0.24597200121E+03 -0.18077500158E+03  0.48555180275E+02  0.31908142268E+03  0.79205569220E+02 0.  0.
        -11    1    4    4    0    0 -0.95457215588E+02 -0.52022031473E+02 -0.17865610597E+02  0.11017055781E+03  0.00000000000E+00 0.  1.
         12    1    4    4    0    0 -0.15051478562E+03 -0.12875297010E+03  0.66420790872E+02  0.20891086487E+03  0.00000000000E+00 0. -1.
        -11    1    3    3    0    0  0.43046650109E+02  0.80619536626E+02  0.21602119458E+02  0.93910464467E+02  0.00000000000E+00 0.  1.
         11    1    3    3    0    0  0.40799423197E+01 -0.25282210634E+02  0.99757227640E+01  0.27483652387E+02  0.00000000000E+00 0. -1.
          1    1    1    2  501    0  0.19884540878E+03  0.12543767558E+03 -0.25795585008E+02  0.23651536791E+03  0.00000000000E+00 0. -1.
<scales pt_clust_5="13000.00000" pt_clust_6="13000.00000" pt_clust_7="13000.00000" pt_clust_8="13000.00000" pt_clust_9="260.50324"></scales>
<clustering>
<clus scale="   79.206">  5  6 -1 -1</clus>
<clus scale="   91.958">  7  8 -1 -1</clus>
<clus scale="  117.215">  1  7  2 -1</clus>
<clus scale="  260.503">  2  9  1 -1</clus>
<clus scale="  260.503">  2  5  1 -1</clus>
</clustering>
</event>
<event>
 9    2  0.3764910E-005  0.9552523E+02  0.7546771E-02  0.1290297E+00
          2   -1    0    0  502    0 -0.00000000000E+00  0.00000000000E+00  0.11029338090E+03  0.11029338090E+03  0.00000000000E+00 0. -1.
         21   -1    0    0  501  502  0.00000000000E+00 -0.00000000000E+00 -0.17788509286E+03  0.17788509286E+03  0.00000000000E+00 0.  1.
         23    2    1    2    0    0 -0.33374849568E+02  0.68716218689E+01  0.27632685176E+02  0.10042890957E+03  0.90339918183E+02 0.  0.
         24    2    1    2    0    0  0.27697525723E+02  0.13965690185E+02 -0.51505358090E+01  0.95122753419E+02  0.89775368367E+02 0.  0.
        -11    1    4    4    0    0  0.22164440821E+02 -0.28258644000E+02 -0.29136877813E+02  0.46246849042E+02  0.00000000000E+00 0.  1.
         12    1    4    4    0    0  0.55330849017E+01  0.42224334185E+02  0.23986342004E+02  0.48875904377E+02  0.00000000000E+00 0. -1.
        -13    1    3    3    0    0 -0.14943194435E+02  0.15717103853E+02  0.59071866180E+02  0.62927035425E+02  0.00000000000E+00 0. -1.
         13    1    3    3    0    0 -0.18431655133E+02 -0.88454819842E+01 -0.31439181004E+02  0.37501874149E+02  0.00000000000E+00 0.  1.
          1    1    1    2  501    0  0.56773238457E+01 -0.20837312054E+02 -0.90073861319E+02  0.92626810766E+02  0.00000000000E+00 0. -1.
<scales pt_clust_5="13000.00000" pt_clust_6="13000.00000" pt_clust_7="13000.00000" pt_clust_8="13000.00000" pt_clust_9="21.59689"></scales>
<clustering>
<clus scale="   21.597">  2  9  1 -1</clus>
<clus scale="   89.775">  5  6 -1 -1</clus>
<clus scale="   90.340">  7  8 -1 -1</clus>
<clus scale="   94.992">  2  5  1 -1</clus>
<clus scale="   21.597">  2  5  1 -1</clus>
</clustering>
</event>
<event>
 9    2  0.3764910E-005  0.1413633E+03  0.7546771E-02  0.1215825E+00
         21   -1    0    0  501  502  0.00000000000E+00  0.00000000000E+00  0.41078019949E+03  0.41078019949E+03  0.00000000000E+00 0. -1.
         -1   -1    0    0    0  501 -0.00000000000E+00 -0.00000000000E+00 -0.64930219752E+02  0.64930219752E+02  0.00000000000E+00 0.  1.
         24    2    1    2    0    0  0.97118241867E+01 -0.95482021352E+02  0.87016685445E+02  0.15205692421E+03  0.79613244649E+02 0.  0.
         23    2    1    2    0    0 -0.47215243949E+02  0.10402749046E+03  0.17233172881E+03  0.22898537808E+03  0.98412807026E+02 0.  0.
        -11    1    3    3    0    0  0.25825452535E+02 -0.91454046293E+02  0.41671739948E+02  0.10376574816E+03  0.00000000000E+00 0.  1.
         12    1    3    3    0    0 -0.16113628348E+02 -0.40279750596E+01  0.45344945497E+02  0.48291176044E+02  0.00000000000E+00 0. -1.
        -13    1    4    4    0    0 -0.34407432369E+01  0.10469051179E+03  0.10242835164E+03  0.14650429752E+03  0.00000000000E+00 0.  1.
         13    1    4    4    0    0 -0.43774500712E+02 -0.66302133080E+00  0.69903377165E+02  0.82481080551E+02  0.00000000000E+00 0. -1.
         -2    1    1    2    0  502  0.37503419763E+02 -0.85454691096E+01  0.86501565486E+02  0.94668116954E+02  0.00000000000E+00 0.  1.
<scales pt_clust_5="13000.00000" pt_clust_6="13000.00000" pt_clust_7="13000.00000" pt_clust_8="13000.00000" pt_clust_9="38.46468"></scales>
<clustering>
<clus scale="   38.465">  1  9  2 -1</clus>
<clus scale="   79.613">  5  6 -1 -1</clus>
<clus scale="   98.413">  7  8 -1 -1</clus>
<clus scale="  128.984">  2  5  1 -1</clus>
<clus scale="   38.465">  1  5  2 -1</clus>
</clustering>
</event>
<event>
 9    2  0.3764910E-005  0.1174794E+03  0.7546771E-02  0.1248744E+00
         -3   -1    0    0    0  501 -0.00000000000E+00  0.00000000000E+00  0.93374981178E+02  0.93374981178E+02  0.00000000000E+00 0.  1.
         21   -1    0    0  501  502  0.00000000000E+00 -0.00000000000E+00 -0.40442257867E+03  0.40442257867E+03  0.00000000000E+00 0.  1.
         23    2    1    2    0    0 -0.27108808250E+02  0.72926368804E+02  0.37738703515E+02  0.12567306246E+03  0.91194112381E+02 0.  0.
         24    2    1    2    0    0  0.12080217509E+02 -0.50927295086E+02 -0.24954775702E+03  0.26937185072E+03  0.86876866246E+02 0.  0.
        -13    1    4    4    0    0 -0.27921221256E+02  0.89603422628E+01 -0.67343923609E+02  0.73451251704E+02  0.00000000000E+00 0.  1.
         14    1    4    4    0    0  0.40001438765E+02 -0.59887637349E+02 -0.18220383341E+03  0.19592059902E+03  0.00000000000E+00 0. -1.
        -13    1    3    3    0    0 -0.41155850201E+02  0.33379683899E+02 -0.17943941288E+02  0.55946334392E+02  0.00000000000E+00 0. -1.
         13    1    3    3    0    0  0.14047041951E+02  0.39546684906E+02  0.55682644804E+02  0.69726728067E+02  0.00000000000E+00 0.  1.
         -4    1    1    2    0  502  0.15028590740E+02 -0.21999073718E+02 -0.99238543991E+02  0.10275264667E+03  0.00000000000E+00 0.  1.
<scales pt_clust_5="13000.00000" pt_clust_6="13000.00000" pt_clust_7="13000.00000" pt_clust_8="13000.00000" pt_clust_9="26.64241"></scales>
<clustering>
<clus scale="   26.642">  2  9  1 -1</clus>
<clus scale="   86.877">  5  6 -1 -1</clus>
<clus scale="   91.194">  7  8 -1 -1</clus>
<clus scale="  114.161">  2  5  1 -1</clus>
<clus scale="   26.642">  2  5  1 -1</clus>
</clustering>
</event>
<event>
 9    2  0.3764910E-005  0.1385821E+03  0.7546771E-02  0.1218014E+00
         -3   -1    0    0    0  501 -0.00000000000E+00  0.00000000000E+00  0.19669020046E+03  0.19669020046E+03  0.00000000000E+00 0.  1.
         21   -1    0    0  501  502  0.00000000000E+00 -0.00000000000E+00 -0.13844574686E+03  0.13844574686E+03  0.00000000000E+00 0.  1.
         24    2    1    2    0    0  0.71228945347E+02 -0.59805012128E+02  0.99308922710E+00  0.12228237547E+03  0.79383820735E+02 0.  0.
         23    2    1    2    0    0 -0.10573177651E+03  0.53223008825E+02  0.49440419913E+01  0.14984703170E+03  0.91748526560E+02 0.  0.
        -13    1    3    3    0    0  0.54252538344E+02 -0.62205508846E+02  0.30632717149E+02  0.88041050696E+02  0.00000000000E+00 0.  1.
         14    1    3    3    0    0  0.16976407003E+02  0.24004967179E+01 -0.29639627922E+02  0.34241324779E+02  0.00000000000E+00 0. -1.
        -13    1    4    4    0    0 -0.61156405154E+02  0.73848449757E+02  0.21032136284E+02  0.98163385127E+02  0.00000000000E+00 0. -1.
         13    1    4    4    0    0 -0.44575371356E+02 -0.20625440932E+02 -0.16088094293E+02  0.51683646573E+02  0.00000000000E+00 0.  1.
         -4    1    1    2    0  502  0.34502831162E+02  0.65820033030E+01  0.52307322383E+02  0.63006540141E+02  0.00000000000E+00 0.  1.
<scales pt_clust_5="13000.00000" pt_clust_6="13000.00000" pt_clust_7="13000.00000" pt_clust_8="13000.00000" pt_clust_9="35.12505"></scales>
<clustering>
<clus scale="   35.125">  2  9  1 -1</clus>
<clus scale="   79.384">  5  6 -1 -1</clus>
<clus scale="   91.749">  7  8 -1 -1</clus>
<clus scale="  130.725">  1  5  2 -1</clus>
<clus scale="   35.125">  2  5  1 -1</clus>
</clustering>
</event>
<event>
 9    2  0.3764910E-005  0.1104432E+03  0.7546771E-02  0.1263495E+00
         21   -1    0    0  501  502  0.00000000000E+00  0.00000000000E+00  0.12079915117E+03  0.12079915117E+03  0.00000000000E+00 0. -1.
         -3   -1    0    0    0  501 -0.00000000000E+00 -0.00000000000E+00 -0.29181525240E+03  0.29181525240E+03  0.00000000000E+00 0.  1.
         24    2    1    2    0    0 -0.54952836910E+02 -0.29648433836E+02 -0.23591860573E+03  0.25685407188E+03  0.80109810870E+02 0.  0.
         23    2    1    2    0    0  0.63044284732E+02  0.48491383555E+02  0.48355979774E+02  0.12941045954E+03  0.89904227610E+02 0.  0.
        -11    1    3    3    0    0 -0.66160754373E+02 -0.30487072936E+01 -0.11663501892E+03  0.13412780351E+03  0.00000000000E+00 0.  1.
         12    1    3    3    0    0  0.11207917463E+02 -0.26599726543E+02 -0.11928358681E+03  0.12272626837E+03  0.00000000000E+00 0. -1.
        -13    1    4    4    0    0 -0.10805757383E+02  0.32843714947E+02 -0.76526043781E+01  0.35412375774E+02  0.00000000000E+00 0.  1.
         13    1    4    4    0    0  0.73850042114E+02  0.15647668608E+02  0.56008584153E+02  0.93998083767E+02  0.00000000000E+00 0. -1.
         -4    1    1    2    0  502 -0.80914478219E+01 -0.18842949719E+02  0.16546524726E+02  0.26349872153E+02  0.00000000000E+00 0.  1.
<scales pt_clust_5="13000.00000" pt_clust_6="13000.00000" pt_clust_7="13000.00000" pt_clust_8="13000.00000" pt_clust_9="20.50679"></scales>
<clustering>
<clus scale="   20.507">  1  9  2 -1</clus>
<clus scale="   80.110">  5  6 -1 -1</clus>
<clus scale="   89.904">  7  8 -1 -1</clus>
<clus scale="  102.628">  2  5  1 -1</clus>
<clus scale="   20.507">  1  5  2 -1</clus>
</clustering>
</event>
<event>
 9    2  0.3764910E-005  0.9517004E+02  0.7546771E-02  0.1293450E+00
          2   -1    0    0  502    0 -0.00000000000E+00  0.00000000000E+00  0.43042286354E+03  0.43042286354E+03  0.00000000000E+00 0. -1.
         21   -1    0    0  501  502  0.00000000000E+00 -0.00000000000E+00 -0.73724198999E+02  0.73724198999E+02  0.00000000000E+00 0. -1.
         23    2    1    2    0    0 -0.25299979455E+01 -0.25094549309E+02  0.24920761719E+03  0.26511320303E+03  0.86858716670E+02 0.  0.
         24    2    1    2    0    0 -0.32704560626E+01  0.69679294051E+02  0.14498738845E+03  0.18048968536E+03  0.81788041979E+02 0.  0.
        -13    1    4    4    0    0  0.29607155475E+02 -0.87581028251E+00  0.42061818923E+02  0.51444604285E+02  0.00000000000E+00 0.  1.
         14    1    4    4    0    0 -0.32877611538E+02  0.70555104333E+02  0.10292556953E+03  0.12904508108E+03  0.00000000000E+00 0. -1.
        -11    1    3    3    0    0 -0.37145385158E+02 -0.37717608292E+02  0.13083795543E+03  0.14114166003E+03  0.00000000000E+00 0. -1.
         11    1    3    3    0    0  0.34615387213E+02  0.12623058983E+02  0.11836966176E+03  0.12397154301E+03  0.00000000000E+00 0.  1.
          1    1    1    2  501    0  0.58004540081E+01 -0.44584744742E+02 -0.37496341099E+02  0.58544174144E+02  0.00000000000E+00 0. -1.
<scales pt_clust_5="13000.00000" pt_clust_6="13000.00000" pt_clust_7="13000.00000" pt_clust_8="13000.00000" pt_clust_9="44.96048"></scales>
<clustering>
<clus scale="   44.960">  2  9  1 -1</clus>
<clus scale="   81.788">  5  6 -1 -1</clus>
<clus scale="   86.859">  7  8 -1 -1</clus>
<clus scale="   90.566">  2  5  1 -1</clus>
<clus scale="   44.960">  2  5  1 -1</clus>
</clustering>
</event>
<event>
 9    2  0.3764910E-005  0.2008501E+03  0.7546771E-02  0.1182374E+00
         21   -1    0    0  501  502  0.00000000000E+00  0.00000000000E+00  0.19504525688E+03  0.19504525688E+03  0.00000000000E+00 0.  1.
         -3   -1    0    0    0  501 -0.00000000000E+00 -0.00000000000E+00 -0.35063874543E+03  0.35063874543E+03  0.00000000000E+00 0.  1.
         23    2    1    2    0    0  0.20890078517E+01 -0.34541497637E+02  0.51775136847E+02  0.10653775292E+03  0.86441592939E+02 0.  0.
         24    2    1    2    0    0 -0.94649022661E+02  0.17434345356E+03 -0.81774150186E+02  0.22965659470E+03  0.81860018087E+02 0.  0.
        -11    1    4    4    0    0 -0.42635253942E+02  0.14170144601E+03 -0.80012837651E+02  0.16822341950E+03  0.00000000000E+00 0.  1.
         12    1    4    4    0    0 -0.52013768719E+02  0.32642007550E+02 -0.17613125353E+01  0.61433175199E+02  0.00000000000E+00 0. -1.
        -13    1    3    3    0    0  0.10591852476E+02  0.27933237325E+02  0.13535897923E+02  0.32797463605E+02  0.00000000000E+00 0. -1.
         13    1    3    3    0    0 -0.85028446243E+01 -0.62474734963E+02  0.38239238925E+02  0.73740289319E+02  0.00000000000E+00 0.  1.
         -4    1    1    2    0  502  0.92560014809E+02 -0.13980195592E+03 -0.12559447520E+03  0.20948965469E+03  0.00000000000E+00 0.  1.
<scales pt_clust_5="13000.00000" pt_clust_6="13000.00000" pt_clust_7="13000.00000" pt_clust_8="13000.00000" pt_clust_9="183.41136"></scales>
<clustering>
<clus scale="   81.860">  5  6 -1 -1</clus>
<clus scale="   86.442">  7  8 -1 -1</clus>
<clus scale="   93.111">  2  7  1 -1</clus>
<clus scale="  183.411">  1  9  2 -1</clus>
<clus scale="  183.411">  1  5  2 -1</clus>
</clustering>
</event>
<event>
 9    2  0.3764910E-005  0.4737310E+03  0.7546771E-02  0.1020872E+00
         21   -1    0    0  501  502  0.00000000000E+00  0.00000000000E+00  0.13700085397E+03  0.13700085397E+03  0.00000000000E+00 0. -1.
          2   -1    0    0  502    0 -0.00000000000E+00 -0.00000000000E+00 -0.15375057161E+04  0.15375057161E+04  0.00000000000E+00 0. -1.
         24    2    1    2    0    0  0.16292986271E+03 -0.26597726827E+03 -0.54363019354E+03  0.63228101450E+03  0.83399319979E+02 0.  0.
         23    2    1    2    0    0  0.47086500012E+02 -0.94083114781E+02 -0.40118434369E+03  0.42464639119E+03  0.91142245748E+02 0.  0.
        -11    1    3    3    0    0  0.11743603092E+02 -0.64891675880E+02 -0.16499075692E+03  0.17768171454E+03  0.00000000000E+00 0.  1.
         12    1    3    3    0    0  0.15118625962E+03 -0.20108559239E+03 -0.37863943661E+03  0.45459929996E+03  0.00000000000E+00 0. -1.
        -13    1    4    4    0    0 -0.71014055296E+01 -0.67724785562E+02 -0.29303004719E+03  0.30083830391E+03  0.00000000000E+00 0.  1.
         13    1    4    4    0    0  0.54187905542E+02 -0.26358329219E+02 -0.10815429649E+03  0.12380808728E+03  0.00000000000E+00 0. -1.
          1    1    1    2  501    0 -0.21001636272E+03  0.36006038305E+03 -0.45569032488E+03  0.61757916435E+03  0.00000000000E+00 0. -1.
<scales pt_clust_5="13000.00000" pt_clust_6="13000.00000" pt_clust_7="13000.00000" pt_clust_8="13000.00000" pt_clust_9="416.83372"></scales>
<clustering>
<clus scale="   83.399">  5  6 -1 -1</clus>
<clus scale="   91.142">  7  8 -1 -1</clus>
<clus scale="  114.668">  5  7 -1 -1</clus>
<clus scale="  416.834">  1  9  2 -1</clus>
<clus scale="  416.834">  1  5  2 -1</clus>
</clustering>
</event>
<event>
 9    2  0.3764910E-005  0.1066281E+03  0.7546771E-02  0.1271772E+00
         -1   -1    0    0    0  501 -0.00000000000E+00  0.00000000000E+00  0.16508681411E+03  0.16508681411E+03  0.00000000000E+00 0.  1.
         21   -1    0    0  501  502  0.00000000000E+00 -0.00000000000E+00 -0.33723574760E+03  0.33723574760E+03  0.00000000000E+00 0.  1.
         23    2    1    2    0    0 -0.55403812319E+02 -0.16348413022E+02  0.99955669625E+02  0.14754129084E+03  0.91871886806E+02 0.  0.
         24    2    1    2    0    0  0.49585791599E+02 -0.55078705422E+02 -0.48143007866E+02  0.11963349019E+03  0.80635031157E+02 0.  0.
        -13    1    4    4    0    0 -0.67904498951E+01 -0.50273893762E+02 -0.34745255724E+02  0.61488270419E+02  0.00000000000E+00 0.  1.
         14    1    4    4    0    0  0.56376241494E+02 -0.48048116604E+01 -0.13397752142E+02  0.58145219774E+02  0.00000000000E+00 0. -1.
        -11    1    3    3    0    0  0.17148904225E+02 -0.27418729873E+02  0.46945612654E+02  0.57006685673E+02  0.00000000000E+00 0. -1.
         11    1    3    3    0    0 -0.72552716544E+02  0.11070316851E+02  0.53010056971E+02  0.90534605169E+02  0.00000000000E+00 0.  1.
         -2    1    1    2    0  502  0.58180207200E+01  0.71427118444E+02 -0.22396159525E+03  0.23514778068E+03  0.00000000000E+00 0.  1.
<scales pt_clust_5="13000.00000" pt_clust_6="13000.00000" pt_clust_7="13000.00000" pt_clust_8="13000.00000" pt_clust_9="71.66368"></scales>
<clustering>
<clus scale="   71.664">  2  9  1 -1</clus>
<clus scale="   80.635">  5  6 -1 -1</clus>
<clus scale="   91.872">  7  8 -1 -1</clus>
<clus scale="   97.114">  2  5  1 -1</clus>
<clus scale="   71.664">  2  5  1 -1</clus>
</clustering>
</event>
<event>
 9    2  0.3764910E-005  0.8001316E+02  0.7546771E-02  0.1331139E+00
         21   -1    0    0  501  502  0.00000000000E+00  0.00000000000E+00  0.10045892547E+03  0.10045892547E+03  0.00000000000E+00 0.  1.
          2   -1    0    0  502    0 -0.00000000000E+00 -0.00000000000E+00 -0.12571411922E+03  0.12571411922E+03  0.00000000000E+00 0. -1.
         24    2    1    2    0    0 -0.96902274999E+01 -0.59663670010E+01 -0.66019454885E+02  0.10164248155E+03  0.76440353138E+02 0.  0.
         23    2    1    2    0    0  0.10386061100E+02 -0.19173082701E+02  0.51572460636E+02  0.97157340961E+02  0.79399954919E+02 0.  0.
        -13    1    3    3    0    0 -0.28248656569E+01 -0.22674344357E+02  0.89407555617E+01  0.24536561862E+02  0.00000000000E+00 0.  1.
         14    1    3    3    0    0 -0.68653618430E+01  0.16707977356E+02 -0.74960210447E+02  0.77105919687E+02  0.00000000000E+00 0. -1.
        -11    1    4    4    0    0 -0.21313296117E+02  0.20868475133E+02  0.27991938234E+02  0.40905970858E+02  0.00000000000E+00 0. -1.
         11    1    4    4    0    0  0.31699357217E+02 -0.40041557834E+02  0.23580522403E+02  0.56251370104E+02  0.00000000000E+00 0.  1.
          1    1    1    2  501    0 -0.69583359991E+00  0.25139449702E+02 -0.10808199501E+02  0.27373222174E+02  0.00000000000E+00 0. -1.
<scales pt_clust_5="13000.00000" pt_clust_6="13000.00000" pt_clust_7="13000.00000" pt_clust_8="13000.00000" pt_clust_9="25.14909"></scales>
<clustering>
<clus scale="   25.149">  1  9  2 -1</clus>
<clus scale="   76.440">  5  6 -1 -1</clus>
<clus scale="   77.077">  2  5  1 -1</clus>
<clus scale="   79.400">  7  8 -1 -1</clus>
<clus scale="   25.149">  1  5  2 -1</clus>
</clustering>
</event>
<event>
 9    2  0.3764910E-005  0.1017520E+03  0.7546771E-02  0.1284088E+00
         21   -1    0    0  501  502  0.00000000000E+00  0.00000000000E+00  0.36463936573E+02  0.36463936573E+02  0.00000000000E+00 0.  1.
          2   -1    0    0  502    0 -0.00000000000E+00 -0.00000000000E+00 -0.66043225045E+03  0.66043225045E+03  0.00000000000E+00 0. -1.
         24    2    1    2    0    0 -0.35682844458E+01 -0.40090706880E+02 -0.36583012911E+03  0.37667725162E+03  0.80212661666E+02 0.  0.
         23    2    1    2    0    0 -0.37885657431E+02  0.20082012338E+02 -0.67290094541E+02  0.12389835396E+03  0.94785204713E+02 0.  0.
        -13    1    3    3    0    0 -0.19634235145E+02  0.10881410194E+02 -0.35152107660E+02  0.41708259979E+02  0.00000000000E+00 0.  1.
         14    1    3    3    0    0  0.16065950700E+02 -0.50972117074E+02 -0.33067802145E+03  0.33496899164E+03  0.00000000000E+00 0. -1.
        -11    1    4    4    0    0 -0.50610591841E+02  0.48641040600E+02 -0.58618994808E+02  0.91452552667E+02  0.00000000000E+00 0. -1.
         11    1    4    4    0    0  0.12724934410E+02 -0.28559028262E+02 -0.86710997337E+01  0.32445801294E+02  0.00000000000E+00 0.  1.
          1    1    1    2  501    0  0.41453941876E+02  0.20008694542E+02 -0.19084809023E+03  0.19632058144E+03  0.00000000000E+00 0. -1.
<scales pt_clust_5="13000.00000" pt_clust_6="13000.00000" pt_clust_7="13000.00000" pt_clust_8="13000.00000" pt_clust_9="46.03020"></scales>
<clustering>
<clus scale="   46.030">  1  9  2 -1</clus>
<clus scale="   80.213">  5  6 -1 -1</clus>
<clus scale="   88.336">  2  5  1 -1</clus>
<clus scale="   94.785">  7  8 -1 -1</clus>
<clus scale="   46.030">  1  5  2 -1</clus>
</clustering>
</event>
<event>
 9    2  0.3764910E-005  0.1583281E+03  0.7546771E-02  0.1192023E+00
         21   -1    0    0  501  502  0.00000000000E+00  0.00000000000E+00  0.80387441602E+03  0.80387441602E+03  0.00000000000E+00 0.  1.
          4   -1    0    0  502    0 -0.00000000000E+00 -0.00000000000E+00 -0.11239734438E+03  0.11239734438E+03  0.00000000000E+00 0. -1.
         23    2    1    2    0    0  0.11824601448E+03 -0.37857464336E+02 -0.26209455193E+02  0.15824523250E+03  0.94547927110E+02 0.  0.
         24    2    1    2    0    0 -0.16034814292E+03  0.77425637374E+00  0.61039704762E+03  0.63695305483E+03  0.86095945940E+02 0.  0.
        -11    1    4    4    0    0 -0.84531021134E+02 -0.41767448289E+02  0.34686154369E+03  0.35944810997E+03  0.00000000000E+00 0.  1.
         12    1    4    4    0    0 -0.75817121782E+02  0.42541704663E+02  0.26353550393E+03  0.27750494486E+03  0.00000000000E+00 0. -1.
        -13    1    3    3    0    0  0.90600190724E+02 -0.42277097086E+02 -0.58238985495E+02  0.11570448102E+03  0.00000000000E+00 0. -1.
         13    1    3    3    0    0  0.27645823757E+02  0.44196327506E+01  0.32029530302E+02  0.42540751477E+02  0.00000000000E+00 0.  1.
          3    1    1    2  501    0  0.42102128434E+02  0.37083207962E+02  0.10728947921E+03  0.12107347307E+03  0.00000000000E+00 0. -1.
<scales pt_clust_5="13000.00000" pt_clust_6="13000.00000" pt_clust_7="13000.00000" pt_clust_8="13000.00000" pt_clust_9="56.10484"></scales>
<clustering>
<clus scale="   56.105">  1  9  2 -1</clus>
<clus scale="   86.096">  5  6 -1 -1</clus>
<clus scale="   94.548">  7  8 -1 -1</clus>
<clus scale="  153.431">  1  5  2 -1</clus>
<clus scale="   56.105">  1  5  2 -1</clus>
</clustering>
</event>
<event>
 9    2  0.3764910E-005  0.9239195E+02  0.7546771E-02  0.1304689E+00
         21   -1    0    0  501  502  0.00000000000E+00  0.00000000000E+00  0.13562060873E+03  0.13562060873E+03  0.00000000000E+00 0. -1.
          4   -1    0    0  502    0 -0.00000000000E+00 -0.00000000000E+00 -0.14495750966E+03  0.14495750966E+03  0.00000000000E+00 0. -1.
         23    2    1    2    0    0 -0.49399597285E+01 -0.75753606580E+00 -0.93922762766E+02  0.13167697400E+03  0.92154018111E+02 0.  0.
         24    2    1    2    0    0 -0.22604393898E+01 -0.27922843503E+02  0.36449218096E+02  0.92407371371E+02  0.80160975595E+02 0.  0.
        -13    1    4    4    0    0  0.23253431775E+02  0.14981884552E+02  0.31989707765E+02  0.42290901586E+02  0.00000000000E+00 0.  1.
         14    1    4    4    0    0 -0.25513871165E+02 -0.42904728055E+02  0.44595103306E+01  0.50116469785E+02  0.00000000000E+00 0. -1.
        -11    1    3    3    0    0  0.25922728698E+02 -0.98517080856E+01  0.45308672431E+01  0.28099337596E+02  0.00000000000E+00 0.  1.
         11    1    3    3    0    0 -0.30862688427E+02  0.90941720198E+01 -0.98453630009E+02  0.10357763641E+03  0.00000000000E+00 0. -1.
          3    1    1    2  501    0  0.72003991184E+01  0.28680379569E+02  0.48136643738E+02  0.56493773020E+02  0.00000000000E+00 0. -1.
<scales pt_clust_5="13000.00000" pt_clust_6="13000.00000" pt_clust_7="13000.00000" pt_clust_8="13000.00000" pt_clust_9="29.57042"></scales>
<clustering>
<clus scale="   29.570">  1  9  2 -1</clus>
<clus scale="   80.161">  5  6 -1 -1</clus>
<clus scale="   80.434">  1  5  2 -1</clus>
<clus scale="   92.154">  7  8 -1 -1</clus>
<clus scale="   29.570">  1  5  2 -1</clus>
</clustering>
</event>
<event>
 9    2  0.3764910E-005  0.3758281E+03  0.7546771E-02  0.1052851E+00
         21   -1    0    0  501  502  0.00000000000E+00  0.00000000000E+00  0.16308906826E+03  0.16308906826E+03  0.00000000000E+00 0.  1.
         -1   -1    0    0    0  501 -0.00000000000E+00 -0.00000000000E+00 -0.11770230490E+04  0.11770230490E+04  0.00000000000E+00 0.  1.
         24    2    1    2    0    0  0.18387941148E+03 -0.28968178616E+03 -0.44644079741E+03  0.56831709991E+03  0.77121756082E+02 0.  0.
         23    2    1    2    0    0 -0.23918841287E+03  0.31818794673E+03 -0.32780992540E+03  0.52416676580E+03  0.94004174849E+02 0.  0.
        -13    1    3    3    0    0  0.14514727657E+03 -0.18045059696E+03 -0.25443720194E+03  0.34404714731E+03  0.00000000000E+00 0.  1.
         14    1    3    3    0    0  0.38732134915E+02 -0.10923118920E+03 -0.19200359546E+03  0.22426995260E+03  0.00000000000E+00 0. -1.
        -11    1    4    4    0    0 -0.20571949548E+03  0.31384894506E+03 -0.30116774711E+03  0.48116907946E+03  0.00000000000E+00 0.  1.
         11    1    4    4    0    0 -0.33468917391E+02  0.43390016774E+01 -0.26642178288E+02  0.42997686343E+02  0.00000000000E+00 0. -1.
         -2    1    1    2    0  502  0.55309001386E+02 -0.28506160571E+02 -0.23968325792E+03  0.24762825152E+03  0.00000000000E+00 0.  1.
<scales pt_clust_5="13000.00000" pt_clust_6="13000.00000" pt_clust_7="13000.00000" pt_clust_8="13000.00000" pt_clust_9="62.22291"></scales>
<clustering>
<clus scale="   62.223">  1  9  2 -1</clus>
<clus scale="   77.122">  5  6 -1 -1</clus>
<clus scale="   94.004">  7  8 -1 -1</clus>
<clus scale="  371.965">  2  5  1 -1</clus>
<clus scale="   62.223">  1  5  2 -1</clus>
</clustering>
</event>
<event>
 9    2  0.3764910E-005  0.1018619E+03  0.7546771E-02  0.1281610E+00
          2   -1    0    0  502    0 -0.00000000000E+00  0.00000000000E+00  0.42454331256E+02  0.42454331256E+02  0.00000000000E+00 0. -1.
         21   -1    0    0  501  502  0.00000000000E+00 -0.00000000000E+00 -0.47724416401E+03  0.47724416401E+03  0.00000000000E+00 0.  1.
         23    2    1    2    0    0 -0.32385195682E+02 -0.16323016017E+01 -0.98468683746E+02  0.13822163234E+03  0.91420307708E+02 0.  0.
         24    2    1    2    0    0  0.48544710173E+02 -0.56812766088E+02 -0.15302738679E+03  0.18841324876E+03  0.80609502689E+02 0.  0.
        -13    1    4    4    0    0  0.33770363435E+02 -0.72675999861E+02 -0.14426979329E+03  0.16503336529E+03  0.00000000000E+00 0.  1.
         14    1    4    4    0    0  0.14774346737E+02  0.15863233773E+02 -0.87575935037E+01  0.23379883473E+02  0.00000000000E+00 0. -1.
        -13    1    3    3    0    0 -0.96181191161E+01  0.44285618524E+02 -0.39744608471E+02  0.60277343388E+02  0.00000000000E+00 0.  1.
         13    1    3    3    0    0 -0.22767076566E+02 -0.45917920126E+02 -0.58724075275E+02  0.77944288956E+02  0.00000000000E+00 0. -1.
          1    1    1    2  501    0 -0.16159514491E+02  0.58445067690E+02 -0.18329376221E+03  0.19306361416E+03  0.00000000000E+00 0. -1.
<scales pt_clust_5="13000.00000" pt_clust_6="13000.00000" pt_clust_7="13000.00000" pt_clust_8="13000.00000" pt_clust_9="60.63791"></scales>
<clustering>
<clus scale="   60.638">  2  9  1 -1</clus>
<clus scale="   80.610">  5  6 -1 -1</clus>
<clus scale="   91.420">  7  8 -1 -1</clus>
<clus scale="   92.282">  2  5  1 -1</clus>
<clus scale="   60.638">  2  5  1 -1</clus>
</clustering>
</event>
<event>
 9    2  0.3764910E-005  0.1294164E+03  0.7546771E-02  0.1231614E+00
          2   -1    0    0  502    0 -0.00000000000E+00  0.00000000000E+00  0.66260976267E+03  0.66260976267E+03  0.00000000000E+00 0. -1.
         21   -1    0    0  501  502  0.00000000000E+00 -0.00000000000E+00 -0.38768191118E+02  0.38768191118E+02  0.00000000000E+00 0.  1.
         24    2    1    2    0    0 -0.49908013476E+02  0.10125726233E+03  0.39809402473E+03  0.42140807112E+03  0.79762565765E+02 0.  0.
         23    2    1    2    0    0  0.34940623707E+02 -0.46838888910E+02  0.15187108725E+03  0.18700153644E+03  0.92141297951E+02 0.  0.
        -11    1    3    3    0    0  0.18127357592E+02  0.29489647773E+02  0.61329019156E+02  0.70423639566E+02  0.00000000000E+00 0.  1.
         12    1    3    3    0    0 -0.68035371068E+02  0.71767614553E+02  0.33676500557E+03  0.35098443155E+03  0.00000000000E+00 0. -1.
        -11    1    4    4    0    0  0.16647050391E+02 -0.15630473576E+02 -0.71417885962E+01  0.23925742105E+02  0.00000000000E+00 0.  1.
         11    1    4    4    0    0  0.18293573316E+02 -0.31208415334E+02  0.15901287585E+03  0.16307579433E+03  0.00000000000E+00 0. -1.
          1    1    1    2  501    0  0.14967389769E+02 -0.54418373416E+02  0.73876459572E+02  0.92968346230E+02  0.00000000000E+00 0. -1.
<scales pt_clust_5="13000.00000" pt_clust_6="13000.00000" pt_clust_7="13000.00000" pt_clust_8="13000.00000" pt_clust_9="56.43919"></scales>
<clustering>
<clus scale="   56.439">  2  9  1 -1</clus>
<clus scale="   79.763">  5  6 -1 -1</clus>
<clus scale="   92.141">  7  8 -1 -1</clus>
<clus scale="  120.916">  1  5  2 -1</clus>
<clus scale="   56.439">  2  5  1 -1</clus>
</clustering>
</event>
<event>
 9    2  0.3764910E-005  0.1245810E+03  0.7546771E-02  0.1253746E+00
          2   -1    0    0  502    0 -0.00000000000E+00  0.00000000000E+00  0.14225845090E+03  0.14225845090E+03  0.00000000000E+00 0. -1.
         21   -1    0    0  501  502  0.00000000000E+00 -0.00000000000E+00 -0.31913251530E+03  0.31913251530E+03  0.00000000000E+00 0.  1.
         24    2    1    2    0    0  0.27924760851E+02 -0.12780380807E+02 -0.19013416065E+03  0.20894514940E+03  0.81018183201E+02 0.  0.
         23    2    1    2    0    0  0.61567116075E+02 -0.85739456155E+01  0.83104040511E+02  0.13693399990E+03  0.89334296066E+02 0.  0.
        -11    1    3    3    0    0  0.41348125411E+02 -0.81147010602E+01 -0.19012057413E+03  0.19473404570E+03  0.00000000000E+00 0.  1.
         12    1    3    3    0    0 -0.13423364560E+02 -0.46656797466E+01 -0.13586518094E-01  0.14211103694E+02  0.00000000000E+00 0. -1.
        -11    1    4    4    0    0  0.26690510480E+02  0.40171096553E+02  0.44630267462E+02  0.65711194797E+02  0.00000000000E+00 0.  1.
         11    1    4    4    0    0  0.34876605595E+02 -0.48745042168E+02  0.38473773049E+02  0.71222805101E+02  0.00000000000E+00 0. -1.
          1    1    1    2  501    0 -0.89491876926E+02  0.21354326422E+02 -0.69843944268E+02  0.11551181690E+03  0.00000000000E+00 0. -1.
<scales pt_clust_5="13000.00000" pt_clust_6="13000.00000" pt_clust_7="13000.00000" pt_clust_8="13000.00000" pt_clust_9="86.83209"></scales>
<clustering>
<clus scale="   81.018">  5  6 -1 -1</clus>
<clus scale="   86.643">  1  5  2 -1</clus>
<clus scale="   86.832">  2  9  1 -1</clus>
<clus scale="   89.334">  7  8 -1 -1</clus>
<clus scale="   86.832">  2  5  1 -1</clus>
</clustering>
</event>
<event>
 9    2  0.3764910E-005  0.1379063E+03  0.7546771E-02  0.1219078E+00
          2   -1    0    0  502    0 -0.00000000000E+00  0.00000000000E+00  0.52662011242E+03  0.52662011242E+03  0.00000000000E+00 0. -1.
         21   -1    0    0  501  502  0.00000000000E+00 -0.00000000000E+00 -0.40222911302E+03  0.40222911302E+03  0.00000000000E+00 0. -1.
         24    2    1    2    0    0  0.27661789401E+02 -0.11255607389E+03  0.41349577130E+03  0.43676296185E+03  0.79681162151E+02 0.  0.
         23    2    1    2    0    0  0.83222785633E+02  0.55766774011E+02  0.38471075895E+02  0.14162035995E+03  0.92413946670E+02 0.  0.
        -13    1    3    3    0    0  0.46840594626E+02 -0.34908088918E+02  0.21403274038E+03  0.22186173607E+03  0.00000000000E+00 0.  1.
         14    1    3    3    0    0 -0.19178805225E+02 -0.77647984973E+02  0.19946303092E+03  0.21490122578E+03  0.00000000000E+00 0. -1.
        -11    1    4    4    0    0  0.99541736922E+02  0.28011839814E+02  0.23167567563E+02  0.10597149025E+03  0.00000000000E+00 0. -1.
         11    1    4    4    0    0 -0.16318951288E+02  0.27754934197E+02  0.15303508332E+02  0.35648869697E+02  0.00000000000E+00 0.  1.
          1    1    1    2  501    0 -0.11088457503E+03  0.56789299880E+02 -0.32757584779E+03  0.35046590365E+03  0.00000000000E+00 0. -1.
<scales pt_clust_5="13000.00000" pt_clust_6="13000.00000" pt_clust_7="13000.00000" pt_clust_8="13000.00000" pt_clust_9="124.58095"></scales>
<clustering>
<clus scale="   79.681">  5  6 -1 -1</clus>
<clus scale="   92.414">  7  8 -1 -1</clus>
<clus scale="  124.581">  2  9  1 -1</clus>
<clus scale="  129.719">  1  5  2 -1</clus>
<clus scale="  124.581">  2  5  1 -1</clus>
</clustering>
</event>
<event>
 9    2  0.3764910E-005  0.9230261E+02  0.7546771E-02  0.1301992E+00
         -1   -1    0    0    0  501 -0.00000000000E+00  0.00000000000E+00  0.10744076041E+03  0.10744076041E+03  0.00000000000E+00 0.  1.
         21   -1    0    0  501  502  0.00000000000E+00 -0.00000000000E+00 -0.16135882523E+03  0.16135882523E+03  0.00000000000E+00 0. -1.
         24    2    1    2    0    0 -0.13400671535E+01  0.17957937716E+02  0.43752360668E+01  0.83815037433E+02  0.81740653914E+02 0.  0.
         23    2    1    2    0    0  0.24015119224E+02 -0.31103960668E+02 -0.97329557070E+02  0.13796534784E+03  0.89538886545E+02 0.  0.
        -11    1    3    3    0    0 -0.38239196876E+02  0.25585275082E+02  0.16873175481E+01  0.46040086004E+02  0.00000000000E+00 0.  1.
         12    1    3    3    0    0  0.36899129722E+02 -0.76273373661E+01  0.26879185187E+01  0.37774951430E+02  0.00000000000E+00 0. -1.
        -11    1    4    4    0    0  0.38500800816E+02 -0.54412894050E+02 -0.50266406794E+02  0.83485246328E+02  0.00000000000E+00 0. -1.
         11    1    4    4    0    0 -0.14485681592E+02  0.23308933382E+02 -0.47063150275E+02  0.54480101509E+02  0.00000000000E+00 0.  1.
         -2    1    1    2    0  502 -0.22675052070E+02  0.13146022952E+02  0.39036256192E+02  0.47019200369E+02  0.00000000000E+00 0.  1.
<scales pt_clust_5="13000.00000" pt_clust_6="13000.00000" pt_clust_7="13000.00000" pt_clust_8="13000.00000" pt_clust_9="26.21024"></scales>
<clustering>
<clus scale="   26.210">  2  9  1 -1</clus>
<clus scale="   81.741">  5  6 -1 -1</clus>
<clus scale="   84.759">  1  5  2 -1</clus>
<clus scale="   89.539">  7  8 -1 -1</clus>
<clus scale="   26.210">  2  5  1 -1</clus>
</clustering>
</event>
<event>
 9    2  0.3764910E-005  0.1061967E+03  0.7546771E-02  0.1268674E+00
         21   -1    0    0  501  502  0.00000000000E+00  0.00000000000E+00  0.78829209218E+03  0.78829209218E+03  0.00000000000E+00 0.  1.
         -1   -1    0    0    0  501 -0.00000000000E+00 -0.00000000000E+00 -0.27551678722E+03  0.27551678722E+03  0.00000000000E+00 0.  1.
         23    2    1    2    0    0 -0.50728412586E+02 -0.25244486188E+02 -0.23917749777E+03  0.26121956858E+03  0.88425853935E+02 0.  0.
         24    2    1    2    0    0  0.15492118449E+03  0.19144516438E+02  0.43972523981E+03  0.47337905217E+03  0.79764369200E+02 0.  0.
        -11    1    4    4    0    0  0.11963260116E+03  0.13474671199E+02  0.40866043398E+03  0.42602450202E+03  0.00000000000E+00 0.  1.
         12    1    4    4    0    0  0.35288583327E+02  0.56698452392E+01  0.31064805834E+02  0.47354550149E+02  0.00000000000E+00 0. -1.
        -13    1    3    3    0    0 -0.89929766008E+01  0.19905498657E+02 -0.10155930218E+02  0.24088283947E+02  0.00000000000E+00 0. -1.
         13    1    3    3    0    0 -0.41735435986E+02 -0.45149984845E+02 -0.22902156755E+03  0.23713128464E+03  0.00000000000E+00 0.  1.
         -2    1    1    2    0  502 -0.10419277190E+03  0.60999697499E+01  0.31222756292E+03  0.32921025864E+03  0.00000000000E+00 0.  1.
<scales pt_clust_5="13000.00000" pt_clust_6="13000.00000" pt_clust_7="13000.00000" pt_clust_8="13000.00000" pt_clust_9="104.37118"></scales>
<clustering>
<clus scale="   79.764">  5  6 -1 -1</clus>
<clus scale="   88.426">  7  8 -1 -1</clus>
<clus scale="  104.371">  1  9  2 -1</clus>
<clus scale="  104.371">  1  5  2 -1</clus>
<clus scale="  104.371">  1  5  2 -1</clus>
</clustering>
</event>
<event>
 9    2  0.3764910E-005  0.1149752E+03  0.7546771E-02  0.1256645E+00
          2   -1    0    0  502    0 -0.00000000000E+00  0.00000000000E+00  0.19322460049E+03  0.19322460049E+03  0.00000000000E+00 0. -1.
         21   -1    0    0  501  502  0.00000000000E+00 -0.00000000000E+00 -0.24858266696E+03  0.24858266696E+03  0.00000000000E+00 0. -1.
         23    2    1    2    0    0 -0.43705446133E+02 -0.44833664345E+02  0.11866806936E+03  0.16330316798E+03  0.93089153539E+02 0.  0.
         24    2    1    2    0    0  0.37844641303E+02  0.75837367045E+02 -0.15715999660E+02  0.11708019223E+03  0.79229133861E+02 0.  0.
        -13    1    4    4    0    0  0.42099882866E+02  0.26237922179E+01 -0.10996459136E+02  0.43591358507E+02  0.00000000000E+00 0.  1.
         14    1    4    4    0    0 -0.42552415636E+01  0.73213574827E+02 -0.47195405242E+01  0.73488833726E+02  0.00000000000E+00 0. -1.
        -13    1    3    3    0    0 -0.13368744799E+02  0.23852226602E+02  0.66416440790E+02  0.71824756586E+02  0.00000000000E+00 0. -1.
         13    1    3    3    0    0 -0.30336701334E+02 -0.68685890947E+02  0.52251628567E+02  0.91478411393E+02  0.00000000000E+00 0.  1.
          1    1    1    2  501    0  0.58608048306E+01 -0.31003702700E+02 -0.15831013617E+03  0.16142390723E+03  0.00000000000E+00 0. -1.
<scales pt_clust_5="13000.00000" pt_clust_6="13000.00000" pt_clust_7="13000.00000" pt_clust_8="13000.00000" pt_clust_9="31.55279"></scales>
<clustering>
<clus scale="   31.553">  2  9  1 -1</clus>
<clus scale="   79.229">  5  6 -1 -1</clus>
<clus scale="   93.089">  7  8 -1 -1</clus>
<clus scale="  104.072">  2  5  1 -1</clus>
<clus scale="   31.553">  2  5  1 -1</clus>
</clustering>
</event>
<event>
 9    2  0.3764910E-005  0.1122518E+03  0.7546771E-02  0.1260697E+00
         21   -1    0    0  501  502  0.00000000000E+00  0.00000000000E+00  0.19339555517E+03  0.19339555517E+03  0.00000000000E+00 0.  1.
          4   -1    0    0  502    0 -0.00000000000E+00 -0.00000000000E+00 -0.23072258268E+03  0.23072258268E+03  0.00000000000E+00 0. -1.
         23    2    1    2    0    0 -0.27049219724E+02  0.68197997606E+02 -0.18697082690E+03  0.22039609575E+03  0.90739857534E+02 0.  0.
         24    2    1    2    0    0 -0.45357577281E+01 -0.22383015312E+02  0.91463032180E+02  0.12321350170E+03  0.79337937158E+02 0.  0.
        -11    1    4    4    0    0  0.10211934541E+01 -0.35527493774E+02  0.10031154117E+03  0.10642204161E+03  0.00000000000E+00 0.  1.
         12    1    4    4    0    0 -0.55569511822E+01  0.13144478462E+02 -0.88485089870E+01  0.16791460084E+02  0.00000000000E+00 0. -1.
        -11    1    3    3    0    0 -0.27895204379E+02  0.25835706336E+02 -0.11267037774E+02  0.39655671592E+02  0.00000000000E+00 0.  1.
         11    1    3    3    0    0  0.84598465459E+00  0.42362291270E+02 -0.17570378913E+03  0.18074042416E+03  0.00000000000E+00 0. -1.
          3    1    1    2  501    0  0.31584977452E+02 -0.45814982294E+02  0.58180767212E+02  0.80508540396E+02  0.00000000000E+00 0. -1.
<scales pt_clust_5="13000.00000" pt_clust_6="13000.00000" pt_clust_7="13000.00000" pt_clust_8="13000.00000" pt_clust_9="55.64731"></scales>
<clustering>
<clus scale="   55.647">  1  9  2 -1</clus>
<clus scale="   79.338">  5  6 -1 -1</clus>
<clus scale="   90.740">  7  8 -1 -1</clus>
<clus scale="  103.253">  1  5  2 -1</clus>
<clus scale="   55.647">  1  5  2 -1</clus>
</clustering>
</event>
<event>
 9    2  0.3764910E-005  0.1144058E+03  0.7546771E-02  0.1259267E+00
         -1   -1    0    0    0  501 -0.00000000000E+00  0.00000000000E+00  0.50523888115E+03  0.50523888115E+03  0.00000000000E+00 0.  1.
         21   -1    0    0  501  502  0.00000000000E+00 -0.00000000000E+00 -0.44661079365E+02  0.44661079365E+02  0.00000000000E+00 0. -1.
         23    2    1    2    0    0  0.55709527683E+02  0.74739863510E+01  0.35592412443E+03  0.37311000059E+03  0.96797098334E+02 0.  0.
         24    2    1    2    0    0 -0.78913798793E+02  0.10293178824E+02  0.75851065068E+02  0.13575703618E+03  0.79644532961E+02 0.  0.
        -13    1    4    4    0    0 -0.27263956881E+02  0.18053663034E+02  0.76850357807E+02  0.83517875864E+02  0.00000000000E+00 0.  1.
         14    1    4    4    0    0 -0.51649841912E+02 -0.77604842099E+01 -0.99929273935E+00  0.52239160317E+02  0.00000000000E+00 0. -1.
        -13    1    3    3    0    0  0.53829155766E+02  0.45026881679E+02  0.17965774737E+03  0.19287795176E+03  0.00000000000E+00 0.  1.
         13    1    3    3    0    0  0.18803719170E+01 -0.37552895328E+02  0.17626637706E+03  0.18023204884E+03  0.00000000000E+00 0. -1.
         -2    1    1    2    0  502  0.23204271110E+02 -0.17767165175E+02  0.28802612288E+02  0.41032923740E+02  0.00000000000E+00 0.  1.
<scales pt_clust_5="13000.00000" pt_clust_6="13000.00000" pt_clust_7="13000.00000" pt_clust_8="13000.00000" pt_clust_9="29.22517"></scales>
<clustering>
<clus scale="   29.225">  2  9  1 -1</clus>
<clus scale="   79.645">  5  6 -1 -1</clus>
<clus scale="   96.797">  7  8 -1 -1</clus>
<clus scale="  100.311">  2  5  1 -1</clus>
<clus scale="   29.225">  2  5  1 -1</clus>
</clustering>
</event>
<event>
 9    2  0.3764910E-005  0.9639525E+02  0.7546771E-02  0.1292436E+00
         21   -1    0    0  501  502  0.00000000000E+00  0.00000000000E+00  0.16772989924E+02  0.16772989924E+02  0.00000000000E+00 0. -1.
          2   -1    0    0  502    0 -0.00000000000E+00 -0.00000000000E+00 -0.91790253178E+03  0.91790253178E+03  0.00000000000E+00 0. -1.
         24    2    1    2    0    0 -0.23869128489E+02  0.11197564326E+01 -0.43474618082E+03  0.44334800650E+03  0.83559703078E+02 0.  0.
         23    2    1    2    0    0  0.41325188158E+02 -0.30080698995E+02 -0.23307511544E+03  0.25558149154E+03  0.91571118540E+02 0.  0.
        -13    1    3    3    0    0  0.24882246476E+02  0.17811109805E+02 -0.97537654232E+02  0.10222502539E+03  0.00000000000E+00 0.  1.
         14    1    3    3    0    0 -0.48751374965E+02 -0.16691353372E+02 -0.33720852659E+03  0.34112298111E+03  0.00000000000E+00 0. -1.
        -11    1    4    4    0    0 -0.22075090459E+02 -0.23190338720E+02 -0.34731839301E+02  0.47237718933E+02  0.00000000000E+00 0.  1.
         11    1    4    4    0    0  0.63400278618E+02 -0.68903602753E+01 -0.19834327614E+03  0.20834377261E+03  0.00000000000E+00 0. -1.
          1    1    1    2  501    0 -0.17456059669E+02  0.28960942563E+02 -0.23330824559E+03  0.23574602367E+03  0.00000000000E+00 0. -1.
<scales pt_clust_5="13000.00000" pt_clust_6="13000.00000" pt_clust_7="13000.00000" pt_clust_8="13000.00000" pt_clust_9="33.81496"></scales>
<clustering>
<clus scale="   33.815">  1  9  2 -1</clus>
<clus scale="   83.560">  5  6 -1 -1</clus>
<clus scale="   88.820">  2  5  1 -1</clus>
<clus scale="   91.571">  7  8 -1 -1</clus>
<clus scale="   33.815">  1  5  2 -1</clus>
</clustering>
</event>
<event>
 9    2  0.3764910E-005  0.2086012E+03  0.7546771E-02  0.1166197E+00
          2   -1    0    0  502    0 -0.00000000000E+00  0.00000000000E+00  0.21275478167E+03  0.21275478167E+03  0.00000000000E+00 0. -1.
         21   -1    0    0  501  502  0.00000000000E+00 -0.00000000000E+00 -0.14120117757E+04  0.14120117757E+04  0.00000000000E+00 0. -1.
         23    2    1    2    0    0 -0.30279250161E+01  0.78739218331E+02 -0.49742569764E+03  0.51169507809E+03  0.90501355998E+02 0.  0.
         24    2    1    2    0    0 -0.15555851387E+03  0.34351625073E+02  0.15366165020E+03  0.23568480334E+03  0.80974924494E+02 0.  0.
        -13    1    4    4    0    0 -0.96870241608E+02 -0.16018227060E+02  0.10761269378E+03  0.14567401680E+03  0.00000000000E+00 0.  1.
         14    1    4    4    0    0 -0.58688272265E+02  0.50369852134E+02  0.46048956418E+02  0.90010786535E+02  0.00000000000E+00 0. -1.
        -11    1    3    3    0    0  0.40893328369E+02  0.47262951316E+02 -0.20486802561E+03  0.21418907253E+03  0.00000000000E+00 0.  1.
         11    1    3    3    0    0 -0.43921253385E+02  0.31476267015E+02 -0.29255767203E+03  0.29750600556E+03  0.00000000000E+00 0. -1.
          1    1    1    2  501    0  0.15858643889E+03 -0.11309084340E+03 -0.85549294654E+03  0.87738667590E+03  0.00000000000E+00 0. -1.
<scales pt_clust_5="13000.00000" pt_clust_6="13000.00000" pt_clust_7="13000.00000" pt_clust_8="13000.00000" pt_clust_9="192.24340"></scales>
<clustering>
<clus scale="   80.975">  5  6 -1 -1</clus>
<clus scale="   90.501">  7  8 -1 -1</clus>
<clus scale="  119.998">  1  7  2 -1</clus>
<clus scale="  192.243">  2  9  1 -1</clus>
<clus scale="  192.243">  2  5  1 -1</clus>
</clustering>
</event>
<event>
 9    2  0.3764910E-005  0.9647518E+02  0.7546771E-02  0.1293626E+00
         -1   -1    0    0    0  501 -0.00000000000E+00  0.00000000000E+00  0.39805317143E+03  0.39805317143E+03  0.00000000000E+00 0.  1.
         21   -1    0    0  501  502  0.00000000000E+00 -0.00000000000E+00 -0.87035497785E+02  0.87035497785E+02  0.00000000000E+00 0. -1.
         23    2    1    2    0    0  0.13531043791E+02  0.17779572256E+02  0.24833353281E+03  0.26530844558E+03  0.90663252975E+02 0.  0.
         24    2    1    2    0    0  0.61439840319E-01 -0.98897422562E+02  0.49035583568E+02  0.13640670047E+03  0.80134858292E+02 0.  0.
        -11    1    4    4    0    0  0.26837240451E+02 -0.63541835353E+01 -0.14956712624E+01  0.27619742142E+02  0.00000000000E+00 0.  1.
         12    1    4    4    0    0 -0.26775800611E+02 -0.92543239027E+02  0.50531254830E+02  0.10878695833E+03  0.00000000000E+00 0. -1.
        -13    1    3    3    0    0  0.49092896921E+02  0.13255308004E+02  0.19130865316E+03  0.19795155087E+03  0.00000000000E+00 0.  1.
         13    1    3    3    0    0 -0.35561853130E+02  0.45242642520E+01  0.57024879650E+02  0.67356894704E+02  0.00000000000E+00 0. -1.
         -2    1    1    2    0  502 -0.13592483631E+02  0.81117850306E+02  0.13648557264E+02  0.83373523165E+02  0.00000000000E+00 0.  1.
<scales pt_clust_5="13000.00000" pt_clust_6="13000.00000" pt_clust_7="13000.00000" pt_clust_8="13000.00000" pt_clust_9="82.24878"></scales>
<clustering>
<clus scale="   80.135">  5  6 -1 -1</clus>
<clus scale="   82.249">  2  9  1 -1</clus>
<clus scale="   86.656">  2  5  1 -1</clus>
<clus scale="   90.663">  7  8 -1 -1</clus>
<clus scale="   82.249">  2  5  1 -1</clus>
</clustering>
</event>
<event>
 9    2  0.3764910E-005  0.1308979E+03  0.7546771E-02  0.1228333E+00
         -1   -1    0    0    0  501 -0.00000000000E+00  0.00000000000E+00  0.18606149430E+03  0.18606149430E+03  0.00000000000E+00 0.  1.
         21   -1    0    0  501  502  0.00000000000E+00 -0.00000000000E+00 -0.42695056475E+03  0.42695056475E+03  0.00000000000E+00 0. -1.
         23    2    1    2    0    0  0.43932890220E+02  0.83894428311E+02  0.11828551356E+03  0.17680211577E+03  0.91099678807E+02 0.  0.
         24    2    1    2    0    0  0.24432550228E+02 -0.10710171439E+03 -0.33159838209E+03  0.35892567265E+03  0.82476813396E+02 0.  0.
        -13    1    4    4    0    0  0.18176426421E+02 -0.72641799899E+02 -0.10125905721E+03  0.12593891470E+03  0.00000000000E+00 0.  1.
         14    1    4    4    0    0  0.62561238066E+01 -0.34459914489E+02 -0.23033932489E+03  0.23298675795E+03  0.00000000000E+00 0. -1.
        -13    1    3    3    0    0  0.38244600551E+02  0.59108594841E+02  0.13073652540E+03  0.14848742213E+03  0.00000000000E+00 0.  1.
         13    1    3    3    0    0  0.56882896692E+01  0.24785833470E+02 -0.12451011846E+02  0.28314693644E+02  0.00000000000E+00 0. -1.
         -2    1    1    2    0  502 -0.68365440448E+02  0.23207286077E+02 -0.27576201921E+02  0.77284270632E+02  0.00000000000E+00 0.  1.
<scales pt_clust_5="13000.00000" pt_clust_6="13000.00000" pt_clust_7="13000.00000" pt_clust_8="13000.00000" pt_clust_9="72.19707"></scales>
<clustering>
<clus scale="   72.197">  2  9  1 -1</clus>
<clus scale="   82.477">  5  6 -1 -1</clus>
<clus scale="   91.100">  7  8 -1 -1</clus>
<clus scale="  125.050">  2  5  1 -1</clus>
<clus scale="   72.197">  2  5  1 -1</clus>
</clustering>
</event>
<event>
 9    2  0.3764910E-005  0.1030958E+03  0.7546771E-02  0.1278053E+00
          2   -1    0    0  502    0 -0.00000000000E+00  0.00000000000E+00  0.66145703571E+03  0.66145703571E+03  0.00000000000E+00 0. -1.
         21   -1    0    0  501  502  0.00000000000E+00 -0.00000000000E+00 -0.84014524775E+02  0.84014524775E+02  0.00000000000E+00 0.  1.
         23    2    1    2    0    0  0.43998982850E+02  0.24485922699E+02  0.54738991628E+03  0.55697246387E+03  0.89705820073E+02 0.  0.
         24    2    1    2    0    0 -0.41398024335E+02 -0.44908302236E+02 -0.45010830749E+02  0.11066365222E+03  0.80560021165E+02 0.  0.
        -13    1    4    4    0    0 -0.44770315719E+02 -0.20063174140E+01 -0.50227558510E+02  0.67314293527E+02  0.00000000000E+00 0.  1.
         14    1    4    4    0    0  0.33722913835E+01 -0.42901984822E+02  0.52167277615E+01  0.43349358697E+02  0.00000000000E+00 0. -1.
        -13    1    3    3    0    0  0.16267526138E+02  0.57016676286E+02  0.35226778318E+03  0.35722279442E+03  0.00000000000E+00 0.  1.
         13    1    3    3    0    0  0.27731456711E+02 -0.32530753587E+02  0.19512213310E+03  0.19974966945E+03  0.00000000000E+00 0. -1.
          1    1    1    2  501    0 -0.26009585147E+01  0.20422379537E+02  0.75063425396E+02  0.77835444390E+02  0.00000000000E+00 0. -1.
<scales pt_clust_5="13000.00000" pt_clust_6="13000.00000" pt_clust_7="13000.00000" pt_clust_8="13000.00000" pt_clust_9="20.58735"></scales>
<clustering>
<clus scale="   20.587">  2  9  1 -1</clus>
<clus scale="   80.560">  5  6 -1 -1</clus>
<clus scale="   89.706">  7  8 -1 -1</clus>
<clus scale="   95.245">  2  5  1 -1</clus>
<clus scale="   20.587">  2  5  1 -1</clus>
</clustering>
</event>
<event>
 9    2  0.3764910E-005  0.1212629E+03  0.7546771E-02  0.1243925E+00
         -1   -1    0    0    0  501 -0.00000000000E+00  0.00000000000E+00  0.27420472878E+03  0.27420472878E+03  0.00000000000E+00 0.  1.
         21   -1    0    0  501  502  0.00000000000E+00 -0.00000000000E+00 -0.12615595435E+03  0.12615595435E+03  0.00000000000E+00 0. -1.
         23    2    1    2    0    0  0.79400695783E+02 -0.11416736864E+02  0.16880510948E+03  0.20768891568E+03  0.90579845115E+02 0.  0.
         24    2    1    2    0    0 -0.74984436403E+02  0.49198375587E+02 -0.62565976029E+02  0.13614742180E+03  0.81107787811E+02 0.  0.
        -11    1    4    4    0    0 -0.82211634061E+02  0.13149276007E+02 -0.35581480711E+02  0.90541139843E+02  0.00000000000E+00 0.  1.
         12    1    4    4    0    0  0.72271976580E+01  0.36049099580E+02 -0.26984495318E+02  0.45606281958E+02  0.00000000000E+00 0. -1.
        -11    1    3    3    0    0  0.46987842826E+02  0.29204106497E+02  0.13446162185E+03  0.14539829766E+03  0.00000000000E+00 0. -1.
         11    1    3    3    0    0  0.32412852957E+02 -0.40620843360E+02  0.34343487622E+02  0.62290618027E+02  0.00000000000E+00 0.  1.
         -2    1    1    2    0  502 -0.44162593797E+01 -0.37781638723E+02  0.41809640980E+02  0.56524345643E+02  0.00000000000E+00 0.  1.
<scales pt_clust_5="13000.00000" pt_clust_6="13000.00000" pt_clust_7="13000.00000" pt_clust_8="13000.00000" pt_clust_9="38.03889"></scales>
<clustering>
<clus scale="   38.039">  2  9  1 -1</clus>
<clus scale="   81.108">  5  6 -1 -1</clus>
<clus scale="   90.580">  7  8 -1 -1</clus>
<clus scale="  114.361">  2  5  1 -1</clus>
<clus scale="   38.039">  2  5  1 -1</clus>
</clustering>
</event>
<event>
 9    2  0.3764910E-005  0.1924023E+03  0.7546771E-02  0.1196842E+00
         21   -1    0    0  501  502  0.00000000000E+00  0.00000000000E+00  0.26642712301E+03  0.26642712301E+03  0.00000000000E+00 0. -1.
          2   -1    0    0  502    0 -0.00000000000E+00 -0.00000000000E+00 -0.59577565822E+03  0.59577565822E+03  0.00000000000E+00 0. -1.
         24    2    1    2    0    0  0.23569593398E+01  0.29794497459E+01 -0.46875966171E+03  0.47502934866E+03  0.76829872250E+02 0.  0.
         23    2    1    2    0    0  0.40707726406E+02  0.16146544899E+03  0.63602944837E+02  0.20104559401E+03  0.92982719219E+02 0.  0.
        -11    1    3    3    0    0  0.21454053448E+02  0.33892769208E+02 -0.21948934732E+03  0.22312456118E+03  0.00000000000E+00 0.  1.
         12    1    3    3    0    0 -0.19097094108E+02 -0.30913319462E+02 -0.24927031439E+03  0.25190478749E+03  0.00000000000E+00 0. -1.
        -13    1    4    4    0    0 -0.46558758907E+01  0.13737602386E+03  0.33378025192E+02  0.14144943152E+03  0.00000000000E+00 0. -1.
         13    1    4    4    0    0  0.45363602296E+02  0.24089425132E+02  0.30224919645E+02  0.59596162494E+02  0.00000000000E+00 0.  1.
          1    1    1    2  501    0 -0.43064685745E+02 -0.16444489873E+03  0.75808181661E+02  0.18612783855E+03  0.00000000000E+00 0. -1.
<scales pt_clust_5="13000.00000" pt_clust_6="13000.00000" pt_clust_7="13000.00000" pt_clust_8="13000.00000" pt_clust_9="168.44241"></scales>
<clustering>
<clus scale="   76.830">  5  6 -1 -1</clus>
<clus scale="   76.924">  2  5  1 -1</clus>
<clus scale="   92.983">  7  8 -1 -1</clus>
<clus scale="  168.442">  1  9  2 -1</clus>
<clus scale="  168.442">  1  5  2 -1</clus>
</clustering>
</event>
<event>
 9    2  0.3764910E-005  0.9231484E+02  0.7546771E-02  0.1304310E+00
         21   -1    0    0  501  502  0.00000000000E+00  0.00000000000E+00  0.34250736953E+02  0.34250736953E+02  0.00000000000E+00 0.  1.
         -1   -1    0    0    0  501 -0.00000000000E+00 -0.00000000000E+00 -0.97921967750E+03  0.97921967750E+03  0.00000000000E+00 0.  1.
         24    2    1    2    0    0 -0.76882145161E+01  0.18074411286E-01 -0.62125533470E+03  0.62650511920E+03  0.80569004757E+02 0.  0.
         23    2    1    2    0    0 -0.45240390048E+02 -0.56544393271E+02 -0.26547714785E+03  0.29007284485E+03  0.91761527800E+02 0.  0.
        -13    1    3    3    0    0 -0.38707129841E+02 -0.10620559074E+02 -0.20075923570E+03  0.20473228591E+03  0.00000000000E+00 0.  1.
         14    1    3    3    0    0  0.31018915325E+02  0.10638633485E+02 -0.42049609899E+03  0.42177283329E+03  0.00000000000E+00 0. -1.
        -13    1    4    4    0    0 -0.45112449659E+02 -0.80686000532E+02 -0.20151443393E+03  0.22170573037E+03  0.00000000000E+00 0.  1.
         13    1    4    4    0    0 -0.12794038849E+00  0.24141607261E+02 -0.63962713921E+02  0.68367114478E+02  0.00000000000E+00 0. -1.
         -2    1    1    2    0  502  0.52928604564E+02  0.56526318860E+02 -0.58236457997E+02  0.96892450402E+02  0.00000000000E+00 0.  1.
<scales pt_clust_5="13000.00000" pt_clust_6="13000.00000" pt_clust_7="13000.00000" pt_clust_8="13000.00000" pt_clust_9="77.43812"></scales>
<clustering>
<clus scale="   77.438">  1  9  2 -1</clus>
<clus scale="   80.569">  5  6 -1 -1</clus>
<clus scale="   81.199">  2  5  1 -1</clus>
<clus scale="   91.762">  7  8 -1 -1</clus>
<clus scale="   77.438">  1  5  2 -1</clus>
</clustering>
</event>
<event>
 9    2  0.3764910E-005  0.9421078E+02  0.7546771E-02  0.1299884E+00
         21   -1    0    0  501  502  0.00000000000E+00  0.00000000000E+00  0.62216208612E+02  0.62216208612E+02  0.00000000000E+00 0.  1.
          2   -1    0    0  502    0 -0.00000000000E+00 -0.00000000000E+00 -0.27333762304E+03  0.27333762304E+03  0.00000000000E+00 0. -1.
         23    2    1    2    0    0  0.42855376111E+02 -0.19834589188E+02 -0.11584599264E+03  0.15486921218E+03  0.91291755832E+02 0.  0.
         24    2    1    2    0    0  0.23452569916E+02  0.13762741502E+02 -0.35633226128E+02  0.91293330492E+02  0.79531813124E+02 0.  0.
        -13    1    4    4    0    0  0.48109112400E+02  0.27763579227E+02 -0.26167991222E+02  0.61400869635E+02  0.00000000000E+00 0.  1.
         14    1    4    4    0    0 -0.24656542484E+02 -0.14000837725E+02 -0.94652349056E+01  0.29892460857E+02  0.00000000000E+00 0. -1.
        -11    1    3    3    0    0 -0.24678579925E+02 -0.13412620361E+02 -0.11372639365E+02  0.30302930851E+02  0.00000000000E+00 0.  1.
         11    1    3    3    0    0  0.67533956036E+02 -0.64219688263E+01 -0.10447335327E+03  0.12456628133E+03  0.00000000000E+00 0. -1.
          1    1    1    2  501    0 -0.66307946027E+02  0.60718476857E+01 -0.59642195661E+02  0.89391288971E+02  0.00000000000E+00 0. -1.
<scales pt_clust_5="13000.00000" pt_clust_6="13000.00000" pt_clust_7="13000.00000" pt_clust_8="13000.00000" pt_clust_9="66.58540"></scales>
<clustering>
<clus scale="   66.585">  1  9  2 -1</clus>
<clus scale="   79.532">  5  6 -1 -1</clus>
<clus scale="   82.866">  1  5  2 -1</clus>
<clus scale="   91.292">  7  8 -1 -1</clus>
<clus scale="   66.585">  1  5  2 -1</clus>
</clustering>
</event>
<event>
 9    2  0.3764910E-005  0.1507984E+03  0.7546771E-02  0.1200834E+00
          4   -1    0    0  502    0 -0.00000000000E+00  0.00000000000E+00  0.64561189508E+03  0.64561189508E+03  0.00000000000E+00 0. -1.
         21   -1    0    0  501  502  0.00000000000E+00 -0.00000000000E+00 -0.14106325166E+03  0.14106325166E+03  0.00000000000E+00 0.  1.
         23    2    1    2    0    0  0.81255481694E+02 -0.10683408755E+03  0.59552878344E+02  0.17312468120E+03  0.91704058550E+02 0.  0.
         24    2    1    2    0    0  0.70314038899E+02  0.12774446238E+03  0.27932586382E+02  0.16930699808E+03  0.81375171173E+02 0.  0.
        -13    1    4    4    0    0  0.67109142329E+02  0.78457518293E+02 -0.14417694388E+02  0.10424533118E+03  0.00000000000E+00 0.  1.
         14    1    4    4    0    0  0.32048965696E+01  0.49286944086E+02  0.42350280770E+02  0.65061666907E+02  0.00000000000E+00 0. -1.
        -11    1    3    3    0    0  0.92455322089E+02 -0.51217345428E+02  0.42068455122E+02  0.11375833144E+03  0.00000000000E+00 0.  1.
         11    1    3    3    0    0 -0.11199840395E+02 -0.55616742117E+02  0.17484423223E+02  0.59366349762E+02  0.00000000000E+00 0. -1.
          3    1    1    2  501    0 -0.15156952059E+03 -0.20910374833E+02  0.41706317869E+03  0.44424346745E+03  0.00000000000E+00 0. -1.
<scales pt_clust_5="13000.00000" pt_clust_6="13000.00000" pt_clust_7="13000.00000" pt_clust_8="13000.00000" pt_clust_9="153.00519"></scales>
<clustering>
<clus scale="   81.375">  5  6 -1 -1</clus>
<clus scale="   91.704">  7  8 -1 -1</clus>
<clus scale="  153.005">  2  9  1 -1</clus>
<clus scale="  153.005">  2  5  1 -1</clus>
<clus scale="  150.798">  2  5  1 -1</clus>
</clustering>
</event>
<event>
 9    2  0.3764910E-005  0.9748384E+02  0.7546771E-02  0.1290685E+00
         -3   -1    0    0    0  501 -0.00000000000E+00  0.00000000000E+00  0.29879067335E+02  0.29879067335E+02  0.00000000000E+00 0.  1.
         21   -1    0    0  501  502  0.00000000000E+00 -0.00000000000E+00 -0.67845486170E+03  0.67845486170E+03  0.00000000000E+00 0.  1.
         23    2    1    2    0    0  0.47755620340E+02  0.11067217540E+01 -0.10415629639E+03  0.14497185930E+03  0.88805865819E+02 0.  0.
         24    2    1    2    0    0 -0.18374636141E+02  0.38344120339E+02 -0.26928145673E+03  0.28386152785E+03  0.79100981267E+02 0.  0.
        -13    1    4    4    0    0  0.51923686929E+01  0.31082918805E+02 -0.30654397430E+02  0.43963628330E+02  0.00000000000E+00 0.  1.
         14    1    4    4    0    0 -0.23567004834E+02  0.72612015341E+01 -0.23862705930E+03  0.23989789952E+03  0.00000000000E+00 0. -1.
        -11    1    3    3    0    0  0.48775269772E+01  0.38006179608E+02 -0.67335368540E+02  0.77474588184E+02  0.00000000000E+00 0. -1.
         11    1    3    3    0    0  0.42878093363E+02 -0.36899457854E+02 -0.36820927850E+02  0.67497271115E+02  0.00000000000E+00 0.  1.
         -4    1    1    2    0  502 -0.29380984199E+02 -0.39450842094E+02 -0.27513804124E+03  0.27950054188E+03  0.00000000000E+00 0.  1.
<scales pt_clust_5="13000.00000" pt_clust_6="13000.00000" pt_clust_7="13000.00000" pt_clust_8="13000.00000" pt_clust_9="49.18954"></scales>
<clustering>
<clus scale="   49.190">  2  9  1 -1</clus>
<clus scale="   79.101">  5  6 -1 -1</clus>
<clus scale="   88.733">  2  5  1 -1</clus>
<clus scale="   88.806">  7  8 -1 -1</clus>
<clus scale="   49.190">  2  5  1 -1</clus>
</clustering>
</event>
<event>
 9    2  0.3764910E-005  0.1189113E+03  0.7546771E-02  0.1257457E+00
         -1   -1    0    0    0  501 -0.00000000000E+00  0.00000000000E+00  0.37836604230E+03  0.37836604230E+03  0.00000000000E+00 0.  1.
         21   -1    0    0  501  502  0.00000000000E+00 -0.00000000000E+00 -0.66297253830E+02  0.66297253830E+02  0.00000000000E+00 0. -1.
         23    2    1    2    0    0  0.54235681295E+02 -0.10055900180E+02  0.27954245504E+03  0.30529082442E+03  0.10961693780E+03 0.  0.
         24    2    1    2    0    0 -0.29659477026E+02  0.49251521220E+01  0.58073569140E+02  0.10355382231E+03  0.80292670779E+02 0.  0.
        -13    1    4    4    0    0  0.24524489502E+02 -0.13890411145E+02  0.22454539542E+02  0.36036099306E+02  0.00000000000E+00 0.  1.
         14    1    4    4    0    0 -0.54183966528E+02  0.18815563267E+02  0.35619029598E+02  0.67517723001E+02  0.00000000000E+00 0. -1.
        -13    1    3    3    0    0 -0.31502371926E+02 -0.13975048316E+01  0.41434996394E+02  0.52069294051E+02  0.00000000000E+00 0. -1.
         13    1    3    3    0    0  0.85738053221E+02 -0.86583953484E+01  0.23810745865E+03  0.25322153037E+03  0.00000000000E+00 0.  1.
         -2    1    1    2    0  502 -0.24576204268E+02  0.51307480580E+01 -0.25547235716E+02  0.35818649397E+02  0.00000000000E+00 0.  1.
<scales pt_clust_5="13000.00000" pt_clust_6="13000.00000" pt_clust_7="13000.00000" pt_clust_8="13000.00000" pt_clust_9="25.10606"></scales>
<clustering>
<clus scale="   25.106">  2  9  1 -1</clus>
<clus scale="   80.293">  5  6 -1 -1</clus>
<clus scale="   92.579">  2  5  1 -1</clus>
<clus scale="  109.617">  7  8 -1 -1</clus>
<clus scale="   25.106">  2  5  1 -1</clus>
</clustering>
</event>
<event>
 9    2  0.3764910E-005  0.1829438E+03  0.7546771E-02  0.1165420E+00
          2   -1    0    0  502    0 -0.00000000000E+00  0.00000000000E+00  0.12435000915E+04  0.12435000915E+04  0.00000000000E+00 0. -1.
         21   -1    0    0  501  502  0.00000000000E+00 -0.00000000000E+00 -0.55338260383E+02  0.55338260383E+02  0.00000000000E+00 0. -1.
         23    2    1    2    0    0  0.12175832786E+03  0.20543467814E+02  0.45063615622E+03  0.47611869448E+03  0.91481918841E+02 0.  0.
         24    2    1    2    0    0 -0.22970477595E+03 -0.51851246918E+02  0.53540105764E+03  0.59144714802E+03  0.87764460252E+02 0.  0.
        -13    1    4    4    0    0 -0.78954385447E+02  0.20898406687E+02  0.21431038096E+03  0.22934576031E+03  0.00000000000E+00 0.  1.
         14    1    4    4    0    0 -0.15075039050E+03 -0.72749653605E+02  0.32109067668E+03  0.36210138772E+03  0.00000000000E+00 0. -1.
        -13    1    3    3    0    0 -0.27199342215E+01  0.28590781797E+02  0.74856391066E+02  0.80176743071E+02  0.00000000000E+00 0. -1.
         13    1    3    3    0    0  0.12447826208E+03 -0.80473139826E+01  0.37577976515E+03  0.39594195141E+03  0.00000000000E+00 0.  1.
          1    1    1    2  501    0  0.10794644809E+03  0.31307779104E+02  0.20212461725E+03  0.23127250936E+03  0.00000000000E+00 0. -1.
<scales pt_clust_5="13000.00000" pt_clust_6="13000.00000" pt_clust_7="13000.00000" pt_clust_8="13000.00000" pt_clust_9="112.39490"></scales>
<clustering>
<clus scale="   87.764">  5  6 -1 -1</clus>
<clus scale="   91.482">  7  8 -1 -1</clus>
<clus scale="  112.395">  2  9  1 -1</clus>
<clus scale="  181.113">  2  5  1 -1</clus>
<clus scale="  112.395">  2  5  1 -1</clus>
</clustering>
</event>
<event>
 9    2  0.7260541E-005  0.9643261E+02  0.7546771E-02  0.1293737E+00
         21   -1    0    0  501  502  0.00000000000E+00  0.00000000000E+00  0.77244553719E+02  0.77244553719E+02  0.00000000000E+00 0. -1.
          4   -1    0    0  502    0 -0.00000000000E+00 -0.00000000000E+00 -0.74816707610E+03  0.74816707610E+03  0.00000000000E+00 0. -1.
         24    2    1    2    0    0 -0.34313351083E+02 -0.11096962747E+02 -0.59711874676E+03  0.60386673327E+03  0.82484454109E+02 0.  0.
         23    2    1    2    0    0 -0.30629974415E+02  0.43655038744E+01 -0.10976483963E+03  0.14700533531E+03  0.92763115692E+02 0.  0.
        -11    1    3    3    0    0  0.10430337596E+02 -0.24788339122E+02 -0.75375718204E+02  0.80029698198E+02  0.00000000000E+00 0.  1.
         12    1    3    3    0    0 -0.44743688679E+02  0.13691376375E+02 -0.52174302856E+03  0.52383703507E+03  0.00000000000E+00 0. -1.
        -13    1    4    4    0    0 -0.55641826963E+02 -0.21926695307E+02 -0.81066712391E+02  0.10074028357E+03  0.00000000000E+00 0. -1.
         13    1    4    4    0    0  0.25011852548E+02  0.26292199182E+02 -0.28698127241E+02  0.46265051744E+02  0.00000000000E+00 0.  1.
          3    1    1    2  501    0  0.64943325498E+02  0.67314588726E+01  0.35961064013E+02  0.74539561243E+02  0.00000000000E+00 0. -1.
<scales pt_clust_5="13000.00000" pt_clust_6="13000.00000" pt_clust_7="13000.00000" pt_clust_8="13000.00000" pt_clust_9="65.29126"></scales>
<clustering>
<clus scale="   65.291">  1  9  2 -1</clus>
<clus scale="   82.484">  5  6 -1 -1</clus>
<clus scale="   86.591">  2  5  1 -1</clus>
<clus scale="   92.763">  7  8 -1 -1</clus>
<clus scale="   65.291">  1  5  2 -1</clus>
</clustering>
</event>
<event>
 9    2  0.3764910E-005  0.8251070E+02  0.7546771E-02  0.1325240E+00
         21   -1    0    0  501  502  0.00000000000E+00  0.00000000000E+00  0.29121634627E+02  0.29121634627E+02  0.00000000000E+00 0.  1.
          2   -1    0    0  502    0 -0.00000000000E+00 -0.00000000000E+00 -0.76327234253E+03  0.76327234253E+03  0.00000000000E+00 0. -1.
         24    2    1    2    0    0  0.15916790825E+02  0.92426940501E+01 -0.39193504860E+03  0.40049977087E+03  0.80300762897E+02 0.  0.
         23    2    1    2    0    0 -0.33816613863E+02  0.50617243014E+02 -0.91190881546E+02  0.13321089647E+03  0.75655121425E+02 0.  0.
        -11    1    3    3    0    0  0.44302862622E+02 -0.96861734931E+01 -0.27404437156E+03  0.27777127853E+03  0.00000000000E+00 0.  1.
         12    1    3    3    0    0 -0.28386071797E+02  0.18928867543E+02 -0.11789067704E+03  0.12272849234E+03  0.00000000000E+00 0. -1.
        -13    1    4    4    0    0  0.85766592301E+00  0.25751715307E+02  0.65302144853E+01  0.26580634554E+02  0.00000000000E+00 0.  1.
         13    1    4    4    0    0 -0.34674279786E+02  0.24865527707E+02 -0.97721096031E+02  0.10663026192E+03  0.00000000000E+00 0. -1.
          1    1    1    2  501    0  0.17899823039E+02 -0.59859937064E+02 -0.25102477775E+03  0.25868330981E+03  0.00000000000E+00 0. -1.
<scales pt_clust_5="13000.00000" pt_clust_6="13000.00000" pt_clust_7="13000.00000" pt_clust_8="13000.00000" pt_clust_9="62.47895"></scales>
<clustering>
<clus scale="   62.479">  1  9  2 -1</clus>
<clus scale="   75.655">  7  8 -1 -1</clus>
<clus scale="   77.997">  1  7  2 -1</clus>
<clus scale="   80.301">  5  6 -1 -1</clus>
<clus scale="   62.479">  1  5  2 -1</clus>
</clustering>
</event>
<event>
 9    2  0.3764910E-005  0.9719930E+02  0.7546771E-02  0.1292563E+00
          2   -1    0    0  502    0 -0.00000000000E+00  0.00000000000E+00  0.62384319326E+03  0.62384319326E+03  0.00000000000E+00 0. -1.
         21   -1    0    0  501  502  0.00000000000E+00 -0.00000000000E+00 -0.45010913485E+02  0.45010913485E+02  0.00000000000E+00 0. -1.
         24    2    1    2    0    0  0.37852517032E+02 -0.23700829069E+02  0.39951719041E+03  0.40977986972E+03  0.79441889790E+02 0.  0.
         23    2    1    2    0    0 -0.21056845806E+02 -0.25381396353E+02  0.18302875617E+03  0.20706509605E+03  0.91042969963E+02 0.  0.
        -11    1    3    3    0    0 -0.53391069457E+01 -0.43111014939E+02  0.20892823132E+03  0.21339651243E+03  0.00000000000E+00 0.  1.
         12    1    3    3    0    0  0.43191623978E+02  0.19410185871E+02  0.19058895908E+03  0.19638335729E+03  0.00000000000E+00 0. -1.
        -13    1    4    4    0    0  0.36039708788E+02 -0.91523394994E+01  0.62825593847E+02  0.73004665399E+02  0.00000000000E+00 0. -1.
         13    1    4    4    0    0 -0.57096554595E+02 -0.16229056854E+02  0.12020316232E+03  0.13406043065E+03  0.00000000000E+00 0.  1.
          1    1    1    2  501    0 -0.16795671226E+02  0.49082225422E+02 -0.37136668005E+01  0.52009140979E+02  0.00000000000E+00 0. -1.
<scales pt_clust_5="13000.00000" pt_clust_6="13000.00000" pt_clust_7="13000.00000" pt_clust_8="13000.00000" pt_clust_9="51.87639"></scales>
<clustering>
<clus scale="   51.876">  2  9  1 -1</clus>
<clus scale="   79.442">  5  6 -1 -1</clus>
<clus scale="   86.429">  1  5  2 -1</clus>
<clus scale="   91.043">  7  8 -1 -1</clus>
<clus scale="   51.876">  2  5  1 -1</clus>
</clustering>
</event>
<event>
 9    2  0.3764910E-005  0.2259082E+03  0.7546771E-02  0.1149983E+00
         21   -1    0    0  501  502  0.00000000000E+00  0.00000000000E+00  0.15887604350E+03  0.15887604350E+03  0.00000000000E+00 0. -1.
          2   -1    0    0  502    0 -0.00000000000E+00 -0.00000000000E+00 -0.57689833141E+03  0.57689833141E+03  0.00000000000E+00 0. -1.
         24    2    1    2    0    0  0.49327839781E+02 -0.10170855971E+03 -0.18250846578E+03  0.22879505131E+03  0.79119962909E+02 0.  0.
         23    2    1    2    0    0  0.17540432049E+03  0.21427006610E+02 -0.16428420780E+03  0.25793448911E+03  0.91187211156E+02 0.  0.
        -13    1    3    3    0    0  0.64907091888E+02 -0.80404247940E+02 -0.17144345906E+03  0.20017650541E+03  0.00000000000E+00 0.  1.
         14    1    3    3    0    0 -0.15579252107E+02 -0.21304311766E+02 -0.11065006719E+02  0.28618545905E+02  0.00000000000E+00 0. -1.
        -11    1    4    4    0    0  0.15184587079E+03  0.15467625286E+01 -0.87653105954E+02  0.17533575771E+03  0.00000000000E+00 0. -1.
         11    1    4    4    0    0  0.23558449702E+02  0.19880244082E+02 -0.76631101848E+02  0.82598731392E+02  0.00000000000E+00 0.  1.
          1    1    1    2  501    0 -0.22473216027E+03  0.80281553095E+02 -0.71229614339E+02  0.24904483449E+03  0.00000000000E+00 0. -1.
<scales pt_clust_5="13000.00000" pt_clust_6="13000.00000" pt_clust_7="13000.00000" pt_clust_8="13000.00000" pt_clust_9="206.68679"></scales>
<clustering>
<clus scale="   79.120">  5  6 -1 -1</clus>
<clus scale="   91.187">  7  8 -1 -1</clus>
<clus scale="  137.978">  2  5  1 -1</clus>
<clus scale="  206.687">  1  9  2 -1</clus>
<clus scale="  206.687">  1  5  2 -1</clus>
</clustering>
</event>
<event>
 9    2  0.3764910E-005  0.4663076E+03  0.7546771E-02  0.1056941E+00
          2   -1    0    0  502    0 -0.00000000000E+00  0.00000000000E+00  0.15226471490E+04  0.15226471490E+04  0.00000000000E+00 0. -1.
         21   -1    0    0  501  502  0.00000000000E+00 -0.00000000000E+00 -0.21472768889E+03  0.21472768889E+03  0.00000000000E+00 0.  1.
         23    2    1    2    0    0 -0.91380274881E+02  0.11645459750E+03  0.18125331356E+03  0.25089500657E+03  0.90462769841E+02 0.  0.
         24    2    1    2    0    0  0.48423584530E+03  0.97099707410E+02  0.75126155265E+03  0.90263948544E+03  0.80320689281E+02 0.  0.
        -13    1    4    4    0    0  0.39835377423E+03  0.10300587330E+03  0.65488467816E+03  0.77341443035E+03  0.00000000000E+00 0.  1.
         14    1    4    4    0    0  0.85882071071E+02 -0.59061658891E+01  0.96376874486E+02  0.12922505509E+03  0.00000000000E+00 0. -1.
        -13    1    3    3    0    0 -0.51757806889E+02  0.58274620911E+02  0.15899126769E+03  0.17706785484E+03  0.00000000000E+00 0.  1.
         13    1    3    3    0    0 -0.39622467992E+02  0.58179976591E+02  0.22262045872E+02  0.73827151728E+02  0.00000000000E+00 0. -1.
          1    1    1    2  501    0 -0.39285557042E+03 -0.21355430491E+03  0.37540459388E+03  0.58384034587E+03  0.00000000000E+00 0. -1.
<scales pt_clust_5="13000.00000" pt_clust_6="13000.00000" pt_clust_7="13000.00000" pt_clust_8="13000.00000" pt_clust_9="459.33799"></scales>
<clustering>
<clus scale="   80.321">  5  6 -1 -1</clus>
<clus scale="   90.463">  7  8 -1 -1</clus>
<clus scale="  173.481">  1  7  2 -1</clus>
<clus scale="  459.338">  2  9  1 -1</clus>
<clus scale="  459.338">  2  5  1 -1</clus>
</clustering>
</event>
<event>
 9    2  0.3764910E-005  0.9752601E+02  0.7546771E-02  0.1287220E+00
         21   -1    0    0  501  502  0.00000000000E+00  0.00000000000E+00  0.19049733219E+02  0.19049733219E+02  0.00000000000E+00 0.  1.
         -1   -1    0    0    0  501 -0.00000000000E+00 -0.00000000000E+00 -0.10302556912E+04  0.10302556912E+04  0.00000000000E+00 0.  1.
         24    2    1    2    0    0  0.36266268235E+01  0.68283233592E+02 -0.38204895876E+03  0.39763966484E+03  0.86487824298E+02 0.  0.
         23    2    1    2    0    0 -0.23361051531E+01 -0.42779904812E+01 -0.22173245244E+03  0.23924231467E+03  0.89709788058E+02 0.  0.
        -11    1    3    3    0    0 -0.28976580404E+02  0.67554987580E+02 -0.30931520879E+03  0.31792957860E+03  0.00000000000E+00 0.  1.
         12    1    3    3    0    0  0.32603207228E+02  0.72824601158E+00 -0.72733749971E+02  0.79710086242E+02  0.00000000000E+00 0. -1.
        -13    1    4    4    0    0 -0.39761909170E+01 -0.38472796827E+02 -0.45510170221E+02  0.59725553856E+02  0.00000000000E+00 0.  1.
         13    1    4    4    0    0  0.16400857639E+01  0.34194806346E+02 -0.17622228222E+03  0.17951676081E+03  0.00000000000E+00 0. -1.
         -2    1    1    2    0  502 -0.12905216704E+01 -0.64005243110E+02 -0.40742454679E+03  0.41242344492E+03  0.00000000000E+00 0.  1.
<scales pt_clust_5="13000.00000" pt_clust_6="13000.00000" pt_clust_7="13000.00000" pt_clust_8="13000.00000" pt_clust_9="64.01828"></scales>
<clustering>
<clus scale="   64.018">  1  9  2 -1</clus>
<clus scale="   86.488">  5  6 -1 -1</clus>
<clus scale="   89.710">  7  8 -1 -1</clus>
<clus scale="   94.571">  2  5  1 -1</clus>
<clus scale="   64.018">  1  5  2 -1</clus>
</clustering>
</event>
<event>
 9    2  0.3764910E-005  0.1306462E+03  0.7546771E-02  0.1231186E+00
         21   -1    0    0  501  502  0.00000000000E+00  0.00000000000E+00  0.34802468028E+03  0.34802468028E+03  0.00000000000E+00 0.  1.
          4   -1    0    0  502    0 -0.00000000000E+00 -0.00000000000E+00 -0.34199219655E+03  0.34199219655E+03  0.00000000000E+00 0. -1.
         23    2    1    2    0    0 -0.41072855021E+02  0.63219661515E+02 -0.26717189545E+03  0.29230307139E+03  0.91523542350E+02 0.  0.
         24    2    1    2    0    0 -0.89234037601E+02 -0.38685216014E+02  0.22212676704E+03  0.25561965446E+03  0.80881689560E+02 0.  0.
        -11    1    4    4    0    0 -0.28717095113E+02  0.23350108975E+02  0.93119674771E+02  0.10020565339E+03  0.00000000000E+00 0.  1.
         12    1    4    4    0    0 -0.60516942488E+02 -0.62035324989E+02  0.12900709227E+03  0.15541400108E+03  0.00000000000E+00 0. -1.
        -13    1    3    3    0    0  0.25837881123E+02  0.15760056726E+02 -0.36136776580E+02  0.47136420213E+02  0.00000000000E+00 0.  1.
         13    1    3    3    0    0 -0.66910736144E+02  0.47459604789E+02 -0.23103511887E+03  0.24516665118E+03  0.00000000000E+00 0. -1.
          3    1    1    2  501    0  0.13030689262E+03 -0.24534445501E+02  0.51077612143E+02  0.14209415098E+03  0.00000000000E+00 0. -1.
<scales pt_clust_5="13000.00000" pt_clust_6="13000.00000" pt_clust_7="13000.00000" pt_clust_8="13000.00000" pt_clust_9="102.59920"></scales>
<clustering>
<clus scale="   80.882">  5  6 -1 -1</clus>
<clus scale="   91.524">  7  8 -1 -1</clus>
<clus scale="  118.576">  2  7  1 -1</clus>
<clus scale="  102.599">  1  9  2 -1</clus>
<clus scale="  102.599">  1  5  2 -1</clus>
</clustering>
</event>
<event>
 9    2  0.3764910E-005  0.1571403E+03  0.7546771E-02  0.1193303E+00
         21   -1    0    0  501  502  0.00000000000E+00  0.00000000000E+00  0.13283605783E+03  0.13283605783E+03  0.00000000000E+00 0. -1.
          2   -1    0    0  502    0 -0.00000000000E+00 -0.00000000000E+00 -0.40914482686E+03  0.40914482686E+03  0.00000000000E+00 0. -1.
         24    2    1    2    0    0  0.76138156417E+02 -0.11011758349E+03 -0.31995638814E+03  0.35587350204E+03  0.79692898558E+02 0.  0.
         23    2    1    2    0    0 -0.47317794907E+02  0.98536198142E+02  0.57979726984E+02  0.15189991212E+03  0.88111171261E+02 0.  0.
        -13    1    3    3    0    0  0.44300086904E-01 -0.32998170434E+02 -0.15532761527E+03  0.15879404674E+03  0.00000000000E+00 0.  1.
         14    1    3    3    0    0  0.76093856331E+02 -0.77119413060E+02 -0.16462877287E+03  0.19707945529E+03  0.00000000000E+00 0. -1.
        -13    1    4    4    0    0  0.10449228247E+02  0.78587797124E+02  0.32080926573E+02  0.85524347864E+02  0.00000000000E+00 0. -1.
         13    1    4    4    0    0 -0.57767023154E+02  0.19948401018E+02  0.25898800410E+02  0.66375564254E+02  0.00000000000E+00 0.  1.
          1    1    1    2  501    0 -0.28820361510E+02  0.11581385351E+02 -0.14332107868E+02  0.34207470532E+02  0.00000000000E+00 0. -1.
<scales pt_clust_5="13000.00000" pt_clust_6="13000.00000" pt_clust_7="13000.00000" pt_clust_8="13000.00000" pt_clust_9="31.06029"></scales>
<clustering>
<clus scale="   31.060">  1  9  2 -1</clus>
<clus scale="   79.693">  5  6 -1 -1</clus>
<clus scale="   88.111">  7  8 -1 -1</clus>
<clus scale="  152.579">  2  5  1 -1</clus>
<clus scale="   31.060">  1  5  2 -1</clus>
</clustering>
</event>
<event>
 9    2  0.3764910E-005  0.1275642E+03  0.7546771E-02  0.1234538E+00
         21   -1    0    0  501  502  0.00000000000E+00  0.00000000000E+00  0.96155750910E+02  0.96155750910E+02  0.00000000000E+00 0. -1.
          2   -1    0    0  502    0 -0.00000000000E+00 -0.00000000000E+00 -0.67195576172E+03  0.67195576172E+03  0.00000000000E+00 0. -1.
         23    2    1    2    0    0 -0.81267946414E+02  0.41698768874E+02 -0.59178817534E+03  0.60601172528E+03  0.93240014328E+02 0.  0.
         24    2    1    2    0    0  0.44740023500E+02 -0.48103826803E+02 -0.24579443098E+02  0.10713575631E+03  0.80983167396E+02 0.  0.
        -11    1    4    4    0    0  0.67412245557E+02 -0.45174860093E+02 -0.15957115288E+02  0.82703133941E+02  0.00000000000E+00 0.  1.
         12    1    4    4    0    0 -0.22672222057E+02 -0.29289667099E+01 -0.86223278097E+01  0.24432622370E+02  0.00000000000E+00 0. -1.
        -11    1    3    3    0    0 -0.14921797819E+02  0.59454250600E+02 -0.25157055363E+03  0.25893090086E+03  0.00000000000E+00 0.  1.
         11    1    3    3    0    0 -0.66346148595E+02 -0.17755481727E+02 -0.34021762170E+03  0.34708082442E+03  0.00000000000E+00 0. -1.
          1    1    1    2  501    0  0.36527922914E+02  0.64050579294E+01  0.40567607624E+02  0.54964031037E+02  0.00000000000E+00 0. -1.
<scales pt_clust_5="13000.00000" pt_clust_6="13000.00000" pt_clust_7="13000.00000" pt_clust_8="13000.00000" pt_clust_9="37.08523"></scales>
<clustering>
<clus scale="   37.085">  1  9  2 -1</clus>
<clus scale="   80.983">  5  6 -1 -1</clus>
<clus scale="   93.240">  7  8 -1 -1</clus>
<clus scale="  118.900">  1  5  2 -1</clus>
<clus scale="   37.085">  1  5  2 -1</clus>
</clustering>
</event>
<event>
 9    2  0.3764910E-005  0.1769744E+03  0.7546771E-02  0.1171883E+00
          2   -1    0    0  502    0 -0.00000000000E+00  0.00000000000E+00  0.82601228188E+03  0.82601228188E+03  0.00000000000E+00 0. -1.
         21   -1    0    0  501  502  0.00000000000E+00 -0.00000000000E+00 -0.84751072089E+02  0.84751072089E+02  0.00000000000E+00 0. -1.
         23    2    1    2    0    0  0.11798737210E+03  0.19810742208E+02  0.30978842090E+03  0.34420131061E+03  0.90510723245E+02 0.  0.
         24    2    1    2    0    0 -0.23280064802E+03 -0.41314269867E+02  0.30467049652E+03  0.39415754406E+03  0.81443523191E+02 0.  0.
        -13    1    4    4    0    0 -0.60393992262E+02 -0.16387709634E+02  0.14469152358E+03  0.15764399235E+03  0.00000000000E+00 0.  1.
         14    1    4    4    0    0 -0.17240665576E+03 -0.24926560232E+02  0.15997897294E+03  0.23651355170E+03  0.00000000000E+00 0. -1.
        -13    1    3    3    0    0  0.94882378665E+02 -0.10911895796E+02  0.13583366687E+03  0.16604975250E+03  0.00000000000E+00 0.  1.
         13    1    3    3    0    0  0.23104993435E+02  0.30722638004E+02  0.17395475403E+03  0.17815155811E+03  0.00000000000E+00 0. -1.
          1    1    1    2  501    0  0.11481327592E+03  0.21503527659E+02  0.12680229237E+03  0.17240449930E+03  0.00000000000E+00 0. -1.
<scales pt_clust_5="13000.00000" pt_clust_6="13000.00000" pt_clust_7="13000.00000" pt_clust_8="13000.00000" pt_clust_9="116.80963"></scales>
<clustering>
<clus scale="   81.444">  5  6 -1 -1</clus>
<clus scale="   90.511">  7  8 -1 -1</clus>
<clus scale="  116.810">  2  9  1 -1</clus>
<clus scale="  172.513">  2  5  1 -1</clus>
<clus scale="  116.810">  2  5  1 -1</clus>
</clustering>
</event>
<event>
 9    2  0.3764910E-005  0.1228475E+03  0.7546771E-02  0.1242004E+00
         21   -1    0    0  501  502  0.00000000000E+00  0.00000000000E+00  0.69892931983E+02  0.69892931983E+02  0.00000000000E+00 0.  1.
          2   -1    0    0  502    0 -0.00000000000E+00 -0.00000000000E+00 -0.48129277738E+03  0.48129277738E+03  0.00000000000E+00 0. -1.
         24    2    1    2    0    0 -0.66436020068E+02  0.72677345493E+02 -0.19060759671E+03  0.22921083056E+03  0.80688336291E+02 0.  0.
         23    2    1    2    0    0 -0.58417413169E+01 -0.56715592395E+02 -0.23204464680E+02  0.11097775858E+03  0.92340843377E+02 0.  0.
        -11    1    3    3    0    0 -0.10341996053E+01  0.60731848455E+02 -0.95058241563E+02  0.11280734140E+03  0.00000000000E+00 0.  1.
         12    1    3    3    0    0 -0.65401820463E+02  0.11945497038E+02 -0.95549355143E+02  0.11640348916E+03  0.00000000000E+00 0. -1.
        -13    1    4    4    0    0 -0.24149176554E+02 -0.65240458022E+02 -0.43740978893E+02  0.82175259816E+02  0.00000000000E+00 0.  1.
         13    1    4    4    0    0  0.18307435237E+02  0.85248656277E+01  0.20536514213E+02  0.28802498762E+02  0.00000000000E+00 0. -1.
          1    1    1    2  501    0  0.72277761385E+02 -0.15961753099E+02 -0.19758778401E+03  0.21099712022E+03  0.00000000000E+00 0. -1.
<scales pt_clust_5="13000.00000" pt_clust_6="13000.00000" pt_clust_7="13000.00000" pt_clust_8="13000.00000" pt_clust_9="74.01931"></scales>
<clustering>
<clus scale="   74.019">  1  9  2 -1</clus>
<clus scale="   80.688">  5  6 -1 -1</clus>
<clus scale="   92.341">  7  8 -1 -1</clus>
<clus scale="  114.347">  2  5  1 -1</clus>
<clus scale="   74.019">  1  5  2 -1</clus>
</clustering>
</event>
<event>
 9    2  0.3764910E-005  0.1769453E+03  0.7546771E-02  0.1198583E+00
          2   -1    0    0  502    0 -0.00000000000E+00  0.00000000000E+00  0.47268293843E+03  0.47268293843E+03  0.00000000000E+00 0. -1.
         21   -1    0    0  501  502  0.00000000000E+00 -0.00000000000E+00 -0.11724640944E+03  0.11724640944E+03  0.00000000000E+00 0.  1.
         23    2    1    2    0    0 -0.16512520216E+02  0.35469221750E+02  0.56463062153E+02  0.11069503020E+03  0.86801977559E+02 0.  0.
         24    2    1    2    0    0 -0.92803022502E+02 -0.13281147397E+03  0.47078130453E+02  0.18789832188E+03  0.82693049259E+02 0.  0.
        -13    1    4    4    0    0 -0.40147885013E+02 -0.52484152525E+02 -0.21938867315E+02  0.69625805822E+02  0.00000000000E+00 0.  1.
         14    1    4    4    0    0 -0.52655137489E+02 -0.80327321441E+02  0.69016997767E+02  0.11827251606E+03  0.00000000000E+00 0. -1.
        -13    1    3    3    0    0  0.17540559183E+02  0.52604196328E+02  0.43337173300E+02  0.70377434433E+02  0.00000000000E+00 0.  1.
         13    1    3    3    0    0 -0.34053079399E+02 -0.17134974578E+02  0.13125888854E+02  0.40317595768E+02  0.00000000000E+00 0. -1.
          1    1    1    2  501    0  0.10931554272E+03  0.97342252217E+02  0.25189533639E+03  0.29133599579E+03  0.00000000000E+00 0. -1.
<scales pt_clust_5="13000.00000" pt_clust_6="13000.00000" pt_clust_7="13000.00000" pt_clust_8="13000.00000" pt_clust_9="156.43375"></scales>
<clustering>
<clus scale="   82.693">  5  6 -1 -1</clus>
<clus scale="   86.802">  7  8 -1 -1</clus>
<clus scale="   95.212">  1  7  2 -1</clus>
<clus scale="  156.434">  2  9  1 -1</clus>
<clus scale="  156.434">  2  5  1 -1</clus>
</clustering>
</event>
<event>
 9    2  0.3764910E-005  0.1008429E+03  0.7546771E-02  0.1284834E+00
          2   -1    0    0  502    0 -0.00000000000E+00  0.00000000000E+00  0.34821596212E+03  0.34821596212E+03  0.00000000000E+00 0. -1.
         21   -1    0    0  501  502  0.00000000000E+00 -0.00000000000E+00 -0.49168284964E+02  0.49168284964E+02  0.00000000000E+00 0. -1.
         23    2    1    2    0    0 -0.56415140590E+02 -0.11026541648E+02  0.19712755876E+03  0.22524426091E+03  0.92582125381E+02 0.  0.
         24    2    1    2    0    0  0.18711675297E+02  0.14459086755E+02  0.10502224685E+03  0.13415371415E+03  0.80052199878E+02 0.  0.
        -13    1    4    4    0    0  0.49339655426E+02  0.17804341783E+02  0.70662941383E+02  0.88003678723E+02  0.00000000000E+00 0.  1.
         14    1    4    4    0    0 -0.30627980129E+02 -0.33452550283E+01  0.34359305466E+02  0.46150035429E+02  0.00000000000E+00 0. -1.
        -13    1    3    3    0    0 -0.37866966206E+02 -0.37194975175E+02  0.18236926812E+03  0.18993662960E+03  0.00000000000E+00 0.  1.
         13    1    3    3    0    0 -0.18548174383E+02  0.26168433527E+02  0.14758290643E+02  0.35307631313E+02  0.00000000000E+00 0. -1.
          1    1    1    2  501    0  0.37703465292E+02 -0.34325451064E+01 -0.31021284596E+01  0.37986272020E+02  0.00000000000E+00 0. -1.
<scales pt_clust_5="13000.00000" pt_clust_6="13000.00000" pt_clust_7="13000.00000" pt_clust_8="13000.00000" pt_clust_9="37.85939"></scales>
<clustering>
<clus scale="   37.859">  2  9  1 -1</clus>
<clus scale="   80.052">  5  6 -1 -1</clus>
<clus scale="   89.477">  2  5  1 -1</clus>
<clus scale="   92.582">  7  8 -1 -1</clus>
<clus scale="   37.859">  2  5  1 -1</clus>
</clustering>
</event>
<event>
 9    2  0.3764910E-005  0.1538227E+03  0.7546771E-02  0.1210850E+00
         -1   -1    0    0    0  501 -0.00000000000E+00  0.00000000000E+00  0.95132556018E+02  0.95132556018E+02  0.00000000000E+00 0.  1.
         21   -1    0    0  501  502  0.00000000000E+00 -0.00000000000E+00 -0.67321284884E+03  0.67321284884E+03  0.00000000000E+00 0.  1.
         23    2    1    2    0    0 -0.33656000707E+02  0.55129411634E+02 -0.68648388397E+02  0.13073744833E+03  0.90596361706E+02 0.  0.
         24    2    1    2    0    0 -0.66113253160E+02 -0.13758285687E+03 -0.81999671462E+02  0.19100882037E+03  0.80376729146E+02 0.  0.
        -11    1    4    4    0    0 -0.38729602820E+02 -0.94464522504E+02 -0.97963037444E+01  0.10256459288E+03  0.00000000000E+00 0.  1.
         12    1    4    4    0    0 -0.27383650340E+02 -0.43118334371E+02 -0.72203367718E+02  0.88444227480E+02  0.00000000000E+00 0. -1.
        -13    1    3    3    0    0  0.30932657770E+02  0.15296205623E+02 -0.14077819523E+02  0.37269132344E+02  0.00000000000E+00 0. -1.
         13    1    3    3    0    0 -0.64588658477E+02  0.39833206011E+02 -0.54570568875E+02  0.93468315981E+02  0.00000000000E+00 0.  1.
         -2    1    1    2    0  502  0.99769253868E+02  0.82453445241E+02 -0.42743223296E+03  0.44659913617E+03  0.00000000000E+00 0.  1.
<scales pt_clust_5="13000.00000" pt_clust_6="13000.00000" pt_clust_7="13000.00000" pt_clust_8="13000.00000" pt_clust_9="131.15256"></scales>
<clustering>
<clus scale="   80.377">  5  6 -1 -1</clus>
<clus scale="   90.596">  7  8 -1 -1</clus>
<clus scale="  111.264">  1  7  2 -1</clus>
<clus scale="  131.153">  2  9  1 -1</clus>
<clus scale="  131.153">  2  5  1 -1</clus>
</clustering>
</event>
<event>
 9    2  0.3764910E-005  0.4253867E+03  0.7546771E-02  0.1035327E+00
         21   -1    0    0  501  502  0.00000000000E+00  0.00000000000E+00  0.95166858608E+03  0.95166858608E+03  0.00000000000E+00 0.  1.
          4   -1    0    0  502    0 -0.00000000000E+00 -0.00000000000E+00 -0.16734966419E+03  0.16734966419E+03  0.00000000000E+00 0. -1.
         24    2    1    2    0    0  0.23734096547E+03  0.16130165396E+03  0.30003142019E+03  0.42292730877E+03  0.80620704165E+02 0.  0.
         23    2    1    2    0    0  0.65187623279E+02  0.49578732331E+02  0.64063295460E+02  0.13700019052E+03  0.89204649258E+02 0.  0.
        -11    1    3    3    0    0  0.42022112755E+02  0.26155945173E+02  0.10318753960E+03  0.11444500756E+03  0.00000000000E+00 0.  1.
         12    1    3    3    0    0  0.19531885272E+03  0.13514570878E+03  0.19684388060E+03  0.30848230121E+03  0.00000000000E+00 0. -1.
        -11    1    4    4    0    0 -0.21416007068E+02  0.27558447675E+00  0.10242425165E+02  0.23740863060E+02  0.00000000000E+00 0.  1.
         11    1    4    4    0    0  0.86603630347E+02  0.49303147854E+02  0.53820870295E+02  0.11325932746E+03  0.00000000000E+00 0. -1.
          3    1    1    2  501    0 -0.30252858875E+03 -0.21088038629E+03  0.42022420623E+03  0.55909075098E+03  0.00000000000E+00 0. -1.
<scales pt_clust_5="13000.00000" pt_clust_6="13000.00000" pt_clust_7="13000.00000" pt_clust_8="13000.00000" pt_clust_9="368.77376"></scales>
<clustering>
<clus scale="   80.621">  5  6 -1 -1</clus>
<clus scale="   89.205">  7  8 -1 -1</clus>
<clus scale="   99.923">  5  7 -1 -1</clus>
<clus scale="  368.774">  1  9  2 -1</clus>
<clus scale="  368.774">  1  5  2 -1</clus>
</clustering>
</event>
<event>
 9    2  0.3764910E-005  0.9689184E+02  0.7546771E-02  0.1292434E+00
          2   -1    0    0  502    0 -0.00000000000E+00  0.00000000000E+00  0.12386891829E+04  0.12386891829E+04  0.00000000000E+00 0. -1.
         21   -1    0    0  501  502  0.00000000000E+00 -0.00000000000E+00 -0.16938562702E+02  0.16938562702E+02  0.00000000000E+00 0.  1.
         23    2    1    2    0    0  0.11587197409E+02 -0.70965571226E+02  0.64223393000E+03  0.65266130877E+03  0.91279722210E+02 0.  0.
         24    2    1    2    0    0 -0.12613531625E+02 -0.11930856979E+02  0.31511313365E+03  0.32587058358E+03  0.81202855337E+02 0.  0.
        -13    1    4    4    0    0  0.19640876301E+02  0.38295912084E+01  0.19015528937E+02  0.27604712124E+02  0.00000000000E+00 0.  1.
         14    1    4    4    0    0 -0.32254407927E+02 -0.15760448188E+02  0.29609760472E+03  0.29826587146E+03  0.00000000000E+00 0. -1.
        -13    1    3    3    0    0  0.25405751141E+02 -0.89513967686E+02  0.50944105298E+03  0.51786908487E+03  0.00000000000E+00 0.  1.
         13    1    3    3    0    0 -0.13818553732E+02  0.18548396460E+02  0.13279287702E+03  0.13479222391E+03  0.00000000000E+00 0. -1.
          1    1    1    2  501    0  0.10263342167E+01  0.82896428205E+02  0.26440355652E+03  0.27709585322E+03  0.00000000000E+00 0. -1.
<scales pt_clust_5="13000.00000" pt_clust_6="13000.00000" pt_clust_7="13000.00000" pt_clust_8="13000.00000" pt_clust_9="82.90278"></scales>
<clustering>
<clus scale="   81.203">  5  6 -1 -1</clus>
<clus scale="   82.903">  2  9  1 -1</clus>
<clus scale="   87.464">  2  5  1 -1</clus>
<clus scale="   91.280">  7  8 -1 -1</clus>
<clus scale="   82.903">  2  5  1 -1</clus>
</clustering>
</event>
<event>
 9    2  0.3764910E-005  0.1084351E+03  0.7546771E-02  0.1270079E+00
         21   -1    0    0  501  502  0.00000000000E+00  0.00000000000E+00  0.46773869958E+02  0.46773869958E+02  0.00000000000E+00 0. -1.
         -3   -1    0    0    0  501 -0.00000000000E+00 -0.00000000000E+00 -0.34125396577E+03  0.34125396577E+03  0.00000000000E+00 0.  1.
         23    2    1    2    0    0  0.52302325664E+02 -0.11167767451E+02 -0.21681518726E+03  0.24333635823E+03  0.96661809975E+02 0.  0.
         24    2    1    2    0    0 -0.33129821704E+02  0.31592248039E+02 -0.64264316304E+02  0.11363797226E+03  0.81780383750E+02 0.  0.
        -11    1    4    4    0    0  0.47497028626E+01 -0.24973178554E+02 -0.21032503128E+02  0.32993719284E+02  0.00000000000E+00 0.  1.
         12    1    4    4    0    0 -0.37879524567E+02  0.56565426593E+02 -0.43231813176E+02  0.80644252972E+02  0.00000000000E+00 0. -1.
        -11    1    3    3    0    0  0.48616372895E+02  0.15205400915E+02 -0.20966426857E+03  0.21576343862E+03  0.00000000000E+00 0.  1.
         11    1    3    3    0    0  0.36859527683E+01 -0.26373168366E+02 -0.71509186940E+01  0.27572919607E+02  0.00000000000E+00 0. -1.
         -4    1    1    2    0  502 -0.19172503960E+02 -0.20424480587E+02 -0.13400592244E+02  0.31053505242E+02  0.00000000000E+00 0.  1.
<scales pt_clust_5="13000.00000" pt_clust_6="13000.00000" pt_clust_7="13000.00000" pt_clust_8="13000.00000" pt_clust_9="28.01329"></scales>
<clustering>
<clus scale="   28.013">  1  9  2 -1</clus>
<clus scale="   81.780">  5  6 -1 -1</clus>
<clus scale="   95.408">  1  5  2 -1</clus>
<clus scale="   96.662">  7  8 -1 -1</clus>
<clus scale="   28.013">  1  5  2 -1</clus>
</clustering>
</event>
<event>
 9    2  0.3764910E-005  0.1177892E+03  0.7546771E-02  0.1250635E+00
         21   -1    0    0  501  502  0.00000000000E+00  0.00000000000E+00  0.52047556985E+03  0.52047556985E+03  0.00000000000E+00 0. -1.
         -1   -1    0    0    0  501 -0.00000000000E+00 -0.00000000000E+00 -0.25145153201E+03  0.25145153201E+03  0.00000000000E+00 0.  1.
         23    2    1    2    0    0  0.11073898487E+02  0.76162200288E+02 -0.21644094305E+03  0.24726856253E+03  0.91497257931E+02 0.  0.
         24    2    1    2    0    0  0.48945216997E+02 -0.49092312150E+02  0.15486269965E+03  0.18756368408E+03  0.79949924742E+02 0.  0.
        -13    1    4    4    0    0  0.29877922810E+02 -0.30505230230E+01  0.60606271280E+01  0.30638654724E+02  0.00000000000E+00 0.  1.
         14    1    4    4    0    0  0.19067294187E+02 -0.46041789127E+02  0.14880207252E+03  0.15692502936E+03  0.00000000000E+00 0. -1.
        -11    1    3    3    0    0 -0.36208149477E+02  0.39768932637E+02 -0.14214624936E+03  0.15198076951E+03  0.00000000000E+00 0.  1.
         11    1    3    3    0    0  0.47282047964E+02  0.36393267651E+02 -0.74294693681E+02  0.95287793023E+02  0.00000000000E+00 0. -1.
         -2    1    1    2    0  502 -0.60019115483E+02 -0.27069888138E+02  0.33060228124E+03  0.33709485524E+03  0.00000000000E+00 0.  1.
<scales pt_clust_5="13000.00000" pt_clust_6="13000.00000" pt_clust_7="13000.00000" pt_clust_8="13000.00000" pt_clust_9="65.84127"></scales>
<clustering>
<clus scale="   65.841">  1  9  2 -1</clus>
<clus scale="   79.950">  5  6 -1 -1</clus>
<clus scale="   91.497">  7  8 -1 -1</clus>
<clus scale="  109.062">  1  5  2 -1</clus>
<clus scale="   65.841">  1  5  2 -1</clus>
</clustering>
</event>
<event>
 9    2  0.3764910E-005  0.1193598E+03  0.7546771E-02  0.1250367E+00
         21   -1    0    0  501  502  0.00000000000E+00  0.00000000000E+00  0.68444205879E+03  0.68444205879E+03  0.00000000000E+00 0. -1.
          2   -1    0    0  502    0 -0.00000000000E+00 -0.00000000000E+00 -0.21928898113E+03  0.21928898113E+03  0.00000000000E+00 0. -1.
         23    2    1    2    0    0  0.50223611792E+02  0.52488026937E+01 -0.78034376220E+02  0.13004366854E+03  0.90950705018E+02 0.  0.
         24    2    1    2    0    0 -0.12549765985E+03  0.61177838660E+01 -0.66560293849E+02  0.15920572197E+03  0.71617730238E+02 0.  0.
        -11    1    4    4    0    0 -0.36117549452E+02  0.32279148650E+02 -0.38690268954E+02  0.61994820169E+02  0.00000000000E+00 0.  1.
         12    1    4    4    0    0 -0.89380110396E+02 -0.26161364784E+02 -0.27870024895E+02  0.97210901803E+02  0.00000000000E+00 0. -1.
        -11    1    3    3    0    0  0.94074020889E+01 -0.40700746365E+02 -0.39568717145E+02  0.57538972404E+02  0.00000000000E+00 0.  1.
         11    1    3    3    0    0  0.40816209703E+02  0.45949549059E+02 -0.38465659074E+02  0.72504696133E+02  0.00000000000E+00 0. -1.
          1    1    1    2  501    0  0.75274048056E+02 -0.11366586560E+02  0.60974774773E+03  0.61448164941E+03  0.00000000000E+00 0. -1.
<scales pt_clust_5="13000.00000" pt_clust_6="13000.00000" pt_clust_7="13000.00000" pt_clust_8="13000.00000" pt_clust_9="76.12740"></scales>
<clustering>
<clus scale="   71.618">  5  6 -1 -1</clus>
<clus scale="   76.127">  1  9  2 -1</clus>
<clus scale="   90.951">  7  8 -1 -1</clus>
<clus scale="  105.375">  1  5  2 -1</clus>
<clus scale="   76.127">  1  5  2 -1</clus>
</clustering>
</event>
<event>
 9    2  0.3764910E-005  0.3117874E+03  0.7546771E-02  0.1079812E+00
          2   -1    0    0  502    0 -0.00000000000E+00  0.00000000000E+00  0.12733064733E+04  0.12733064733E+04  0.00000000000E+00 0. -1.
         21   -1    0    0  501  502  0.00000000000E+00 -0.00000000000E+00 -0.10973640199E+03  0.10973640199E+03  0.00000000000E+00 0. -1.
         23    2    1    2    0    0  0.21798369717E+01 -0.32751610356E+03  0.49557840585E+03  0.60082478257E+03  0.90116109654E+02 0.  0.
         24    2    1    2    0    0 -0.20103056477E+02  0.26801904880E+03  0.30679668961E+03  0.41571713514E+03  0.80362829072E+02 0.  0.
        -13    1    4    4    0    0 -0.14121831700E+01  0.40418681144E+02  0.99071310892E+02  0.10700835803E+03  0.00000000000E+00 0.  1.
         14    1    4    4    0    0 -0.18690873307E+02  0.22760036766E+03  0.20772537872E+03  0.30870877711E+03  0.00000000000E+00 0. -1.
        -13    1    3    3    0    0 -0.22280223487E+02 -0.28975817943E+03  0.39268528908E+03  0.48852630140E+03  0.00000000000E+00 0. -1.
         13    1    3    3    0    0  0.24460060459E+02 -0.37757924136E+02  0.10289311678E+03  0.11229848117E+03  0.00000000000E+00 0.  1.
          1    1    1    2  501    0  0.17923219506E+02  0.59497054762E+02  0.36119497583E+03  0.36650095755E+03  0.00000000000E+00 0. -1.
<scales pt_clust_5="13000.00000" pt_clust_6="13000.00000" pt_clust_7="13000.00000" pt_clust_8="13000.00000" pt_clust_9="62.13811"></scales>
<clustering>
<clus scale="   62.138">  2  9  1 -1</clus>
<clus scale="   80.363">  5  6 -1 -1</clus>
<clus scale="   90.116">  7  8 -1 -1</clus>
<clus scale="  309.109">  2  5  1 -1</clus>
<clus scale="   62.138">  2  5  1 -1</clus>
</clustering>
</event>
<event>
 9    2  0.3764910E-005  0.1626628E+03  0.7546771E-02  0.1188966E+00
         21   -1    0    0  501  502  0.00000000000E+00  0.00000000000E+00  0.80636640380E+03  0.80636640380E+03  0.00000000000E+00 0. -1.
         -3   -1    0    0    0  501 -0.00000000000E+00 -0.00000000000E+00 -0.42339806331E+02  0.42339806331E+02  0.00000000000E+00 0.  1.
         23    2    1    2    0    0 -0.18801045461E+02 -0.13281456502E+03  0.23697939922E+03  0.28724010112E+03  0.91402691692E+02 0.  0.
         24    2    1    2    0    0 -0.17322705587E+02  0.13731519835E+03  0.45732350225E+03  0.48281132610E+03  0.69328573286E+02 0.  0.
        -13    1    4    4    0    0 -0.21913738276E+02  0.11446966505E+02  0.41248355227E+02  0.48090246166E+02  0.00000000000E+00 0.  1.
         14    1    4    4    0    0  0.45910326885E+01  0.12586823185E+03  0.41607514702E+03  0.43472107994E+03  0.00000000000E+00 0. -1.
        -11    1    3    3    0    0  0.14653573768E+01 -0.13807087858E+03  0.18230310884E+03  0.22869223484E+03  0.00000000000E+00 0.  1.
         11    1    3    3    0    0 -0.20266402837E+02  0.52563135668E+01  0.54676290383E+02  0.58547866283E+02  0.00000000000E+00 0. -1.
         -4    1    1    2    0  502  0.36123751048E+02 -0.45006333327E+01  0.69723696000E+02  0.78654782906E+02  0.00000000000E+00 0.  1.
<scales pt_clust_5="13000.00000" pt_clust_6="13000.00000" pt_clust_7="13000.00000" pt_clust_8="13000.00000" pt_clust_9="36.40306"></scales>
<clustering>
<clus scale="   36.403">  1  9  2 -1</clus>
<clus scale="   69.329">  5  6 -1 -1</clus>
<clus scale="   91.403">  7  8 -1 -1</clus>
<clus scale="  151.364">  1  5  2 -1</clus>
<clus scale="   36.403">  1  5  2 -1</clus>
</clustering>
</event>
<event>
 9    2  0.3764910E-005  0.2525163E+03  0.7546771E-02  0.1112540E+00
          2   -1    0    0  502    0 -0.00000000000E+00  0.00000000000E+00  0.79030931818E+03  0.79030931818E+03  0.00000000000E+00 0. -1.
         21   -1    0    0  501  502  0.00000000000E+00 -0.00000000000E+00 -0.19237628307E+03  0.19237628307E+03  0.00000000000E+00 0. -1.
         24    2    1    2    0    0 -0.76754503981E+02  0.22822939496E+03  0.49853822391E+03  0.55891141745E+03  0.76561747988E+02 0.  0.
         23    2    1    2    0    0  0.55011648466E+02 -0.19829987750E+03 -0.81104936239E+02  0.23952249016E+03  0.91890640034E+02 0.  0.
        -13    1    3    3    0    0  0.25531492573E+01  0.20703979075E+02  0.10447504370E+03  0.10653735532E+03  0.00000000000E+00 0.  1.
         14    1    3    3    0    0 -0.79307653238E+02  0.20752541589E+03  0.39406318020E+03  0.45237406213E+03  0.00000000000E+00 0. -1.
        -13    1    4    4    0    0 -0.23982775786E+02 -0.48437399428E+02 -0.65848705823E+01  0.54449203101E+02  0.00000000000E+00 0.  1.
         13    1    4    4    0    0  0.78994424252E+02 -0.14986247807E+03 -0.74520065657E+02  0.18507328706E+03  0.00000000000E+00 0. -1.
          1    1    1    2  501    0  0.21742855515E+02 -0.29929517462E+02  0.18049974745E+03  0.18425169364E+03  0.00000000000E+00 0. -1.
<scales pt_clust_5="13000.00000" pt_clust_6="13000.00000" pt_clust_7="13000.00000" pt_clust_8="13000.00000" pt_clust_9="36.99364"></scales>
<clustering>
<clus scale="   36.994">  2  9  1 -1</clus>
<clus scale="   76.562">  5  6 -1 -1</clus>
<clus scale="   91.891">  7  8 -1 -1</clus>
<clus scale="  247.351">  1  5  2 -1</clus>
<clus scale="   36.994">  2  5  1 -1</clus>
</clustering>
</event>
<event>
 9    2  0.3764910E-005  0.1356007E+03  0.7546771E-02  0.1231413E+00
          2   -1    0    0  502    0 -0.00000000000E+00  0.00000000000E+00  0.47195952086E+03  0.47195952086E+03  0.00000000000E+00 0. -1.
         21   -1    0    0  501  502  0.00000000000E+00 -0.00000000000E+00 -0.10526278076E+03  0.10526278076E+03  0.00000000000E+00 0. -1.
         23    2    1    2    0    0  0.27835279197E+02  0.42916342773E+02  0.27980579548E+03  0.29905297219E+03  0.92329744652E+02 0.  0.
         24    2    1    2    0    0  0.38090449800E+02  0.42120764969E+02  0.12223009395E+03  0.16491577800E+03  0.95036712697E+02 0.  0.
        -13    1    4    4    0    0 -0.28306911209E+02 -0.42383519417E+01  0.22244839927E+02  0.36250210382E+02  0.00000000000E+00 0.  1.
         14    1    4    4    0    0  0.66397361009E+02  0.46359116911E+02  0.99985254018E+02  0.12866556762E+03  0.00000000000E+00 0. -1.
        -11    1    3    3    0    0 -0.28426783861E+02  0.46669110174E+01  0.36976637255E+02  0.46873593864E+02  0.00000000000E+00 0.  1.
         11    1    3    3    0    0  0.56262063058E+02  0.38249431756E+02  0.24282915822E+03  0.25217937833E+03  0.00000000000E+00 0. -1.
          1    1    1    2  501    0 -0.65925728997E+02 -0.85037107742E+02 -0.35339149327E+02  0.11325355143E+03  0.00000000000E+00 0. -1.
<scales pt_clust_5="13000.00000" pt_clust_6="13000.00000" pt_clust_7="13000.00000" pt_clust_8="13000.00000" pt_clust_9="96.72427"></scales>
<clustering>
<clus scale="   92.330">  7  8 -1 -1</clus>
<clus scale="   95.037">  5  6 -1 -1</clus>
<clus scale="  105.553">  1  7  2 -1</clus>
<clus scale="   96.724">  2  9  1 -1</clus>
<clus scale="   96.724">  2  5  1 -1</clus>
</clustering>
</event>
<event>
 9    2  0.3764910E-005  0.1040798E+03  0.7546771E-02  0.1275739E+00
         21   -1    0    0  501  502  0.00000000000E+00  0.00000000000E+00  0.18469433692E+03  0.18469433692E+03  0.00000000000E+00 0.  1.
          2   -1    0    0  502    0 -0.00000000000E+00 -0.00000000000E+00 -0.14083316095E+03  0.14083316095E+03  0.00000000000E+00 0. -1.
         24    2    1    2    0    0 -0.21380412044E+02  0.44240867961E+02 -0.81490898741E+02  0.12610511958E+03  0.82748765491E+02 0.  0.
         23    2    1    2    0    0  0.42989016771E+02 -0.37845888746E+02  0.46310591571E+02  0.11723123756E+03  0.91203757105E+02 0.  0.
        -13    1    3    3    0    0  0.27296936996E+02 -0.40492551870E+01 -0.21155056389E+02  0.34771477503E+02  0.00000000000E+00 0.  1.
         14    1    3    3    0    0 -0.48677349040E+02  0.48290123148E+02 -0.60335842352E+02  0.91333642080E+02  0.00000000000E+00 0. -1.
        -13    1    4    4    0    0 -0.20687875042E+02 -0.20772270122E+02  0.41926332227E+02  0.51159483127E+02  0.00000000000E+00 0.  1.
         13    1    4    4    0    0  0.63676891812E+02 -0.17073618624E+02  0.43842593437E+01  0.66071754432E+02  0.00000000000E+00 0. -1.
          1    1    1    2  501    0 -0.21608604727E+02 -0.63949792157E+01  0.79041483141E+02  0.82191140731E+02  0.00000000000E+00 0. -1.
<scales pt_clust_5="13000.00000" pt_clust_6="13000.00000" pt_clust_7="13000.00000" pt_clust_8="13000.00000" pt_clust_9="22.53503"></scales>
<clustering>
<clus scale="   22.535">  1  9  2 -1</clus>
<clus scale="   82.749">  5  6 -1 -1</clus>
<clus scale="   91.204">  7  8 -1 -1</clus>
<clus scale="   96.757">  2  5  1 -1</clus>
<clus scale="   22.535">  1  5  2 -1</clus>
</clustering>
</event>
<event>
 9    2  0.3764910E-005  0.1007365E+03  0.7546771E-02  0.1283524E+00
         21   -1    0    0  501  502  0.00000000000E+00  0.00000000000E+00  0.90217190547E+02  0.90217190547E+02  0.00000000000E+00 0.  1.
         -3   -1    0    0    0  501 -0.00000000000E+00 -0.00000000000E+00 -0.19802524711E+03  0.19802524711E+03  0.00000000000E+00 0.  1.
         24    2    1    2    0    0 -0.25436201831E+02 -0.13547069049E+02 -0.60314856444E+02  0.10531610824E+03  0.81382291097E+02 0.  0.
         23    2    1    2    0    0  0.36750349097E+02  0.52791219497E+02 -0.74342332935E+02  0.13404904219E+03  0.91131016850E+02 0.  0.
        -13    1    3    3    0    0 -0.20476488098E+02  0.45294828994E+01 -0.77255055249E+02  0.80050898444E+02  0.00000000000E+00 0.  1.
         14    1    3    3    0    0 -0.49597137328E+01 -0.18076551948E+02  0.16940198805E+02  0.25265209799E+02  0.00000000000E+00 0. -1.
        -11    1    4    4    0    0  0.62729045163E+02  0.13148823864E+02 -0.44844729113E+02  0.78223234434E+02  0.00000000000E+00 0. -1.
         11    1    4    4    0    0 -0.25978696066E+02  0.39642395633E+02 -0.29497603823E+02  0.55825807760E+02  0.00000000000E+00 0.  1.
         -4    1    1    2    0  502 -0.11314147266E+02 -0.39244150448E+02  0.26849132818E+02  0.48877287219E+02  0.00000000000E+00 0.  1.
<scales pt_clust_5="13000.00000" pt_clust_6="13000.00000" pt_clust_7="13000.00000" pt_clust_8="13000.00000" pt_clust_9="40.84254"></scales>
<clustering>
<clus scale="   40.843">  1  9  2 -1</clus>
<clus scale="   81.382">  5  6 -1 -1</clus>
<clus scale="   91.131">  7  8 -1 -1</clus>
<clus scale="   92.011">  2  5  1 -1</clus>
<clus scale="   40.843">  1  5  2 -1</clus>
</clustering>
</event>
<event>
 9    2  0.3764910E-005  0.1517810E+03  0.7546771E-02  0.1203014E+00
         21   -1    0    0  501  502  0.00000000000E+00  0.00000000000E+00  0.68663342014E+03  0.68663342014E+03  0.00000000000E+00 0.  1.
         -3   -1    0    0    0  501 -0.00000000000E+00 -0.00000000000E+00 -0.98947252487E+02  0.98947252487E+02  0.00000000000E+00 0.  1.
         23    2    1    2    0    0  0.96729596844E+02 -0.20501269471E+02  0.36523601028E+03  0.39009607165E+03  0.94871939796E+02 0.  0.
         24    2    1    2    0    0  0.27247676746E+02 -0.10891032768E+03  0.14576386038E+03  0.20055252565E+03  0.79814266834E+02 0.  0.
        -13    1    4    4    0    0  0.51761214613E+02 -0.45002455542E+02  0.62788312349E+02  0.92988260070E+02  0.00000000000E+00 0.  1.
         14    1    4    4    0    0 -0.24513537868E+02 -0.63907872135E+02  0.82975548027E+02  0.10756426558E+03  0.00000000000E+00 0. -1.
        -13    1    3    3    0    0  0.87042757514E+02 -0.45470483007E+02  0.33767640326E+03  0.35166654629E+03  0.00000000000E+00 0.  1.
         13    1    3    3    0    0  0.96868393294E+01  0.24969213536E+02  0.27559607020E+02  0.38429525367E+02  0.00000000000E+00 0. -1.
         -4    1    1    2    0  502 -0.12397727359E+03  0.12941159715E+03  0.76686297004E+02  0.19493207533E+03  0.00000000000E+00 0.  1.
<scales pt_clust_5="13000.00000" pt_clust_6="13000.00000" pt_clust_7="13000.00000" pt_clust_8="13000.00000" pt_clust_9="129.10136"></scales>
<clustering>
<clus scale="   79.814">  5  6 -1 -1</clus>
<clus scale="   94.872">  7  8 -1 -1</clus>
<clus scale="  137.031">  2  7  1 -1</clus>
<clus scale="  129.101">  1  9  2 -1</clus>
<clus scale="  129.101">  1  5  2 -1</clus>
</clustering>
</event>
<event>
 9    2  0.3764910E-005  0.9701521E+02  0.7546771E-02  0.1291915E+00
          2   -1    0    0  502    0 -0.00000000000E+00  0.00000000000E+00  0.28832225039E+03  0.28832225039E+03  0.00000000000E+00 0. -1.
         21   -1    0    0  501  502  0.00000000000E+00 -0.00000000000E+00 -0.30609767727E+03  0.30609767727E+03  0.00000000000E+00 0. -1.
         23    2    1    2    0    0  0.21370400399E+02  0.23682969558E+02  0.26445304107E+03  0.28157620943E+03  0.91280741254E+02 0.  0.
         24    2    1    2    0    0 -0.52815655252E+02 -0.26030338880E+02 -0.18459963144E+03  0.21024886498E+03  0.81611820938E+02 0.  0.
        -13    1    4    4    0    0 -0.17235649952E+02  0.28699268792E+02 -0.44487692958E+02  0.55676480521E+02  0.00000000000E+00 0.  1.
         14    1    4    4    0    0 -0.35580005300E+02 -0.54729607672E+02 -0.14011193848E+03  0.15457238446E+03  0.00000000000E+00 0. -1.
        -13    1    3    3    0    0 -0.34512017361E+02  0.28251060337E+01  0.12909307098E+03  0.13365658061E+03  0.00000000000E+00 0.  1.
         13    1    3    3    0    0  0.55882417760E+02  0.20857863524E+02  0.13535997009E+03  0.14791962881E+03  0.00000000000E+00 0. -1.
          1    1    1    2  501    0  0.31445254853E+02  0.23473693223E+01 -0.97628836515E+02  0.10259485326E+03  0.00000000000E+00 0. -1.
<scales pt_clust_5="13000.00000" pt_clust_6="13000.00000" pt_clust_7="13000.00000" pt_clust_8="13000.00000" pt_clust_9="31.53275"></scales>
<clustering>
<clus scale="   31.533">  2  9  1 -1</clus>
<clus scale="   81.612">  5  6 -1 -1</clus>
<clus scale="   87.979">  2  5  1 -1</clus>
<clus scale="   91.281">  7  8 -1 -1</clus>
<clus scale="   31.533">  2  5  1 -1</clus>
</clustering>
</event>
<event>
 9    2  0.3764910E-005  0.1024129E+03  0.7546771E-02  0.1278947E+00
         -1   -1    0    0    0  501 -0.00000000000E+00  0.00000000000E+00  0.10905621376E+03  0.10905621376E+03  0.00000000000E+00 0.  1.
         21   -1    0    0  501  502  0.00000000000E+00 -0.00000000000E+00 -0.22898126756E+03  0.22898126756E+03  0.00000000000E+00 0. -1.
         24    2    1    2    0    0  0.36642419611E+02 -0.36252784324E+02  0.63396022446E+02  0.11577522590E+03  0.82023874481E+02 0.  0.
         23    2    1    2    0    0 -0.28718900395E+02  0.14503644719E+02 -0.17139435411E+03  0.19622278669E+03  0.89956803224E+02 0.  0.
        -13    1    3    3    0    0  0.39658204659E+02  0.15184473893E+02  0.14863571155E+02  0.44991856948E+02  0.00000000000E+00 0.  1.
         14    1    3    3    0    0 -0.30157850472E+01 -0.51437258217E+02  0.48532451291E+02  0.70783368955E+02  0.00000000000E+00 0. -1.
        -11    1    4    4    0    0  0.29992326276E+01  0.32207926157E+02 -0.14982913767E+02  0.35648753255E+02  0.00000000000E+00 0.  1.
         11    1    4    4    0    0 -0.31718133022E+02 -0.17704281438E+02 -0.15641144035E+03  0.16057403344E+03  0.00000000000E+00 0. -1.
         -2    1    1    2    0  502 -0.79235192169E+01  0.21749139605E+02 -0.11926722132E+02  0.26039468719E+02  0.00000000000E+00 0.  1.
<scales pt_clust_5="13000.00000" pt_clust_6="13000.00000" pt_clust_7="13000.00000" pt_clust_8="13000.00000" pt_clust_9="23.14751"></scales>
<clustering>
<clus scale="   23.148">  2  9  1 -1</clus>
<clus scale="   82.024">  5  6 -1 -1</clus>
<clus scale="   89.957">  7  8 -1 -1</clus>
<clus scale="   95.520">  1  5  2 -1</clus>
<clus scale="   23.148">  2  5  1 -1</clus>
</clustering>
</event>
<event>
 9    2  0.3764910E-005  0.1329286E+03  0.7546771E-02  0.1235429E+00
          2   -1    0    0  502    0 -0.00000000000E+00  0.00000000000E+00  0.47602530862E+03  0.47602530862E+03  0.00000000000E+00 0. -1.
         21   -1    0    0  501  502  0.00000000000E+00 -0.00000000000E+00 -0.13866835856E+03  0.13866835856E+03  0.00000000000E+00 0. -1.
         23    2    1    2    0    0  0.27737529250E+02 -0.62572009858E+02  0.39760415890E+03  0.42115876691E+03  0.12083465075E+03 0.  0.
         24    2    1    2    0    0  0.37944632606E+02  0.53141198453E+01 -0.18385786372E+02  0.96865406386E+02  0.87045015943E+02 0.  0.
        -11    1    4    4    0    0 -0.24150483019E+02  0.19929422244E+02 -0.58657842727E+01  0.31856476990E+02  0.00000000000E+00 0.  1.
         12    1    4    4    0    0  0.62095115626E+02 -0.14615302399E+02 -0.12520002099E+02  0.65008929397E+02  0.00000000000E+00 0. -1.
        -11    1    3    3    0    0 -0.38430011286E+02 -0.53587676279E+02  0.13566944211E+03  0.15084661859E+03  0.00000000000E+00 0.  1.
         11    1    3    3    0    0  0.66167540536E+02 -0.89843335792E+01  0.26193471679E+03  0.27031214832E+03  0.00000000000E+00 0. -1.
          1    1    1    2  501    0 -0.65682161856E+02  0.57257890013E+02 -0.41861422473E+02  0.96669493876E+02  0.00000000000E+00 0. -1.
<scales pt_clust_5="13000.00000" pt_clust_6="13000.00000" pt_clust_7="13000.00000" pt_clust_8="13000.00000" pt_clust_9="87.13560"></scales>
<clustering>
<clus scale="   87.045">  5  6 -1 -1</clus>
<clus scale="   87.136">  2  9  1 -1</clus>
<clus scale="  103.179">  2  5  1 -1</clus>
<clus scale="  120.835">  7  8 -1 -1</clus>
<clus scale="   87.136">  2  5  1 -1</clus>
</clustering>
</event>
<event>
 9    2  0.3764910E-005  0.9140124E+02  0.7546771E-02  0.1304951E+00
          2   -1    0    0  502    0 -0.00000000000E+00  0.00000000000E+00  0.19297128139E+03  0.19297128139E+03  0.00000000000E+00 0. -1.
         21   -1    0    0  501  502  0.00000000000E+00 -0.00000000000E+00 -0.12385019371E+03  0.12385019371E+03  0.00000000000E+00 0. -1.
         24    2    1    2    0    0 -0.30371599224E+02 -0.11064531839E+02  0.10480007958E+03  0.13466865267E+03  0.78151976485E+02 0.  0.
         23    2    1    2    0    0 -0.15098305367E+02  0.44351741451E+02  0.22003724838E+02  0.10151259452E+03  0.87324722417E+02 0.  0.
        -13    1    3    3    0    0  0.10164210667E+02 -0.33453665732E+02  0.27184505635E+02  0.44288331150E+02  0.00000000000E+00 0.  1.
         14    1    3    3    0    0 -0.40535809890E+02  0.22389133893E+02  0.77615573940E+02  0.90380321520E+02  0.00000000000E+00 0. -1.
        -11    1    4    4    0    0 -0.36046894997E+02  0.59306206999E+02  0.29059703182E+01  0.69462576191E+02  0.00000000000E+00 0. -1.
         11    1    4    4    0    0  0.20948589630E+02 -0.14954465549E+02  0.19097754520E+02  0.32050018331E+02  0.00000000000E+00 0.  1.
          1    1    1    2  501    0  0.45469904591E+02 -0.33287209612E+02 -0.57682716730E+02  0.80640227905E+02  0.00000000000E+00 0. -1.
<scales pt_clust_5="13000.00000" pt_clust_6="13000.00000" pt_clust_7="13000.00000" pt_clust_8="13000.00000" pt_clust_9="56.35202"></scales>
<clustering>
<clus scale="   56.352">  2  9  1 -1</clus>
<clus scale="   78.152">  5  6 -1 -1</clus>
<clus scale="   82.682">  1  5  2 -1</clus>
<clus scale="   87.325">  7  8 -1 -1</clus>
<clus scale="   56.352">  2  5  1 -1</clus>
</clustering>
</event>
<event>
 9    2  0.3764910E-005  0.8599958E+02  0.7546771E-02  0.1313997E+00
         21   -1    0    0  501  502  0.00000000000E+00  0.00000000000E+00  0.82094284075E+02  0.82094284075E+02  0.00000000000E+00 0.  1.
         -1   -1    0    0    0  501 -0.00000000000E+00 -0.00000000000E+00 -0.46090797632E+03  0.46090797632E+03  0.00000000000E+00 0.  1.
         23    2    1    2    0    0 -0.13718298662E+02  0.24406206337E+02 -0.36633300724E+03  0.37630046693E+03  0.81353024514E+02 0.  0.
         24    2    1    2    0    0  0.38922837237E+02 -0.59755820387E+01 -0.61962431558E+02  0.10819196592E+03  0.79469891946E+02 0.  0.
        -11    1    4    4    0    0  0.32813101125E+02  0.32303863799E+02 -0.17639065684E+02  0.49308983563E+02  0.00000000000E+00 0.  1.
         12    1    4    4    0    0  0.61097361127E+01 -0.38279445838E+02 -0.44323365874E+02  0.58882982358E+02  0.00000000000E+00 0. -1.
        -13    1    3    3    0    0  0.33516677220E+02  0.42647600995E+01 -0.11960978411E+03  0.12429020994E+03  0.00000000000E+00 0. -1.
         13    1    3    3    0    0 -0.47234975882E+02  0.20141446238E+02 -0.24672322312E+03  0.25201025700E+03  0.00000000000E+00 0.  1.
         -2    1    1    2    0  502 -0.25204538575E+02 -0.18430624299E+02  0.49481746552E+02  0.58509827539E+02  0.00000000000E+00 0.  1.
<scales pt_clust_5="13000.00000" pt_clust_6="13000.00000" pt_clust_7="13000.00000" pt_clust_8="13000.00000" pt_clust_9="31.22430"></scales>
<clustering>
<clus scale="   31.224">  1  9  2 -1</clus>
<clus scale="   79.470">  5  6 -1 -1</clus>
<clus scale="   81.353">  7  8 -1 -1</clus>
<clus scale="   84.220">  1  5  2 -1</clus>
<clus scale="   31.224">  1  5  2 -1</clus>
</clustering>
</event>
<event>
 9    2  0.3764910E-005  0.9248597E+02  0.7546771E-02  0.1304605E+00
         21   -1    0    0  501  502  0.00000000000E+00  0.00000000000E+00  0.54732141852E+02  0.54732141852E+02  0.00000000000E+00 0.  1.
          2   -1    0    0  502    0 -0.00000000000E+00 -0.00000000000E+00 -0.23836853759E+03  0.23836853759E+03  0.00000000000E+00 0. -1.
         23    2    1    2    0    0 -0.19578462204E+01  0.17631573233E+02 -0.71886025791E+02  0.11833180598E+03  0.92304442287E+02 0.  0.
         24    2    1    2    0    0  0.94640647016E+01  0.23247984645E+02 -0.42714457304E+02  0.94186997071E+02  0.80103859107E+02 0.  0.
        -13    1    4    4    0    0  0.12141820609E+02  0.50440789545E+02 -0.12336257861E+02  0.53328044363E+02  0.00000000000E+00 0.  1.
         14    1    4    4    0    0 -0.26777559073E+01 -0.27192804900E+02 -0.30378199442E+02  0.40858952708E+02  0.00000000000E+00 0. -1.
        -11    1    3    3    0    0  0.28063255889E+02  0.43133436371E+02 -0.55452820300E+02  0.75650875365E+02  0.00000000000E+00 0. -1.
         11    1    3    3    0    0 -0.30021102109E+02 -0.25501863138E+02 -0.16433205491E+02  0.42680930614E+02  0.00000000000E+00 0.  1.
          1    1    1    2  501    0 -0.75062184812E+01 -0.40879557878E+02 -0.69035912638E+02  0.80581876387E+02  0.00000000000E+00 0. -1.
<scales pt_clust_5="13000.00000" pt_clust_6="13000.00000" pt_clust_7="13000.00000" pt_clust_8="13000.00000" pt_clust_9="41.56300"></scales>
<clustering>
<clus scale="   41.563">  1  9  2 -1</clus>
<clus scale="   80.104">  5  6 -1 -1</clus>
<clus scale="   80.313">  1  5  2 -1</clus>
<clus scale="   92.304">  7  8 -1 -1</clus>
<clus scale="   41.563">  1  5  2 -1</clus>
</clustering>
</event>
<event>
 9    2  0.3764910E-005  0.1996818E+03  0.7546771E-02  0.1151085E+00
          2   -1    0    0  502    0 -0.00000000000E+00  0.00000000000E+00  0.72316191901E+03  0.72316191901E+03  0.00000000000E+00 0. -1.
         21   -1    0    0  501  502  0.00000000000E+00 -0.00000000000E+00 -0.11888220351E+03  0.11888220351E+03  0.00000000000E+00 0.  1.
         24    2    1    2    0    0 -0.13467172570E+03  0.10545547051E+03  0.26195619686E+03  0.32306184878E+03  0.80564130353E+02 0.  0.
         23    2    1    2    0    0  0.17926824578E+03 -0.84306629733E+02  0.52073968660E+02  0.22456603042E+03  0.92051572746E+02 0.  0.
        -11    1    3    3    0    0 -0.10761545742E+03  0.11732452229E+03  0.21379502006E+03  0.26656038867E+03  0.00000000000E+00 0.  1.
         12    1    3    3    0    0 -0.27056268278E+02 -0.11869051781E+02  0.48161176797E+02  0.56501460103E+02  0.00000000000E+00 0. -1.
        -11    1    4    4    0    0  0.95069686605E+02 -0.57013032805E+02 -0.17183697864E+02  0.11217847696E+03  0.00000000000E+00 0.  1.
         11    1    4    4    0    0  0.84198559175E+02 -0.27293596927E+02  0.69257666524E+02  0.11238755346E+03  0.00000000000E+00 0. -1.
          1    1    1    2  501    0 -0.44596520078E+02 -0.21148840781E+02  0.29024954998E+03  0.29441624332E+03  0.00000000000E+00 0. -1.
<scales pt_clust_5="13000.00000" pt_clust_6="13000.00000" pt_clust_7="13000.00000" pt_clust_8="13000.00000" pt_clust_9="49.35712"></scales>
<clustering>
<clus scale="   49.357">  2  9  1 -1</clus>
<clus scale="   80.564">  5  6 -1 -1</clus>
<clus scale="   92.052">  7  8 -1 -1</clus>
<clus scale="  194.653">  1  5  2 -1</clus>
<clus scale="   49.357">  2  5  1 -1</clus>
</clustering>
</event>
<event>
 9    2  0.3764910E-005  0.1517362E+03  0.7546771E-02  0.1201497E+00
         21   -1    0    0  501  502  0.00000000000E+00  0.00000000000E+00  0.98458895778E+03  0.98458895778E+03  0.00000000000E+00 0.  1.
          2   -1    0    0  502    0 -0.00000000000E+00 -0.00000000000E+00 -0.15298269278E+03  0.15298269278E+03  0.00000000000E+00 0. -1.
         23    2    1    2    0    0  0.58877043756E+02 -0.88340549234E+02 -0.91271468504E+02  0.16872042798E+03  0.94157012137E+02 0.  0.
         24    2    1    2    0    0  0.36155166556E+02  0.14296200557E+03  0.51935911090E+03  0.55071021374E+03  0.10863941425E+03 0.  0.
        -13    1    4    4    0    0  0.36238818371E+02  0.10811660234E+03  0.49556786016E+03  0.50851740942E+03  0.00000000000E+00 0.  1.
         14    1    4    4    0    0 -0.83651814767E-01  0.34845403237E+02  0.23791250744E+02  0.42192804319E+02  0.00000000000E+00 0. -1.
        -13    1    3    3    0    0  0.28493342847E+02 -0.89764357052E+02 -0.27571712376E+02  0.98131084305E+02  0.00000000000E+00 0.  1.
         13    1    3    3    0    0  0.30383700910E+02  0.14238078186E+01 -0.63699756128E+02  0.70589343675E+02  0.00000000000E+00 0. -1.
          1    1    1    2  501    0 -0.95032210313E+02 -0.54621456339E+02  0.40351862260E+03  0.41814100884E+03  0.00000000000E+00 0. -1.
<scales pt_clust_5="13000.00000" pt_clust_6="13000.00000" pt_clust_7="13000.00000" pt_clust_8="13000.00000" pt_clust_9="109.61124"></scales>
<clustering>
<clus scale="   94.157">  7  8 -1 -1</clus>
<clus scale="  108.639">  5  6 -1 -1</clus>
<clus scale="  109.611">  1  9  2 -1</clus>
<clus scale="  141.728">  2  7  1 -1</clus>
<clus scale="  109.611">  1  5  2 -1</clus>
</clustering>
</event>
<event>
 9    2  0.3764910E-005  0.1165389E+03  0.7546771E-02  0.1253143E+00
          4   -1    0    0  502    0 -0.00000000000E+00  0.00000000000E+00  0.52680586728E+03  0.52680586728E+03  0.00000000000E+00 0. -1.
         21   -1    0    0  501  502  0.00000000000E+00 -0.00000000000E+00 -0.57395595682E+02  0.57395595682E+02  0.00000000000E+00 0. -1.
         24    2    1    2    0    0 -0.69789014976E+02  0.52778094618E+02  0.34047118310E+03  0.36043087341E+03  0.79584886159E+02 0.  0.
         23    2    1    2    0    0  0.35166622088E+02  0.16160532825E+02  0.43816980684E+02  0.10889231622E+03  0.91868137056E+02 0.  0.
        -11    1    3    3    0    0 -0.80448612105E+00  0.46873260856E+02  0.10496893450E+03  0.11496185015E+03  0.00000000000E+00 0.  1.
         12    1    3    3    0    0 -0.68984528855E+02  0.59048337620E+01  0.23550224860E+03  0.24546902326E+03  0.00000000000E+00 0. -1.
        -13    1    4    4    0    0  0.55793708041E+02  0.69420056210E+01 -0.36296939369E+01  0.56340961805E+02  0.00000000000E+00 0. -1.
         13    1    4    4    0    0 -0.20627085953E+02  0.92185272041E+01  0.47446674621E+02  0.52551354420E+02  0.00000000000E+00 0.  1.
          3    1    1    2  501    0  0.34622392888E+02 -0.68938627444E+02  0.85122107815E+02  0.11487827332E+03  0.00000000000E+00 0. -1.
<scales pt_clust_5="13000.00000" pt_clust_6="13000.00000" pt_clust_7="13000.00000" pt_clust_8="13000.00000" pt_clust_9="77.14431"></scales>
<clustering>
<clus scale="   77.144">  2  9  1 -1</clus>
<clus scale="   79.585">  5  6 -1 -1</clus>
<clus scale="   91.868">  7  8 -1 -1</clus>
<clus scale="  107.123">  1  5  2 -1</clus>
<clus scale="   77.144">  2  5  1 -1</clus>
</clustering>
</event>
<event>
 9    2  0.3764910E-005  0.1289364E+03  0.7546771E-02  0.1231269E+00
          4   -1    0    0  502    0 -0.00000000000E+00  0.00000000000E+00  0.47182027146E+02  0.47182027146E+02  0.00000000000E+00 0. -1.
         21   -1    0    0  501  502  0.00000000000E+00 -0.00000000000E+00 -0.10747506341E+04  0.10747506341E+04  0.00000000000E+00 0. -1.
         23    2    1    2    0    0 -0.22716227762E+02 -0.99609403086E+02 -0.87763826138E+02  0.16194919442E+03  0.89927705461E+02 0.  0.
         24    2    1    2    0    0  0.53385800723E+02  0.24808721495E+02 -0.69380129204E+03  0.70103659744E+03  0.81403696051E+02 0.  0.
        -13    1    4    4    0    0 -0.72435074317E+01 -0.22158181317E+02 -0.13519387021E+03  0.13718905183E+03  0.00000000000E+00 0.  1.
         14    1    4    4    0    0  0.60629308155E+02  0.46966902812E+02 -0.55860742183E+03  0.56384754561E+03  0.00000000000E+00 0. -1.
        -11    1    3    3    0    0  0.34019661194E+02 -0.24279258088E+02 -0.27651481865E+02  0.50114111490E+02  0.00000000000E+00 0.  1.
         11    1    3    3    0    0 -0.56735888956E+02 -0.75330144998E+02 -0.60112344273E+02  0.11183508294E+03  0.00000000000E+00 0. -1.
          3    1    1    2  501    0 -0.30669572961E+02  0.74800681591E+02 -0.24600348875E+03  0.25894686935E+03  0.00000000000E+00 0. -1.
<scales pt_clust_5="13000.00000" pt_clust_6="13000.00000" pt_clust_7="13000.00000" pt_clust_8="13000.00000" pt_clust_9="80.84408"></scales>
<clustering>
<clus scale="   80.844">  2  9  1 -1</clus>
<clus scale="   81.404">  5  6 -1 -1</clus>
<clus scale="   89.928">  7  8 -1 -1</clus>
<clus scale="  123.143">  2  5  1 -1</clus>
<clus scale="   80.844">  2  5  1 -1</clus>
</clustering>
</event>
<event>
 9    2  0.3764910E-005  0.1045511E+03  0.7546771E-02  0.1275543E+00
          2   -1    0    0  502    0 -0.00000000000E+00  0.00000000000E+00  0.22568827276E+03  0.22568827276E+03  0.00000000000E+00 0. -1.
         21   -1    0    0  501  502  0.00000000000E+00 -0.00000000000E+00 -0.17642304923E+03  0.17642304923E+03  0.00000000000E+00 0. -1.
         24    2    1    2    0    0 -0.10200773825E+02  0.51238669998E+02  0.12750344430E+03  0.15966217986E+03  0.80656222823E+02 0.  0.
         23    2    1    2    0    0  0.80589359337E+02 -0.26415424402E+02 -0.10545795796E+03  0.16300318197E+03  0.90863837427E+02 0.  0.
        -13    1    3    3    0    0  0.22993143875E+02 -0.60923624128E+01  0.62399238264E+02  0.66779236900E+02  0.00000000000E+00 0.  1.
         14    1    3    3    0    0 -0.33193917700E+02  0.57331032411E+02  0.65104206034E+02  0.92882942960E+02  0.00000000000E+00 0. -1.
        -13    1    4    4    0    0  0.36281849238E+02 -0.57153103081E+01  0.96171660426E+01  0.37967449726E+02  0.00000000000E+00 0.  1.
         13    1    4    4    0    0  0.44307510099E+02 -0.20700114094E+02 -0.11507512400E+03  0.12503573225E+03  0.00000000000E+00 0. -1.
          1    1    1    2  501    0 -0.70388585511E+02 -0.24823245596E+02  0.27219737184E+02  0.79445960153E+02  0.00000000000E+00 0. -1.
<scales pt_clust_5="13000.00000" pt_clust_6="13000.00000" pt_clust_7="13000.00000" pt_clust_8="13000.00000" pt_clust_9="74.63747"></scales>
<clustering>
<clus scale="   74.637">  2  9  1 -1</clus>
<clus scale="   80.656">  5  6 -1 -1</clus>
<clus scale="   90.864">  7  8 -1 -1</clus>
<clus scale="   95.813">  1  5  2 -1</clus>
<clus scale="   74.637">  2  5  1 -1</clus>
</clustering>
</event>
<event>
 9    2  0.3764910E-005  0.9642776E+02  0.7546771E-02  0.1295776E+00
         -1   -1    0    0    0  501 -0.00000000000E+00  0.00000000000E+00  0.81306404714E+02  0.81306404714E+02  0.00000000000E+00 0.  1.
         21   -1    0    0  501  502  0.00000000000E+00 -0.00000000000E+00 -0.24939209256E+03  0.24939209256E+03  0.00000000000E+00 0. -1.
         24    2    1    2    0    0 -0.12156370378E+02 -0.34403094195E+02 -0.74775957414E+02  0.11505633696E+03  0.79468022732E+02 0.  0.
         23    2    1    2    0    0 -0.28793285244E+02  0.10669679874E+02 -0.12488603196E+03  0.15874565719E+03  0.93063243838E+02 0.  0.
        -11    1    3    3    0    0 -0.41631955265E+02 -0.13712929282E+02 -0.63804381571E+02  0.77409710220E+02  0.00000000000E+00 0.  1.
         12    1    3    3    0    0  0.29475584887E+02 -0.20690164913E+02 -0.10971575844E+02  0.37646626742E+02  0.00000000000E+00 0. -1.
        -11    1    4    4    0    0 -0.43808116206E+02 -0.25853653428E+01 -0.13071603179E+03  0.13788588081E+03  0.00000000000E+00 0. -1.
         11    1    4    4    0    0  0.15014830962E+02  0.13255045217E+02  0.58299998311E+01  0.20859776379E+02  0.00000000000E+00 0.  1.
         -2    1    1    2    0  502  0.40949655622E+02  0.23733414320E+02  0.31576301520E+02  0.56896503131E+02  0.00000000000E+00 0.  1.
<scales pt_clust_5="13000.00000" pt_clust_6="13000.00000" pt_clust_7="13000.00000" pt_clust_8="13000.00000" pt_clust_9="47.33024"></scales>
<clustering>
<clus scale="   47.330">  2  9  1 -1</clus>
<clus scale="   79.468">  5  6 -1 -1</clus>
<clus scale="   83.383">  1  5  2 -1</clus>
<clus scale="   93.063">  7  8 -1 -1</clus>
<clus scale="   47.330">  2  5  1 -1</clus>
</clustering>
</event>
<event>
 9    2  0.3764910E-005  0.1180544E+03  0.7546771E-02  0.1258996E+00
         21   -1    0    0  501  502  0.00000000000E+00  0.00000000000E+00  0.28518408257E+02  0.28518408257E+02  0.00000000000E+00 0. -1.
          2   -1    0    0  502    0 -0.00000000000E+00 -0.00000000000E+00 -0.83006354568E+03  0.83006354568E+03  0.00000000000E+00 0. -1.
         24    2    1    2    0    0 -0.42693719219E+02 -0.32301348870E+01 -0.14794881665E+03  0.17410665057E+03  0.81185503599E+02 0.  0.
         23    2    1    2    0    0 -0.54505237432E+02  0.16542408509E+01 -0.32270243498E+03  0.33959723176E+03  0.90641386001E+02 0.  0.
        -11    1    3    3    0    0 -0.16001867709E+02  0.37011733002E+02 -0.90376897217E+02  0.98964194032E+02  0.00000000000E+00 0.  1.
         12    1    3    3    0    0 -0.26691851509E+02 -0.40241867889E+02 -0.57571919430E+02  0.75142456541E+02  0.00000000000E+00 0. -1.
        -11    1    4    4    0    0 -0.70818640834E+02  0.26849988263E+02 -0.23449958862E+03  0.24642698477E+03  0.00000000000E+00 0. -1.
         11    1    4    4    0    0  0.16313403402E+02 -0.25195747412E+02 -0.88202846363E+02  0.93170246993E+02  0.00000000000E+00 0.  1.
          1    1    1    2  501    0  0.97198956651E+02  0.15758940360E+01 -0.33089388580E+03  0.34487807161E+03  0.00000000000E+00 0. -1.
<scales pt_clust_5="13000.00000" pt_clust_6="13000.00000" pt_clust_7="13000.00000" pt_clust_8="13000.00000" pt_clust_9="75.63723"></scales>
<clustering>
<clus scale="   81.186">  5  6 -1 -1</clus>
<clus scale="   90.641">  7  8 -1 -1</clus>
<clus scale="   91.784">  2  5  1 -1</clus>
<clus scale="   75.637">  1  9  2 -1</clus>
<clus scale="   75.637">  1  5  2 -1</clus>
</clustering>
</event>
<event>
 9    2  0.3764910E-005  0.1032690E+03  0.7546771E-02  0.1279530E+00
          2   -1    0    0  502    0 -0.00000000000E+00  0.00000000000E+00  0.71745980884E+03  0.71745980884E+03  0.00000000000E+00 0. -1.
         21   -1    0    0  501  502  0.00000000000E+00 -0.00000000000E+00 -0.25109130915E+02  0.25109130915E+02  0.00000000000E+00 0. -1.
         23    2    1    2    0    0 -0.31615909639E+02  0.36545088459E+02  0.41293452165E+03  0.42577291895E+03  0.91828917596E+02 0.  0.
         24    2    1    2    0    0  0.58087118522E+02  0.12389141025E+01  0.22487878878E+03  0.24536297381E+03  0.79100385776E+02 0.  0.
        -11    1    4    4    0    0  0.29809480868E+02  0.34445808541E+02  0.16570229370E+03  0.17184984438E+03  0.00000000000E+00 0.  1.
         12    1    4    4    0    0  0.28277637654E+02 -0.33206894438E+02  0.59176495078E+02  0.73513129435E+02  0.00000000000E+00 0. -1.
        -13    1    3    3    0    0  0.15735625234E+02  0.47337073480E+02  0.27622530599E+03  0.28069347712E+03  0.00000000000E+00 0. -1.
         13    1    3    3    0    0 -0.47351534872E+02 -0.10791985021E+02  0.13670921565E+03  0.14507944183E+03  0.00000000000E+00 0.  1.
          1    1    1    2  501    0 -0.26471208883E+02 -0.37784002561E+02  0.54537367504E+02  0.71433046999E+02  0.00000000000E+00 0. -1.
<scales pt_clust_5="13000.00000" pt_clust_6="13000.00000" pt_clust_7="13000.00000" pt_clust_8="13000.00000" pt_clust_9="46.13411"></scales>
<clustering>
<clus scale="   46.134">  2  9  1 -1</clus>
<clus scale="   79.100">  5  6 -1 -1</clus>
<clus scale="   91.829">  7  8 -1 -1</clus>
<clus scale="   92.135">  2  5  1 -1</clus>
<clus scale="   46.134">  2  5  1 -1</clus>
</clustering>
</event>
<event>
 9    2  0.3764910E-005  0.9404088E+02  0.7546771E-02  0.1300197E+00
         21   -1    0    0  501  502  0.00000000000E+00  0.00000000000E+00  0.98922094094E+02  0.98922094094E+02  0.00000000000E+00 0. -1.
          2   -1    0    0  502    0 -0.00000000000E+00 -0.00000000000E+00 -0.53637818190E+03  0.53637818190E+03  0.00000000000E+00 0. -1.
         24    2    1    2    0    0  0.18209487792E+02  0.14357161307E+02 -0.32512472875E+03  0.33582466118E+03  0.80835637458E+02 0.  0.
         23    2    1    2    0    0 -0.13158919638E+02  0.65459507013E+01 -0.19383420888E+03  0.21518348671E+03  0.92283399293E+02 0.  0.
        -13    1    3    3    0    0 -0.24094251015E+02  0.25562485846E+02 -0.20475443183E+03  0.20774588075E+03  0.00000000000E+00 0.  1.
         14    1    3    3    0    0  0.42303738806E+02 -0.11205324539E+02 -0.12037029693E+03  0.12807878043E+03  0.00000000000E+00 0. -1.
        -11    1    4    4    0    0 -0.33757461256E+02 -0.24947215544E+02 -0.15704108538E+03  0.16255409023E+03  0.00000000000E+00 0. -1.
         11    1    4    4    0    0  0.20598541618E+02  0.31493166245E+02 -0.36793123494E+02  0.52629396476E+02  0.00000000000E+00 0.  1.
          1    1    1    2  501    0 -0.50505681536E+01 -0.20903112008E+02  0.81502849826E+02  0.84292128103E+02  0.00000000000E+00 0. -1.
<scales pt_clust_5="13000.00000" pt_clust_6="13000.00000" pt_clust_7="13000.00000" pt_clust_8="13000.00000" pt_clust_9="21.50461"></scales>
<clustering>
<clus scale="   21.505">  1  9  2 -1</clus>
<clus scale="   80.836">  5  6 -1 -1</clus>
<clus scale="   82.836">  2  5  1 -1</clus>
<clus scale="   92.283">  7  8 -1 -1</clus>
<clus scale="   21.505">  1  5  2 -1</clus>
</clustering>
</event>
<event>
 9    2  0.3764910E-005  0.1468784E+03  0.7546771E-02  0.1212853E+00
         21   -1    0    0  501  502  0.00000000000E+00  0.00000000000E+00  0.28247853158E+03  0.28247853158E+03  0.00000000000E+00 0.  1.
         -1   -1    0    0    0  501 -0.00000000000E+00 -0.00000000000E+00 -0.40764497632E+03  0.40764497632E+03  0.00000000000E+00 0.  1.
         23    2    1    2    0    0 -0.74536143567E+02 -0.33822198473E+02 -0.39894758327E+02  0.12880333868E+03  0.91099563700E+02 0.  0.
         24    2    1    2    0    0 -0.84342869189E+02  0.86210114216E+02  0.19011717012E+03  0.23909965976E+03  0.80487300525E+02 0.  0.
        -11    1    4    4    0    0 -0.22264998478E+02  0.79359428707E+02  0.10335104766E+03  0.13219337402E+03  0.00000000000E+00 0.  1.
         12    1    4    4    0    0 -0.62077870711E+02  0.68506855095E+01  0.86766122466E+02  0.10690628574E+03  0.00000000000E+00 0. -1.
        -13    1    3    3    0    0 -0.40446531922E+02  0.25101125425E+02 -0.37650808406E+02  0.60692436232E+02  0.00000000000E+00 0. -1.
         13    1    3    3    0    0 -0.34089611645E+02 -0.58923323898E+02 -0.22439499212E+01  0.68110902450E+02  0.00000000000E+00 0.  1.
         -2    1    1    2    0  502  0.15887901276E+03 -0.52387915743E+02 -0.27538885654E+03  0.32222050946E+03  0.00000000000E+00 0.  1.
<scales pt_clust_5="13000.00000" pt_clust_6="13000.00000" pt_clust_7="13000.00000" pt_clust_8="13000.00000" pt_clust_9="122.86200"></scales>
<clustering>
<clus scale="   80.487">  5  6 -1 -1</clus>
<clus scale="   91.100">  7  8 -1 -1</clus>
<clus scale="  122.469">  2  7  1 -1</clus>
<clus scale="  122.862">  1  9  2 -1</clus>
<clus scale="  122.862">  1  5  2 -1</clus>
</clustering>
</event>
<event>
 9    2  0.3764910E-005  0.1133460E+03  0.7546771E-02  0.1265940E+00
         21   -1    0    0  501  502  0.00000000000E+00  0.00000000000E+00  0.62598558761E+02  0.62598558761E+02  0.00000000000E+00 0.  1.
          2   -1    0    0  502    0 -0.00000000000E+00 -0.00000000000E+00 -0.29524944949E+03  0.29524944949E+03  0.00000000000E+00 0. -1.
         23    2    1    2    0    0 -0.34168588836E+02 -0.73205042782E+02 -0.15047962247E+03  0.19369485131E+03  0.91362508144E+02 0.  0.
         24    2    1    2    0    0  0.47934462498E+02  0.25432951152E+02 -0.18819262905E+02  0.83622736608E+02  0.60778694640E+02 0.  0.
        -13    1    4    4    0    0  0.43376665087E+02  0.31984831879E+01  0.12212530251E+02  0.45176445897E+02  0.00000000000E+00 0.  1.
         14    1    4    4    0    0  0.45577974113E+01  0.22234467964E+02 -0.31031793156E+02  0.38446290710E+02  0.00000000000E+00 0. -1.
        -11    1    3    3    0    0  0.20045298605E+02 -0.61610702433E+02 -0.97123087531E+02  0.11675010399E+03  0.00000000000E+00 0. -1.
         11    1    3    3    0    0 -0.54213887441E+02 -0.11594340348E+02 -0.53356534942E+02  0.76944747323E+02  0.00000000000E+00 0.  1.
          1    1    1    2  501    0 -0.13765873662E+02  0.47772091630E+02 -0.63352005352E+02  0.80530420330E+02  0.00000000000E+00 0. -1.
<scales pt_clust_5="13000.00000" pt_clust_6="13000.00000" pt_clust_7="13000.00000" pt_clust_8="13000.00000" pt_clust_9="49.71594"></scales>
<clustering>
<clus scale="   49.716">  1  9  2 -1</clus>
<clus scale="   60.779">  5  6 -1 -1</clus>
<clus scale="   90.522">  1  5  2 -1</clus>
<clus scale="   91.363">  7  8 -1 -1</clus>
<clus scale="   49.716">  1  5  2 -1</clus>
</clustering>
</event>
<event>
 9    2  0.3764910E-005  0.1612255E+03  0.7546771E-02  0.1189390E+00
         21   -1    0    0  501  502  0.00000000000E+00  0.00000000000E+00  0.15392843307E+03  0.15392843307E+03  0.00000000000E+00 0. -1.
          2   -1    0    0  502    0 -0.00000000000E+00 -0.00000000000E+00 -0.40932719748E+03  0.40932719748E+03  0.00000000000E+00 0. -1.
         23    2    1    2    0    0  0.11422147441E+03  0.83808225413E+02 -0.21261625171E+03  0.27198178914E+03  0.93263386533E+02 0.  0.
         24    2    1    2    0    0 -0.76435578950E+02 -0.95912544543E+02 -0.12974180076E+03  0.19569033751E+03  0.80125897206E+02 0.  0.
        -13    1    4    4    0    0  0.90985970485E+01 -0.41159792299E+02 -0.56430377348E+02  0.70436499473E+02  0.00000000000E+00 0.  1.
         14    1    4    4    0    0 -0.85534175998E+02 -0.54752752244E+02 -0.73311423407E+02  0.12525383804E+03  0.00000000000E+00 0. -1.
        -13    1    3    3    0    0  0.11477312173E+03  0.36226340361E+02 -0.16867831242E+03  0.20721387572E+03  0.00000000000E+00 0. -1.
         13    1    3    3    0    0 -0.55164732292E+00  0.47581885052E+02 -0.43937939288E+02  0.64767913420E+02  0.00000000000E+00 0.  1.
          1    1    1    2  501    0 -0.37785895457E+02  0.12104319130E+02  0.86959288058E+02  0.95583503894E+02  0.00000000000E+00 0. -1.
<scales pt_clust_5="13000.00000" pt_clust_6="13000.00000" pt_clust_7="13000.00000" pt_clust_8="13000.00000" pt_clust_9="39.67730"></scales>
<clustering>
<clus scale="   39.677">  1  9  2 -1</clus>
<clus scale="   80.126">  5  6 -1 -1</clus>
<clus scale="   93.263">  7  8 -1 -1</clus>
<clus scale="  153.999">  1  5  2 -1</clus>
<clus scale="   39.677">  1  5  2 -1</clus>
</clustering>
</event>
<event>
 9    2  0.3764910E-005  0.1322039E+03  0.7546771E-02  0.1228272E+00
         -3   -1    0    0    0  501 -0.00000000000E+00  0.00000000000E+00  0.41443827873E+02  0.41443827873E+02  0.00000000000E+00 0.  1.
         21   -1    0    0  501  502  0.00000000000E+00 -0.00000000000E+00 -0.51911165833E+03  0.51911165833E+03  0.00000000000E+00 0.  1.
         23    2    1    2    0    0  0.25156803025E+02 -0.76676924534E+02 -0.18305393954E+03  0.22029098203E+03  0.92234247916E+02 0.  0.
         24    2    1    2    0    0 -0.45718381768E+02  0.10341292338E+03 -0.24241104773E+03  0.27811364745E+03  0.76155641178E+02 0.  0.
        -13    1    4    4    0    0 -0.46989581243E+02  0.46851567721E+02 -0.69097024754E+02  0.95799211757E+02  0.00000000000E+00 0.  1.
         14    1    4    4    0    0  0.12711994754E+01  0.56561355656E+02 -0.17331402298E+03  0.18231443570E+03  0.00000000000E+00 0. -1.
        -13    1    3    3    0    0 -0.17944373218E+02 -0.17990259928E+02 -0.12389573783E+03  0.12647451852E+03  0.00000000000E+00 0.  1.
         13    1    3    3    0    0  0.43101176244E+02 -0.58686664605E+02 -0.59158201711E+02  0.93816463512E+02  0.00000000000E+00 0. -1.
         -4    1    1    2    0  502  0.20561578743E+02 -0.26735998843E+02 -0.52202843184E+02  0.62150856720E+02  0.00000000000E+00 0.  1.
<scales pt_clust_5="13000.00000" pt_clust_6="13000.00000" pt_clust_7="13000.00000" pt_clust_8="13000.00000" pt_clust_9="33.72823"></scales>
<clustering>
<clus scale="   33.728">  2  9  1 -1</clus>
<clus scale="   76.156">  5  6 -1 -1</clus>
<clus scale="   92.234">  7  8 -1 -1</clus>
<clus scale="  121.534">  2  5  1 -1</clus>
<clus scale="   33.728">  2  5  1 -1</clus>
</clustering>
</event>
<event>
 9    2  0.3764910E-005  0.2456321E+03  0.7546771E-02  0.1116906E+00
         21   -1    0    0  501  502  0.00000000000E+00  0.00000000000E+00  0.16156471629E+03  0.16156471629E+03  0.00000000000E+00 0. -1.
          2   -1    0    0  502    0 -0.00000000000E+00 -0.00000000000E+00 -0.23834922485E+04  0.23834922485E+04  0.00000000000E+00 0. -1.
         24    2    1    2    0    0  0.11923201479E+03 -0.17354086337E+03 -0.15946798337E+04  0.16104472970E+04  0.78765600368E+02 0.  0.
         23    2    1    2    0    0 -0.21062948982E+03  0.21423341136E+03 -0.72776520554E+03  0.79278882630E+03  0.92796509532E+02 0.  0.
        -11    1    3    3    0    0  0.13824209361E+02 -0.78136286071E+02 -0.44614305478E+03  0.45314458322E+03  0.00000000000E+00 0.  1.
         12    1    3    3    0    0  0.10540780543E+03 -0.95404577296E+02 -0.11485367789E+04  0.11573027137E+04  0.00000000000E+00 0. -1.
        -11    1    4    4    0    0 -0.57984623786E+02  0.74389920774E+02 -0.13318809852E+03  0.16320277723E+03  0.00000000000E+00 0.  1.
         11    1    4    4    0    0 -0.15264486603E+03  0.13984349059E+03 -0.59457710703E+03  0.62958604907E+03  0.00000000000E+00 0. -1.
          1    1    1    2  501    0  0.91397475029E+02 -0.40692547994E+02  0.10051750695E+03  0.14182084158E+03  0.00000000000E+00 0. -1.
<scales pt_clust_5="13000.00000" pt_clust_6="13000.00000" pt_clust_7="13000.00000" pt_clust_8="13000.00000" pt_clust_9="100.04690"></scales>
<clustering>
<clus scale="   78.766">  5  6 -1 -1</clus>
<clus scale="   92.797">  7  8 -1 -1</clus>
<clus scale="  100.047">  1  9  2 -1</clus>
<clus scale="  240.682">  2  5  1 -1</clus>
<clus scale="  100.047">  1  5  2 -1</clus>
</clustering>
</event>
<event>
 9    2  0.3764910E-005  0.1215279E+03  0.7546771E-02  0.1263506E+00
         21   -1    0    0  501  502  0.00000000000E+00  0.00000000000E+00  0.33724233893E+03  0.33724233893E+03  0.00000000000E+00 0.  1.
         -3   -1    0    0    0  501 -0.00000000000E+00 -0.00000000000E+00 -0.82803056080E+02  0.82803056080E+02  0.00000000000E+00 0.  1.
         24    2    1    2    0    0 -0.19968314299E+01  0.39307561531E+02  0.22225807403E+02  0.80155969740E+02  0.66196081765E+02 0.  0.
         23    2    1    2    0    0  0.92119929679E+01  0.45576860724E+02  0.11979890727E+02  0.10375332990E+03  0.91973499639E+02 0.  0.
        -13    1    3    3    0    0 -0.12232013395E+02  0.51719016514E+02  0.53247633176E+00  0.53148493411E+02  0.00000000000E+00 0.  1.
         14    1    3    3    0    0  0.10235181965E+02 -0.12411454983E+02  0.21693331072E+02  0.27007476329E+02  0.00000000000E+00 0. -1.
        -13    1    4    4    0    0  0.24371492571E+02  0.14415788146E+02  0.46754576684E+02  0.54660543712E+02  0.00000000000E+00 0.  1.
         13    1    4    4    0    0 -0.15159499603E+02  0.31161072578E+02 -0.34774685957E+02  0.49092786189E+02  0.00000000000E+00 0. -1.
         -4    1    1    2    0  502 -0.72151615380E+01 -0.84884422254E+02  0.22023358472E+03  0.23613609537E+03  0.00000000000E+00 0.  1.
<scales pt_clust_5="13000.00000" pt_clust_6="13000.00000" pt_clust_7="13000.00000" pt_clust_8="13000.00000" pt_clust_9="79.43496"></scales>
<clustering>
<clus scale="   66.196">  5  6 -1 -1</clus>
<clus scale="   77.013">  2  5  1 -1</clus>
<clus scale="   79.435">  1  9  2 -1</clus>
<clus scale="   91.973">  7  8 -1 -1</clus>
<clus scale="   79.435">  1  5  2 -1</clus>
</clustering>
</event>
<event>
 9    2  0.3764910E-005  0.1198919E+03  0.7546771E-02  0.1247198E+00
          4   -1    0    0  502    0 -0.00000000000E+00  0.00000000000E+00  0.18444930618E+03  0.18444930618E+03  0.00000000000E+00 0. -1.
         21   -1    0    0  501  502  0.00000000000E+00 -0.00000000000E+00 -0.25465873517E+03  0.25465873517E+03  0.00000000000E+00 0. -1.
         24    2    1    2    0    0  0.84504354170E+02  0.53711520555E+02  0.10105435512E+03  0.16291288142E+03  0.79389614754E+02 0.  0.
         23    2    1    2    0    0 -0.42040999633E+01 -0.46227643036E+02 -0.19860905531E+02  0.10465224725E+03  0.91667703409E+02 0.  0.
        -11    1    3    3    0    0  0.33331222694E+02 -0.19381986086E+02  0.30346021498E+02  0.49066412256E+02  0.00000000000E+00 0.  1.
         12    1    3    3    0    0  0.51173131476E+02  0.73093506641E+02  0.70708333625E+02  0.11384646917E+03  0.00000000000E+00 0. -1.
        -13    1    4    4    0    0 -0.47653114842E+02 -0.27931290523E+02 -0.62835699149E+01  0.55591902246E+02  0.00000000000E+00 0.  1.
         13    1    4    4    0    0  0.43449014879E+02 -0.18296352513E+02 -0.13577335616E+02  0.49060345001E+02  0.00000000000E+00 0. -1.
          3    1    1    2  501    0 -0.80300254207E+02 -0.74838775188E+01 -0.15140287858E+03  0.17154291268E+03  0.00000000000E+00 0. -1.
<scales pt_clust_5="13000.00000" pt_clust_6="13000.00000" pt_clust_7="13000.00000" pt_clust_8="13000.00000" pt_clust_9="80.64824"></scales>
<clustering>
<clus scale="   79.390">  5  6 -1 -1</clus>
<clus scale="   80.648">  2  9  1 -1</clus>
<clus scale="   91.668">  7  8 -1 -1</clus>
<clus scale="  110.787">  1  5  2 -1</clus>
<clus scale="   80.648">  2  5  1 -1</clus>
</clustering>
</event>
<event>
 9    2  0.3764910E-005  0.1443885E+03  0.7546771E-02  0.1210025E+00
          2   -1    0    0  502    0 -0.00000000000E+00  0.00000000000E+00  0.11181265918E+04  0.11181265918E+04  0.00000000000E+00 0. -1.
         21   -1    0    0  501  502  0.00000000000E+00 -0.00000000000E+00 -0.46408051633E+02  0.46408051633E+02  0.00000000000E+00 0.  1.
         23    2    1    2    0    0 -0.10124583546E+03 -0.55725019679E+02  0.50489694946E+03  0.52589166559E+03  0.91022619943E+02 0.  0.
         24    2    1    2    0    0  0.54691854634E+02  0.10134498543E+03  0.11113493983E+03  0.17831833350E+03  0.78641262550E+02 0.  0.
        -13    1    4    4    0    0  0.47692040036E+02  0.11128738569E+03  0.80596747430E+02  0.14544843964E+03  0.00000000000E+00 0.  1.
         14    1    4    4    0    0  0.69998145979E+01 -0.99424002614E+01  0.30538192397E+02  0.32869893858E+02  0.00000000000E+00 0. -1.
        -11    1    3    3    0    0 -0.80970968735E+02  0.19431931734E+01  0.35264236956E+03  0.36182414871E+03  0.00000000000E+00 0.  1.
         11    1    3    3    0    0 -0.20274866723E+02 -0.57668212853E+02  0.15225457990E+03  0.16406751688E+03  0.00000000000E+00 0. -1.
          1    1    1    2  501    0  0.46553980824E+02 -0.45619965753E+02  0.45568665085E+03  0.46032464432E+03  0.00000000000E+00 0. -1.
<scales pt_clust_5="13000.00000" pt_clust_6="13000.00000" pt_clust_7="13000.00000" pt_clust_8="13000.00000" pt_clust_9="65.18020"></scales>
<clustering>
<clus scale="   65.180">  2  9  1 -1</clus>
<clus scale="   78.641">  5  6 -1 -1</clus>
<clus scale="   91.023">  7  8 -1 -1</clus>
<clus scale="  136.921">  2  5  1 -1</clus>
<clus scale="   65.180">  2  5  1 -1</clus>
</clustering>
</event>
<event>
 9    2  0.3764910E-005  0.2337159E+03  0.7546771E-02  0.1125652E+00
          2   -1    0    0  502    0 -0.00000000000E+00  0.00000000000E+00  0.10602665364E+04  0.10602665364E+04  0.00000000000E+00 0. -1.
         21   -1    0    0  501  502  0.00000000000E+00 -0.00000000000E+00 -0.25632080349E+03  0.25632080349E+03  0.00000000000E+00 0.  1.
         24    2    1    2    0    0 -0.18969887348E+03 -0.90373716651E+02  0.89389671793E+03  0.92184301127E+03  0.81179577705E+02 0.  0.
         23    2    1    2    0    0  0.21175373339E+03  0.28387218075E+02  0.47646167932E+02  0.24222639733E+03  0.10372074281E+03 0.  0.
        -11    1    3    3    0    0 -0.12718051959E+03 -0.46691638357E+02  0.40566716420E+03  0.42769246167E+03  0.00000000000E+00 0.  1.
         12    1    3    3    0    0 -0.62518353892E+02 -0.43682078295E+02  0.48822955373E+03  0.49415054960E+03  0.00000000000E+00 0. -1.
        -13    1    4    4    0    0  0.61262359653E+02 -0.61198284799E+01  0.61735137422E+02  0.87188050806E+02  0.00000000000E+00 0. -1.
         13    1    4    4    0    0  0.15049137374E+03  0.34507046555E+02 -0.14088969490E+02  0.15503834653E+03  0.00000000000E+00 0.  1.
          1    1    1    2  501    0 -0.22054859916E+02  0.61986498577E+02 -0.13759715297E+03  0.15251793126E+03  0.00000000000E+00 0. -1.
<scales pt_clust_5="13000.00000" pt_clust_6="13000.00000" pt_clust_7="13000.00000" pt_clust_8="13000.00000" pt_clust_9="65.79318"></scales>
<clustering>
<clus scale="   65.793">  2  9  1 -1</clus>
<clus scale="   81.180">  5  6 -1 -1</clus>
<clus scale="  103.721">  7  8 -1 -1</clus>
<clus scale="  224.622">  1  5  2 -1</clus>
<clus scale="   65.793">  2  5  1 -1</clus>
</clustering>
</event>
<event>
 9    2  0.4329589E-005  0.1376879E+03  0.7546771E-02  0.1235408E+00
          2   -1    0    0  502    0 -0.00000000000E+00  0.00000000000E+00  0.11345335781E+04  0.11345335781E+04  0.00000000000E+00 0. -1.
         21   -1    0    0  501  502  0.00000000000E+00 -0.00000000000E+00 -0.16688817851E+03  0.16688817851E+03  0.00000000000E+00 0. -1.
         23    2    1    2    0    0  0.22622869926E+02 -0.87793903983E+01  0.13789831018E+03  0.16626286262E+03  0.89657813921E+02 0.  0.
         24    2    1    2    0    0  0.12186326609E+02  0.11452123091E+03  0.95630100046E+03  0.96660946683E+03  0.80985424650E+02 0.  0.
        -13    1    4    4    0    0 -0.17716509549E+02  0.18159047534E+02  0.67675925370E+02  0.72274868334E+02  0.00000000000E+00 0.  1.
         14    1    4    4    0    0  0.29902836158E+02  0.96362183371E+02  0.88862507509E+03  0.89433459850E+03  0.00000000000E+00 0. -1.
        -11    1    3    3    0    0 -0.52290910391E+01  0.30491398327E+02  0.10092212976E+03  0.10555730690E+03  0.00000000000E+00 0. -1.
         11    1    3    3    0    0  0.27851960965E+02 -0.39270788726E+02  0.36976180420E+02  0.60705555719E+02  0.00000000000E+00 0.  1.
          1    1    1    2  501    0 -0.34809196535E+02 -0.10574184051E+03 -0.12655391105E+03  0.16854942717E+03  0.00000000000E+00 0. -1.
<scales pt_clust_5="13000.00000" pt_clust_6="13000.00000" pt_clust_7="13000.00000" pt_clust_8="13000.00000" pt_clust_9="111.35218"></scales>
<clustering>
<clus scale="   80.985">  5  6 -1 -1</clus>
<clus scale="   89.658">  7  8 -1 -1</clus>
<clus scale="   92.884">  1  7  2 -1</clus>
<clus scale="  111.352">  2  9  1 -1</clus>
<clus scale="  111.352">  2  5  1 -1</clus>
</clustering>
</event>
<event>
 9    2  0.3764910E-005  0.9488188E+02  0.7546771E-02  0.1308778E+00
         21   -1    0    0  501  502  0.00000000000E+00  0.00000000000E+00  0.50096431834E+03  0.50096431834E+03  0.00000000000E+00 0. -1.
          2   -1    0    0  502    0 -0.00000000000E+00 -0.00000000000E+00 -0.10961412042E+03  0.10961412042E+03  0.00000000000E+00 0. -1.
         24    2    1    2    0    0 -0.16206123480E+01  0.16001754767E+02 -0.85508381254E+02  0.10964087019E+03  0.66713976140E+02 0.  0.
         23    2    1    2    0    0  0.22571790967E+02 -0.40504953735E+02  0.23650365576E+03  0.25843015042E+03  0.93284652721E+02 0.  0.
        -11    1    3    3    0    0 -0.60163575594E+01 -0.24046341348E+02 -0.16644492260E+02  0.29857364470E+02  0.00000000000E+00 0.  1.
         12    1    3    3    0    0  0.43957452114E+01  0.40048096114E+02 -0.68863888994E+02  0.79783505725E+02  0.00000000000E+00 0. -1.
        -13    1    4    4    0    0 -0.82522145295E+01 -0.54423611707E+02  0.72793228637E+02  0.91262712491E+02  0.00000000000E+00 0.  1.
         13    1    4    4    0    0  0.30824005496E+02  0.13918657972E+02  0.16371042712E+03  0.16716743793E+03  0.00000000000E+00 0. -1.
          1    1    1    2  501    0 -0.20951178619E+02  0.24503198969E+02  0.24035492341E+03  0.24250741814E+03  0.00000000000E+00 0. -1.
<scales pt_clust_5="13000.00000" pt_clust_6="13000.00000" pt_clust_7="13000.00000" pt_clust_8="13000.00000" pt_clust_9="32.23909"></scales>
<clustering>
<clus scale="   32.239">  1  9  2 -1</clus>
<clus scale="   66.714">  5  6 -1 -1</clus>
<clus scale="   68.930">  2  5  1 -1</clus>
<clus scale="   93.285">  7  8 -1 -1</clus>
<clus scale="   32.239">  1  5  2 -1</clus>
</clustering>
</event>
<event>
 9    2  0.3764910E-005  0.9708138E+02  0.7546771E-02  0.1292927E+00
          2   -1    0    0  502    0 -0.00000000000E+00  0.00000000000E+00  0.20114787346E+03  0.20114787346E+03  0.00000000000E+00 0. -1.
         21   -1    0    0  501  502  0.00000000000E+00 -0.00000000000E+00 -0.74908278463E+02  0.74908278463E+02  0.00000000000E+00 0.  1.
         23    2    1    2    0    0 -0.10645938455E+02 -0.37019850679E+02  0.13256918113E+03  0.16568027001E+03  0.91605451446E+02 0.  0.
         24    2    1    2    0    0  0.91561378082E+01  0.16449606373E+02  0.11736271595E+02  0.82958192871E+02  0.79936833088E+02 0.  0.
        -11    1    4    4    0    0  0.29793723549E+02 -0.18415765965E+02 -0.10727686639E+02  0.36631812126E+02  0.00000000000E+00 0.  1.
         12    1    4    4    0    0 -0.20637585741E+02  0.34865372337E+02  0.22463958234E+02  0.46326380745E+02  0.00000000000E+00 0. -1.
        -11    1    3    3    0    0  0.31613525614E+02 -0.12814471010E+01  0.13543393025E+02  0.34416283981E+02  0.00000000000E+00 0.  1.
         11    1    3    3    0    0 -0.42259464069E+02 -0.35738403578E+02  0.11902578811E+03  0.13126398603E+03  0.00000000000E+00 0. -1.
          1    1    1    2  501    0  0.14898006464E+01  0.20570244307E+02 -0.18065857730E+02  0.27417689041E+02  0.00000000000E+00 0. -1.
<scales pt_clust_5="13000.00000" pt_clust_6="13000.00000" pt_clust_7="13000.00000" pt_clust_8="13000.00000" pt_clust_9="20.62412"></scales>
<clustering>
<clus scale="   20.624">  2  9  1 -1</clus>
<clus scale="   79.937">  5  6 -1 -1</clus>
<clus scale="   86.158">  2  5  1 -1</clus>
<clus scale="   91.605">  7  8 -1 -1</clus>
<clus scale="   20.624">  2  5  1 -1</clus>
</clustering>
</event>
<event>
 9    2  0.3764910E-005  0.9448024E+02  0.7546771E-02  0.1297845E+00
          2   -1    0    0  502    0 -0.00000000000E+00  0.00000000000E+00  0.13262962118E+03  0.13262962118E+03  0.00000000000E+00 0. -1.
         21   -1    0    0  501  502  0.00000000000E+00 -0.00000000000E+00 -0.96797122794E+02  0.96797122794E+02  0.00000000000E+00 0.  1.
         23    2    1    2    0    0  0.26456367126E+02 -0.19492674691E+02  0.63864625202E+02  0.11601671974E+03  0.91111388849E+02 0.  0.
         24    2    1    2    0    0 -0.11548505283E+02 -0.29378693003E+01 -0.25845375701E+02  0.86388634031E+02  0.81566007591E+02 0.  0.
        -13    1    4    4    0    0  0.21517431535E+02  0.19939249845E+02 -0.34472515901E+02  0.45265084743E+02  0.00000000000E+00 0.  1.
         14    1    4    4    0    0 -0.33065936818E+02 -0.22877119146E+02  0.86271401998E+01  0.41123549288E+02  0.00000000000E+00 0. -1.
        -13    1    3    3    0    0  0.40070917680E+02 -0.49167240871E+02  0.48964216469E+02  0.80128587364E+02  0.00000000000E+00 0.  1.
         13    1    3    3    0    0 -0.13614550554E+02  0.29674566180E+02  0.14900408733E+02  0.35888132372E+02  0.00000000000E+00 0. -1.
          1    1    1    2  501    0 -0.14907861843E+02  0.22430543992E+02 -0.21867511120E+01  0.27021390211E+02  0.00000000000E+00 0. -1.
<scales pt_clust_5="13000.00000" pt_clust_6="13000.00000" pt_clust_7="13000.00000" pt_clust_8="13000.00000" pt_clust_9="26.93276"></scales>
<clustering>
<clus scale="   26.933">  2  9  1 -1</clus>
<clus scale="   81.566">  5  6 -1 -1</clus>
<clus scale="   85.313">  2  5  1 -1</clus>
<clus scale="   91.111">  7  8 -1 -1</clus>
<clus scale="   26.933">  2  5  1 -1</clus>
</clustering>
</event>
<event>
 9    2  0.3764910E-005  0.9588141E+02  0.7546771E-02  0.1304268E+00
          2   -1    0    0  502    0 -0.00000000000E+00  0.00000000000E+00  0.73050184489E+02  0.73050184489E+02  0.00000000000E+00 0. -1.
         21   -1    0    0  501  502  0.00000000000E+00 -0.00000000000E+00 -0.42003070217E+03  0.42003070217E+03  0.00000000000E+00 0.  1.
         23    2    1    2    0    0 -0.66663151897E+01 -0.29181019506E+02 -0.10545334202E+02  0.97273575823E+02  0.91950926163E+02 0.  0.
         24    2    1    2    0    0  0.60000218210E+02 -0.13114631142E+02 -0.30946965532E+03  0.32259141786E+03  0.67243851608E+02 0.  0.
        -11    1    4    4    0    0  0.66437862863E+02 -0.53663704938E+01 -0.30381182161E+03  0.31103763519E+03  0.00000000000E+00 0.  1.
         12    1    4    4    0    0 -0.64376446535E+01 -0.77482606484E+01 -0.56578337100E+01  0.11553782673E+02  0.00000000000E+00 0. -1.
        -11    1    3    3    0    0 -0.11111493877E+02 -0.57379776354E+02  0.13459251613E+02  0.59975457352E+02  0.00000000000E+00 0.  1.
         11    1    3    3    0    0  0.44451786870E+01  0.28198756848E+02 -0.24004585815E+02  0.37298118471E+02  0.00000000000E+00 0. -1.
          1    1    1    2  501    0 -0.53333903020E+02  0.42295650648E+02 -0.26965528158E+02  0.73215892974E+02  0.00000000000E+00 0. -1.
<scales pt_clust_5="13000.00000" pt_clust_6="13000.00000" pt_clust_7="13000.00000" pt_clust_8="13000.00000" pt_clust_9="68.06932"></scales>
<clustering>
<clus scale="   67.244">  5  6 -1 -1</clus>
<clus scale="   68.069">  2  9  1 -1</clus>
<clus scale="   72.526">  2  5  1 -1</clus>
<clus scale="   91.951">  7  8 -1 -1</clus>
<clus scale="   68.069">  2  5  1 -1</clus>
</clustering>
</event>
<event>
 9    2  0.3764910E-005  0.1880745E+03  0.7546771E-02  0.1161398E+00
         21   -1    0    0  501  502  0.00000000000E+00  0.00000000000E+00  0.32377058642E+02  0.32377058642E+02  0.00000000000E+00 0.  1.
          2   -1    0    0  502    0 -0.00000000000E+00 -0.00000000000E+00 -0.16935460561E+04  0.16935460561E+04  0.00000000000E+00 0. -1.
         24    2    1    2    0    0 -0.32948153851E+02  0.15142066936E+03 -0.10960294610E+04  0.11114727827E+04  0.10038609113E+03 0.  0.
         23    2    1    2    0    0  0.77108959031E+02 -0.15572291641E+03 -0.43854502889E+03  0.48030542761E+03  0.90422028135E+02 0.  0.
        -11    1    3    3    0    0  0.31399146434E+02  0.29987939374E+02 -0.17829048231E+03  0.18350116889E+03  0.00000000000E+00 0.  1.
         12    1    3    3    0    0 -0.64347300285E+02  0.12143272999E+03 -0.91773897873E+03  0.92797161382E+03  0.00000000000E+00 0. -1.
        -13    1    4    4    0    0  0.27128646062E+01 -0.85333434801E+02 -0.26903737553E+03  0.28225921448E+03  0.00000000000E+00 0. -1.
         13    1    4    4    0    0  0.74396094425E+02 -0.70389481611E+02 -0.16950765336E+03  0.19804621313E+03  0.00000000000E+00 0.  1.
          1    1    1    2  501    0 -0.44160805180E+02  0.43022470470E+01 -0.12659450751E+03  0.13414490440E+03  0.00000000000E+00 0. -1.
<scales pt_clust_5="13000.00000" pt_clust_6="13000.00000" pt_clust_7="13000.00000" pt_clust_8="13000.00000" pt_clust_9="44.36988"></scales>
<clustering>
<clus scale="   44.370">  1  9  2 -1</clus>
<clus scale="   90.422">  7  8 -1 -1</clus>
<clus scale="  100.386">  5  6 -1 -1</clus>
<clus scale="  182.950">  1  7  2 -1</clus>
<clus scale="   44.370">  1  5  2 -1</clus>
</clustering>
</event>
<event>
 9    2  0.3764910E-005  0.9890205E+02  0.7546771E-02  0.1283663E+00
         -1   -1    0    0    0  501 -0.00000000000E+00  0.00000000000E+00  0.80409275951E+03  0.80409275951E+03  0.00000000000E+00 0.  1.
         21   -1    0    0  501  502  0.00000000000E+00 -0.00000000000E+00 -0.52793559783E+02  0.52793559783E+02  0.00000000000E+00 0.  1.
         24    2    1    2    0    0 -0.32680496477E+02 -0.22203178589E+02  0.71334101283E+03  0.71994273955E+03  0.88888422507E+02 0.  0.
         23    2    1    2    0    0  0.34229320877E+02 -0.57921883342E+00  0.56525831231E+01  0.97382380007E+02  0.90991177252E+02 0.  0.
        -11    1    3    3    0    0  0.41317736147E+01 -0.43583492010E+02  0.19487581717E+03  0.19973276258E+03  0.00000000000E+00 0.  1.
         12    1    3    3    0    0 -0.36812270091E+02  0.21380313422E+02  0.51846519565E+03  0.52020997697E+03  0.00000000000E+00 0. -1.
        -13    1    4    4    0    0 -0.40854328112E+01 -0.27806193355E+02 -0.27923672268E+02  0.39618261232E+02  0.00000000000E+00 0.  1.
         13    1    4    4    0    0  0.38314753688E+02  0.27226974522E+02  0.33576255391E+02  0.57764118775E+02  0.00000000000E+00 0. -1.
         -2    1    1    2    0  502 -0.15488244002E+01  0.22782397422E+02  0.32305603771E+02  0.39561199733E+02  0.00000000000E+00 0.  1.
<scales pt_clust_5="13000.00000" pt_clust_6="13000.00000" pt_clust_7="13000.00000" pt_clust_8="13000.00000" pt_clust_9="22.83498"></scales>
<clustering>
<clus scale="   22.835">  2  9  1 -1</clus>
<clus scale="   88.888">  5  6 -1 -1</clus>
<clus scale="   90.991">  7  8 -1 -1</clus>
<clus scale="   96.971">  1  5  2 -1</clus>
<clus scale="   22.835">  2  5  1 -1</clus>
</clustering>
</event>
<event>
 9    2  0.3764910E-005  0.1022465E+03  0.7546771E-02  0.1282429E+00
         21   -1    0    0  501  502  0.00000000000E+00  0.00000000000E+00  0.33494122688E+02  0.33494122688E+02  0.00000000000E+00 0. -1.
         -3   -1    0    0    0  501 -0.00000000000E+00 -0.00000000000E+00 -0.45550083301E+03  0.45550083301E+03  0.00000000000E+00 0.  1.
         23    2    1    2    0    0 -0.28661654949E+02  0.60737389720E+01 -0.24904114832E+03  0.26846296452E+03  0.95877468623E+02 0.  0.
         24    2    1    2    0    0  0.43878521774E+02  0.16320304998E+02 -0.16809834690E+03  0.19302315580E+03  0.82517921783E+02 0.  0.
        -11    1    4    4    0    0  0.38708235812E+02 -0.29557453599E+02 -0.85678758160E+02  0.98553641144E+02  0.00000000000E+00 0.  1.
         12    1    4    4    0    0  0.51702859623E+01  0.45877758597E+02 -0.82419588738E+02  0.94469514652E+02  0.00000000000E+00 0. -1.
        -13    1    3    3    0    0  0.24741934593E+01  0.43378618559E+02 -0.17179898251E+03  0.17720811656E+03  0.00000000000E+00 0. -1.
         13    1    3    3    0    0 -0.31135848408E+02 -0.37304879587E+02 -0.77242165813E+02  0.91254847962E+02  0.00000000000E+00 0.  1.
         -4    1    1    2    0  502 -0.15216866825E+02 -0.22394043970E+02 -0.48672150992E+01  0.27508835383E+02  0.00000000000E+00 0.  1.
<scales pt_clust_5="13000.00000" pt_clust_6="13000.00000" pt_clust_7="13000.00000" pt_clust_8="13000.00000" pt_clust_9="27.07483"></scales>
<clustering>
<clus scale="   27.075">  1  9  2 -1</clus>
<clus scale="   82.518">  5  6 -1 -1</clus>
<clus scale="   89.839">  1  5  2 -1</clus>
<clus scale="   95.877">  7  8 -1 -1</clus>
<clus scale="   27.075">  1  5  2 -1</clus>
</clustering>
</event>
<event>
 9    2  0.3764910E-005  0.1526134E+03  0.7546771E-02  0.1221197E+00
          2   -1    0    0  502    0 -0.00000000000E+00  0.00000000000E+00  0.13245012226E+03  0.13245012226E+03  0.00000000000E+00 0. -1.
         21   -1    0    0  501  502  0.00000000000E+00 -0.00000000000E+00 -0.25671212530E+03  0.25671212530E+03  0.00000000000E+00 0. -1.
         23    2    1    2    0    0 -0.60200373116E+01  0.68952626238E+01 -0.47417829544E+02  0.10310018398E+03  0.91090130547E+02 0.  0.
         24    2    1    2    0    0  0.76048796531E+02 -0.10277515297E+03 -0.47422847295E+02  0.16374037733E+03  0.90641233450E+02 0.  0.
        -13    1    4    4    0    0  0.43893612795E+01 -0.33477871731E+02 -0.54165247211E+02  0.63827175980E+02  0.00000000000E+00 0.  1.
         14    1    4    4    0    0  0.71659435252E+02 -0.69297281242E+02  0.67423999167E+01  0.99913201354E+02  0.00000000000E+00 0. -1.
        -11    1    3    3    0    0 -0.33668442853E+02 -0.30231744860E+02 -0.22740773867E+02  0.50642524004E+02  0.00000000000E+00 0.  1.
         11    1    3    3    0    0  0.27648405542E+02  0.37127007484E+02 -0.24677055677E+02  0.52457659980E+02  0.00000000000E+00 0. -1.
          1    1    1    2  501    0 -0.70028759220E+02  0.95879890349E+02 -0.29421326197E+02  0.12232168625E+03  0.00000000000E+00 0. -1.
<scales pt_clust_5="13000.00000" pt_clust_6="13000.00000" pt_clust_7="13000.00000" pt_clust_8="13000.00000" pt_clust_9="122.78033"></scales>
<clustering>
<clus scale="   90.641">  5  6 -1 -1</clus>
<clus scale="   91.090">  7  8 -1 -1</clus>
<clus scale="   91.549">  1  7  2 -1</clus>
<clus scale="  122.780">  2  9  1 -1</clus>
<clus scale="  122.780">  2  5  1 -1</clus>
</clustering>
</event>
<event>
 9    2  0.3764910E-005  0.1564610E+03  0.7546771E-02  0.1221183E+00
         21   -1    0    0  501  502  0.00000000000E+00  0.00000000000E+00  0.35820980219E+02  0.35820980219E+02  0.00000000000E+00 0. -1.
          2   -1    0    0  502    0 -0.00000000000E+00 -0.00000000000E+00 -0.10638837804E+04  0.10638837804E+04  0.00000000000E+00 0. -1.
         23    2    1    2    0    0  0.16635393009E+02  0.22739049986E+02 -0.37855318012E+03  0.38797558047E+03  0.80179424844E+02 0.  0.
         24    2    1    2    0    0  0.77910100088E+02  0.88743343696E+02 -0.32356053347E+03  0.35450378713E+03  0.83881771098E+02 0.  0.
        -13    1    4    4    0    0  0.45036688264E+02  0.47903130553E+02 -0.71857445714E+02  0.97398694607E+02  0.00000000000E+00 0.  1.
         14    1    4    4    0    0  0.32873411824E+02  0.40840213143E+02 -0.25170308775E+03  0.25710509252E+03  0.00000000000E+00 0. -1.
        -11    1    3    3    0    0  0.46913039286E+02  0.10628856433E+02 -0.28177026502E+03  0.28584661638E+03  0.00000000000E+00 0. -1.
         11    1    3    3    0    0 -0.30277646277E+02  0.12110193552E+02 -0.96782915097E+02  0.10212896409E+03  0.00000000000E+00 0.  1.
          1    1    1    2  501    0 -0.94545493097E+02 -0.11148239368E+03 -0.32594908655E+03  0.35722539298E+03  0.00000000000E+00 0. -1.
<scales pt_clust_5="13000.00000" pt_clust_6="13000.00000" pt_clust_7="13000.00000" pt_clust_8="13000.00000" pt_clust_9="132.07539"></scales>
<clustering>
<clus scale="   80.179">  7  8 -1 -1</clus>
<clus scale="   83.882">  5  6 -1 -1</clus>
<clus scale="   84.986">  2  7  1 -1</clus>
<clus scale="  132.075">  1  9  2 -1</clus>
<clus scale="  132.075">  1  5  2 -1</clus>
</clustering>
</event>
<event>
 9    2  0.3764910E-005  0.1306827E+03  0.7546771E-02  0.1228774E+00
          2   -1    0    0  502    0 -0.00000000000E+00  0.00000000000E+00  0.14032261118E+03  0.14032261118E+03  0.00000000000E+00 0. -1.
         21   -1    0    0  501  502  0.00000000000E+00 -0.00000000000E+00 -0.31113626135E+03  0.31113626135E+03  0.00000000000E+00 0. -1.
         24    2    1    2    0    0  0.90753469218E+02 -0.12309231812E+02  0.47026680145E+02  0.13055483053E+03  0.80282910803E+02 0.  0.
         23    2    1    2    0    0 -0.10458471769E+03 -0.85448948346E+01 -0.43295402585E+02  0.14457443634E+03  0.89533777739E+02 0.  0.
        -13    1    3    3    0    0  0.24859117748E+02 -0.25154615276E+02 -0.15683589910E+02  0.38687276944E+02  0.00000000000E+00 0.  1.
         14    1    3    3    0    0  0.65894351470E+02  0.12845383463E+02  0.62710270055E+02  0.91867553589E+02  0.00000000000E+00 0. -1.
        -11    1    4    4    0    0 -0.64690757681E+02  0.25251332030E+02 -0.57759818576E+02  0.90325636120E+02  0.00000000000E+00 0.  1.
         11    1    4    4    0    0 -0.39893960008E+02 -0.33796226864E+02  0.14464415990E+02  0.54248800220E+02  0.00000000000E+00 0. -1.
          1    1    1    2  501    0  0.13831248471E+02  0.20854126647E+02 -0.17454492773E+03  0.17632960565E+03  0.00000000000E+00 0. -1.
<scales pt_clust_5="13000.00000" pt_clust_6="13000.00000" pt_clust_7="13000.00000" pt_clust_8="13000.00000" pt_clust_9="25.02395"></scales>
<clustering>
<clus scale="   25.024">  2  9  1 -1</clus>
<clus scale="   80.283">  5  6 -1 -1</clus>
<clus scale="   89.534">  7  8 -1 -1</clus>
<clus scale="  124.527">  1  5  2 -1</clus>
<clus scale="   25.024">  2  5  1 -1</clus>
</clustering>
</event>
<event>
 9    2  0.3764910E-005  0.1268492E+03  0.7546771E-02  0.1247619E+00
          2   -1    0    0  502    0 -0.00000000000E+00  0.00000000000E+00  0.12938490307E+04  0.12938490307E+04  0.00000000000E+00 0. -1.
         21   -1    0    0  501  502  0.00000000000E+00 -0.00000000000E+00 -0.23011073409E+02  0.23011073409E+02  0.00000000000E+00 0.  1.
         23    2    1    2    0    0  0.12276976813E+02 -0.10000017952E+02  0.27526974510E+03  0.29047632139E+03  0.91391116637E+02 0.  0.
         24    2    1    2    0    0  0.17983825125E+02  0.97899991867E+02  0.32773665531E+03  0.35211298407E+03  0.81635849624E+02 0.  0.
        -13    1    4    4    0    0 -0.59184231441E+01  0.97325027928E+02  0.20421158512E+03  0.22629529446E+03  0.00000000000E+00 0.  1.
         14    1    4    4    0    0  0.23902248269E+02  0.57496393944E+00  0.12352507018E+03  0.12581768961E+03  0.00000000000E+00 0. -1.
        -11    1    3    3    0    0  0.13641952958E+02  0.39352623080E+02  0.98559103823E+02  0.10699826527E+03  0.00000000000E+00 0. -1.
         11    1    3    3    0    0 -0.13649761454E+01 -0.49352641033E+02  0.17671064128E+03  0.18347805612E+03  0.00000000000E+00 0.  1.
          1    1    1    2  501    0 -0.30260801937E+02 -0.87899973915E+02  0.66783155687E+03  0.67427079865E+03  0.00000000000E+00 0. -1.
<scales pt_clust_5="13000.00000" pt_clust_6="13000.00000" pt_clust_7="13000.00000" pt_clust_8="13000.00000" pt_clust_9="97.08916"></scales>
<clustering>
<clus scale="   81.636">  5  6 -1 -1</clus>
<clus scale="   91.391">  7  8 -1 -1</clus>
<clus scale="   92.753">  1  7  2 -1</clus>
<clus scale="   97.089">  2  9  1 -1</clus>
<clus scale="   97.089">  2  5  1 -1</clus>
</clustering>
</event>
<event>
 9    2  0.3764910E-005  0.1124614E+03  0.7546771E-02  0.1259625E+00
          2   -1    0    0  502    0 -0.00000000000E+00  0.00000000000E+00  0.19943348147E+03  0.19943348147E+03  0.00000000000E+00 0. -1.
         21   -1    0    0  501  502  0.00000000000E+00 -0.00000000000E+00 -0.14002657086E+03  0.14002657086E+03  0.00000000000E+00 0. -1.
         24    2    1    2    0    0  0.81878482791E+02  0.14232446665E+02  0.73081316144E+02  0.13730216883E+03  0.81267203190E+02 0.  0.
         23    2    1    2    0    0 -0.31405350118E+02  0.57437381795E+02 -0.21922547287E+02  0.11411168384E+03  0.90859944232E+02 0.  0.
        -11    1    3    3    0    0  0.20648341456E+02 -0.30710445258E+02  0.39891349378E+02  0.54413281541E+02  0.00000000000E+00 0.  1.
         12    1    3    3    0    0  0.61230141334E+02  0.44942891924E+02  0.33189966766E+02  0.82888887290E+02  0.00000000000E+00 0. -1.
        -11    1    4    4    0    0 -0.43151171050E+02  0.22661174389E+02 -0.48526925359E+02  0.68778011548E+02  0.00000000000E+00 0. -1.
         11    1    4    4    0    0  0.11745820932E+02  0.34776207405E+02  0.26604378072E+02  0.45333672292E+02  0.00000000000E+00 0.  1.
          1    1    1    2  501    0 -0.50473132673E+02 -0.71669828460E+02  0.82481417507E+01  0.88046199666E+02  0.00000000000E+00 0. -1.
<scales pt_clust_5="13000.00000" pt_clust_6="13000.00000" pt_clust_7="13000.00000" pt_clust_8="13000.00000" pt_clust_9="87.65901"></scales>
<clustering>
<clus scale="   81.267">  5  6 -1 -1</clus>
<clus scale="   87.659">  2  9  1 -1</clus>
<clus scale="   90.860">  7  8 -1 -1</clus>
<clus scale="  104.864">  1  5  2 -1</clus>
<clus scale="   87.659">  2  5  1 -1</clus>
</clustering>
</event>
<event>
 9    2  0.3764910E-005  0.1076496E+03  0.7546771E-02  0.1270731E+00
          2   -1    0    0  502    0 -0.00000000000E+00  0.00000000000E+00  0.15424398392E+03  0.15424398392E+03  0.00000000000E+00 0. -1.
         21   -1    0    0  501  502  0.00000000000E+00 -0.00000000000E+00 -0.14793572146E+03  0.14793572146E+03  0.00000000000E+00 0.  1.
         23    2    1    2    0    0  0.61788363374E+01 -0.50369177343E+02  0.73478716411E+02  0.12967599595E+03  0.94029304558E+02 0.  0.
         24    2    1    2    0    0  0.28070246312E+02  0.60241277552E+02 -0.82971431563E+02  0.13351487874E+03  0.80777559629E+02 0.  0.
        -11    1    4    4    0    0  0.49169646885E+02  0.63033203936E+02 -0.77931449219E+02  0.11164295657E+03  0.00000000000E+00 0.  1.
         12    1    4    4    0    0 -0.21099400573E+02 -0.27919263846E+01 -0.50399823440E+01  0.21871922172E+02  0.00000000000E+00 0. -1.
        -13    1    3    3    0    0 -0.38012835807E+01  0.26479686491E+02  0.71969088055E+01  0.27702329322E+02  0.00000000000E+00 0.  1.
         13    1    3    3    0    0  0.99801199182E+01 -0.76848863834E+02  0.66281807605E+02  0.10197366663E+03  0.00000000000E+00 0. -1.
          1    1    1    2  501    0 -0.34249082650E+02 -0.98721002080E+01  0.15800977621E+02  0.38988830691E+02  0.00000000000E+00 0. -1.
<scales pt_clust_5="13000.00000" pt_clust_6="13000.00000" pt_clust_7="13000.00000" pt_clust_8="13000.00000" pt_clust_9="35.64350"></scales>
<clustering>
<clus scale="   35.644">  2  9  1 -1</clus>
<clus scale="   80.778">  5  6 -1 -1</clus>
<clus scale="   94.029">  7  8 -1 -1</clus>
<clus scale="   96.291">  2  5  1 -1</clus>
<clus scale="   35.644">  2  5  1 -1</clus>
</clustering>
</event>
<event>
 9    2  0.3764910E-005  0.1034187E+03  0.7546771E-02  0.1275728E+00
         -1   -1    0    0    0  501 -0.00000000000E+00  0.00000000000E+00  0.22313918881E+03  0.22313918881E+03  0.00000000000E+00 0.  1.
         21   -1    0    0  501  502  0.00000000000E+00 -0.00000000000E+00 -0.20989118836E+03  0.20989118836E+03  0.00000000000E+00 0. -1.
         23    2    1    2    0    0 -0.11503063499E+02 -0.50359824520E+02  0.19003862699E+03  0.21679956631E+03  0.90658368674E+02 0.  0.
         24    2    1    2    0    0 -0.12316270212E+02  0.30272056822E+02 -0.14770427736E+03  0.17360576214E+03  0.85172291062E+02 0.  0.
        -11    1    4    4    0    0  0.81459911153E+01 -0.23521235014E+02 -0.15260528747E+02  0.29197421213E+02  0.00000000000E+00 0.  1.
         12    1    4    4    0    0 -0.20462261327E+02  0.53793291836E+02 -0.13244374861E+03  0.14440834093E+03  0.00000000000E+00 0. -1.
        -13    1    3    3    0    0  0.30204995416E+02 -0.53940215274E+02  0.12502629288E+03  0.13947566986E+03  0.00000000000E+00 0.  1.
         13    1    3    3    0    0 -0.41708058915E+02  0.35803907543E+01  0.65012334106E+02  0.77323896451E+02  0.00000000000E+00 0. -1.
         -2    1    1    2    0  502  0.23819333711E+02  0.20087767698E+02 -0.29086349175E+02  0.42625048713E+02  0.00000000000E+00 0.  1.
<scales pt_clust_5="13000.00000" pt_clust_6="13000.00000" pt_clust_7="13000.00000" pt_clust_8="13000.00000" pt_clust_9="31.15893"></scales>
<clustering>
<clus scale="   31.159">  2  9  1 -1</clus>
<clus scale="   85.172">  5  6 -1 -1</clus>
<clus scale="   90.658">  7  8 -1 -1</clus>
<clus scale="   98.645">  2  5  1 -1</clus>
<clus scale="   31.159">  2  5  1 -1</clus>
</clustering>
</event>
<event>
 9    2  0.3764910E-005  0.1576696E+03  0.7546771E-02  0.1214986E+00
         21   -1    0    0  501  502  0.00000000000E+00  0.00000000000E+00  0.38886110789E+03  0.38886110789E+03  0.00000000000E+00 0.  1.
         -3   -1    0    0    0  501 -0.00000000000E+00 -0.00000000000E+00 -0.10498521100E+03  0.10498521100E+03  0.00000000000E+00 0.  1.
         23    2    1    2    0    0  0.18662871479E+02 -0.13417896843E+02  0.81329505614E+02  0.12477425592E+03  0.91792067899E+02 0.  0.
         24    2    1    2    0    0 -0.93095649470E+02 -0.10023190008E+03  0.53420034673E+02  0.16734158681E+03  0.80226384848E+02 0.  0.
        -11    1    4    4    0    0 -0.84659486689E+02 -0.91323379775E+02  0.13122106741E+02  0.12521732334E+03  0.00000000000E+00 0.  1.
         12    1    4    4    0    0 -0.84361627810E+01 -0.89085203056E+01  0.40297927933E+02  0.42124263461E+02  0.00000000000E+00 0. -1.
        -13    1    3    3    0    0 -0.66991181527E+01  0.34630489696E+02  0.13265011308E+02  0.37684340589E+02  0.00000000000E+00 0. -1.
         13    1    3    3    0    0  0.25361989632E+02 -0.48048386539E+02  0.68064494306E+02  0.87089915330E+02  0.00000000000E+00 0.  1.
         -4    1    1    2    0  502  0.74432777991E+02  0.11364979692E+03  0.14912635660E+03  0.20173047616E+03  0.00000000000E+00 0.  1.
<scales pt_clust_5="13000.00000" pt_clust_6="13000.00000" pt_clust_7="13000.00000" pt_clust_8="13000.00000" pt_clust_9="135.73295"></scales>
<clustering>
<clus scale="   80.226">  5  6 -1 -1</clus>
<clus scale="   91.792">  7  8 -1 -1</clus>
<clus scale="   94.626">  2  7  1 -1</clus>
<clus scale="  135.733">  1  9  2 -1</clus>
<clus scale="  135.733">  1  5  2 -1</clus>
</clustering>
</event>
<event>
 9    2  0.3764910E-005  0.1079651E+03  0.7546771E-02  0.1266188E+00
          2   -1    0    0  502    0 -0.00000000000E+00  0.00000000000E+00  0.49783696635E+03  0.49783696635E+03  0.00000000000E+00 0. -1.
         21   -1    0    0  501  502  0.00000000000E+00 -0.00000000000E+00 -0.60973407951E+02  0.60973407951E+02  0.00000000000E+00 0. -1.
         23    2    1    2    0    0 -0.50446122284E+02 -0.32682963287E+02  0.40892750662E+03  0.42327857074E+03  0.91269137350E+02 0.  0.
         24    2    1    2    0    0  0.25749106570E+02  0.43231430230E+02  0.37341645396E+02  0.10707696335E+03  0.86828017080E+02 0.  0.
        -13    1    4    4    0    0  0.45293764223E+02  0.73588341343E+01 -0.74117542466E+01  0.46482379654E+02  0.00000000000E+00 0.  1.
         14    1    4    4    0    0 -0.19544657653E+02  0.35872596096E+02  0.44753399643E+02  0.60594583694E+02  0.00000000000E+00 0. -1.
        -13    1    3    3    0    0  0.51609986234E+01  0.25399482127E+02  0.14765146186E+03  0.14990905172E+03  0.00000000000E+00 0.  1.
         13    1    3    3    0    0 -0.55607120907E+02 -0.58082445414E+02  0.26127604477E+03  0.27336951902E+03  0.00000000000E+00 0. -1.
          1    1    1    2  501    0  0.24697015714E+02 -0.10548466944E+02 -0.94055936214E+01  0.28454840211E+02  0.00000000000E+00 0. -1.
<scales pt_clust_5="13000.00000" pt_clust_6="13000.00000" pt_clust_7="13000.00000" pt_clust_8="13000.00000" pt_clust_9="26.85540"></scales>
<clustering>
<clus scale="   26.855">  2  9  1 -1</clus>
<clus scale="   86.828">  5  6 -1 -1</clus>
<clus scale="   91.269">  7  8 -1 -1</clus>
<clus scale="  104.238">  2  5  1 -1</clus>
<clus scale="   26.855">  2  5  1 -1</clus>
</clustering>
</event>
<event>
 9    2  0.1073640E-004  0.9338553E+02  0.7546771E-02  0.1298679E+00
         21   -1    0    0  501  502  0.00000000000E+00  0.00000000000E+00  0.56023680138E+02  0.56023680138E+02  0.00000000000E+00 0.  1.
          2   -1    0    0  502    0 -0.00000000000E+00 -0.00000000000E+00 -0.89216639267E+03  0.89216639267E+03  0.00000000000E+00 0. -1.
         24    2    1    2    0    0  0.19833727002E+02 -0.40687501687E+01 -0.82070821206E+03  0.82529474507E+03  0.84495653395E+02 0.  0.
         23    2    1    2    0    0 -0.24107750488E+02  0.27289136432E+02 -0.93647890484E+01  0.98517161034E+02  0.91060700324E+02 0.  0.
        -13    1    3    3    0    0 -0.19658720467E+02  0.11632538946E+02 -0.75602054925E+02  0.78977540868E+02  0.00000000000E+00 0.  1.
         14    1    3    3    0    0  0.39492447469E+02 -0.15701289115E+02 -0.74510615714E+03  0.74631720420E+03  0.00000000000E+00 0. -1.
        -11    1    4    4    0    0 -0.18428683795E+02  0.60623445488E+02  0.24675230277E+00  0.63363076124E+02  0.00000000000E+00 0.  1.
         11    1    4    4    0    0 -0.56790666933E+01 -0.33334309056E+02 -0.96115413511E+01  0.35154084910E+02  0.00000000000E+00 0. -1.
          1    1    1    2  501    0  0.42740234860E+01 -0.23220386263E+02 -0.60697114203E+01  0.24378166701E+02  0.00000000000E+00 0. -1.
<scales pt_clust_5="13000.00000" pt_clust_6="13000.00000" pt_clust_7="13000.00000" pt_clust_8="13000.00000" pt_clust_9="23.61046"></scales>
<clustering>
<clus scale="   23.610">  1  9  2 -1</clus>
<clus scale="   84.496">  5  6 -1 -1</clus>
<clus scale="   86.996">  2  5  1 -1</clus>
<clus scale="   91.061">  7  8 -1 -1</clus>
<clus scale="   23.610">  1  5  2 -1</clus>
</clustering>
</event>
<event>
 9    2  0.3764910E-005  0.9479218E+02  0.7546771E-02  0.1297304E+00
          2   -1    0    0  502    0 -0.00000000000E+00  0.00000000000E+00  0.96341811300E+02  0.96341811300E+02  0.00000000000E+00 0. -1.
         21   -1    0    0  501  502  0.00000000000E+00 -0.00000000000E+00 -0.22094885293E+03  0.22094885293E+03  0.00000000000E+00 0. -1.
         23    2    1    2    0    0  0.92149494657E+01  0.29179962677E+02  0.50360207120E+02  0.10816773940E+03  0.90706801681E+02 0.  0.
         24    2    1    2    0    0  0.15802630386E+02 -0.18519376092E+02 -0.10941580892E+03  0.13815449049E+03  0.80759851309E+02 0.  0.
        -13    1    4    4    0    0 -0.28258842201E+02  0.87476329582E+01 -0.23318531493E+02  0.37667454863E+02  0.00000000000E+00 0.  1.
         14    1    4    4    0    0  0.44061472587E+02 -0.27267009050E+02 -0.86097277430E+02  0.10048703563E+03  0.00000000000E+00 0. -1.
        -11    1    3    3    0    0 -0.13194325432E+02  0.39669597850E+02  0.66555083575E+02  0.78596096384E+02  0.00000000000E+00 0.  1.
         11    1    3    3    0    0  0.22409274898E+02 -0.10489635172E+02 -0.16194876455E+02  0.29571643020E+02  0.00000000000E+00 0. -1.
          1    1    1    2  501    0 -0.25017579852E+02 -0.10660586585E+02 -0.65551439825E+02  0.70968434329E+02  0.00000000000E+00 0. -1.
<scales pt_clust_5="13000.00000" pt_clust_6="13000.00000" pt_clust_7="13000.00000" pt_clust_8="13000.00000" pt_clust_9="27.19425"></scales>
<clustering>
<clus scale="   27.194">  2  9  1 -1</clus>
<clus scale="   80.760">  5  6 -1 -1</clus>
<clus scale="   85.323">  2  5  1 -1</clus>
<clus scale="   90.707">  7  8 -1 -1</clus>
<clus scale="   27.194">  2  5  1 -1</clus>
</clustering>
</event>
<event>
 9    2  0.3764910E-005  0.1371292E+03  0.7546771E-02  0.1219247E+00
          2   -1    0    0  502    0 -0.00000000000E+00  0.00000000000E+00  0.13298674643E+04  0.13298674643E+04  0.00000000000E+00 0. -1.
         21   -1    0    0  501  502  0.00000000000E+00 -0.00000000000E+00 -0.17116844849E+03  0.17116844849E+03  0.00000000000E+00 0. -1.
         24    2    1    2    0    0  0.10831471400E+02 -0.11816185793E+03  0.83085003428E+03  0.84313950196E+03  0.80578501324E+02 0.  0.
         23    2    1    2    0    0 -0.79282085799E+02  0.63666779740E+02  0.47101605139E+03  0.49011080346E+03  0.89517434192E+02 0.  0.
        -11    1    3    3    0    0  0.20809844275E+02 -0.11828742298E+03  0.59091832456E+03  0.60300035684E+03  0.00000000000E+00 0.  1.
         12    1    3    3    0    0 -0.99783728757E+01  0.12556505184E+00  0.23993170972E+03  0.24013914512E+03  0.00000000000E+00 0. -1.
        -13    1    4    4    0    0 -0.74779611854E+01  0.60272305893E+02  0.16667881553E+03  0.17739926242E+03  0.00000000000E+00 0.  1.
         13    1    4    4    0    0 -0.71804124614E+02  0.33944738473E+01  0.30433723586E+03  0.31271154103E+03  0.00000000000E+00 0. -1.
          1    1    1    2  501    0  0.68450614399E+02  0.54495078188E+02 -0.14316706984E+03  0.16778560738E+03  0.00000000000E+00 0. -1.
<scales pt_clust_5="13000.00000" pt_clust_6="13000.00000" pt_clust_7="13000.00000" pt_clust_8="13000.00000" pt_clust_9="87.49400"></scales>
<clustering>
<clus scale="   80.579">  5  6 -1 -1</clus>
<clus scale="   87.494">  2  9  1 -1</clus>
<clus scale="   89.517">  7  8 -1 -1</clus>
<clus scale="  131.468">  1  5  2 -1</clus>
<clus scale="   87.494">  2  5  1 -1</clus>
</clustering>
</event>
<event>
 9    2  0.3764910E-005  0.1384085E+03  0.7546771E-02  0.1232401E+00
         -3   -1    0    0    0  501 -0.00000000000E+00  0.00000000000E+00  0.14037809242E+03  0.14037809242E+03  0.00000000000E+00 0.  1.
         21   -1    0    0  501  502  0.00000000000E+00 -0.00000000000E+00 -0.21678471785E+03  0.21678471785E+03  0.00000000000E+00 0.  1.
         23    2    1    2    0    0 -0.89774321666E+00 -0.18120303883E+02 -0.13152849980E+02  0.98144529113E+02  0.95552078870E+02 0.  0.
         24    2    1    2    0    0 -0.10994052714E+03 -0.66569787329E+01 -0.26330314526E+02  0.13959308333E+03  0.81619290459E+02 0.  0.
        -11    1    4    4    0    0 -0.58365278382E+02 -0.41298492833E+02  0.15021988309E+01  0.71514528819E+02  0.00000000000E+00 0.  1.
         12    1    4    4    0    0 -0.51575248760E+02  0.34641514100E+02 -0.27832513357E+02  0.68078554506E+02  0.00000000000E+00 0. -1.
        -13    1    3    3    0    0 -0.32207451655E+02  0.27183944862E+02 -0.71416040345E+01  0.42746804659E+02  0.00000000000E+00 0.  1.
         13    1    3    3    0    0  0.31309708439E+02 -0.45304248745E+02 -0.60112459453E+01  0.55397724454E+02  0.00000000000E+00 0. -1.
         -4    1    1    2    0  502  0.11083827036E+03  0.24777282616E+02 -0.36923460920E+02  0.11942519783E+03  0.00000000000E+00 0.  1.
<scales pt_clust_5="13000.00000" pt_clust_6="13000.00000" pt_clust_7="13000.00000" pt_clust_8="13000.00000" pt_clust_9="111.78194"></scales>
<clustering>
<clus scale="   81.619">  5  6 -1 -1</clus>
<clus scale="   95.552">  7  8 -1 -1</clus>
<clus scale="   97.259">  1  7  2 -1</clus>
<clus scale="  111.782">  2  9  1 -1</clus>
<clus scale="  111.782">  2  5  1 -1</clus>
</clustering>
</event>
<event>
 9    2  0.3764910E-005  0.1252183E+03  0.7546771E-02  0.1236762E+00
          2   -1    0    0  502    0 -0.00000000000E+00  0.00000000000E+00  0.62338968739E+03  0.62338968739E+03  0.00000000000E+00 0. -1.
         21   -1    0    0  501  502  0.00000000000E+00 -0.00000000000E+00 -0.37602184026E+02  0.37602184026E+02  0.00000000000E+00 0.  1.
         24    2    1    2    0    0 -0.45241654968E+02  0.55568030055E+02  0.22594155241E+03  0.25034436857E+03  0.80548770680E+02 0.  0.
         23    2    1    2    0    0  0.76251625560E+02 -0.78169516196E+02  0.33926565376E+03  0.36710448866E+03  0.87975781407E+02 0.  0.
        -13    1    3    3    0    0 -0.35834684265E+02 -0.47419206371E+00  0.31315893689E+02  0.47592380189E+02  0.00000000000E+00 0.  1.
         14    1    3    3    0    0 -0.94069707031E+01  0.56042222119E+02  0.19462565872E+03  0.20275198838E+03  0.00000000000E+00 0. -1.
        -13    1    4    4    0    0 -0.10749024957E+02 -0.24873546743E+02  0.25655863920E+02  0.37315656481E+02  0.00000000000E+00 0.  1.
         13    1    4    4    0    0  0.87000650517E+02 -0.53295969453E+02  0.31360978984E+03  0.32978883218E+03  0.00000000000E+00 0. -1.
          1    1    1    2  501    0 -0.31009970592E+02  0.22601486140E+02  0.20580297195E+02  0.43543014188E+02  0.00000000000E+00 0. -1.
<scales pt_clust_5="13000.00000" pt_clust_6="13000.00000" pt_clust_7="13000.00000" pt_clust_8="13000.00000" pt_clust_9="38.37246"></scales>
<clustering>
<clus scale="   38.372">  2  9  1 -1</clus>
<clus scale="   80.549">  5  6 -1 -1</clus>
<clus scale="   87.976">  7  8 -1 -1</clus>
<clus scale="  120.117">  1  5  2 -1</clus>
<clus scale="   38.372">  2  5  1 -1</clus>
</clustering>
</event>
<event>
 9    2  0.3764910E-005  0.8945642E+02  0.7546771E-02  0.1309977E+00
         21   -1    0    0  501  502  0.00000000000E+00  0.00000000000E+00  0.74185871906E+02  0.74185871906E+02  0.00000000000E+00 0. -1.
         -1   -1    0    0    0  501 -0.00000000000E+00 -0.00000000000E+00 -0.16233277426E+03  0.16233277426E+03  0.00000000000E+00 0.  1.
         23    2    1    2    0    0 -0.30504506191E+02  0.13304764833E+01 -0.39036525475E+02  0.86013768621E+02  0.70300945979E+02 0.  0.
         24    2    1    2    0    0  0.54987303578E+02  0.17429240083E+02 -0.82610320628E+01  0.99318909688E+02  0.80427726601E+02 0.  0.
        -11    1    4    4    0    0  0.21468500393E+02 -0.20341487931E+02 -0.31952398962E+02  0.43538815324E+02  0.00000000000E+00 0.  1.
         12    1    4    4    0    0  0.33518803185E+02  0.37770728014E+02  0.23691366899E+02  0.55780094364E+02  0.00000000000E+00 0. -1.
        -11    1    3    3    0    0 -0.52283866930E+02  0.30096047663E+01 -0.17188908652E+02  0.55119134995E+02  0.00000000000E+00 0. -1.
         11    1    3    3    0    0  0.21779360739E+02 -0.16791282830E+01 -0.21847616823E+02  0.30894633625E+02  0.00000000000E+00 0.  1.
         -2    1    1    2    0  502 -0.24482797387E+02 -0.18759716566E+02 -0.40849344816E+02  0.51185967857E+02  0.00000000000E+00 0.  1.
<scales pt_clust_5="13000.00000" pt_clust_6="13000.00000" pt_clust_7="13000.00000" pt_clust_8="13000.00000" pt_clust_9="30.84372"></scales>
<clustering>
<clus scale="   30.844">  1  9  2 -1</clus>
<clus scale="   70.301">  7  8 -1 -1</clus>
<clus scale="   80.428">  5  6 -1 -1</clus>
<clus scale="   80.474">  2  7  1 -1</clus>
<clus scale="   30.844">  1  5  2 -1</clus>
</clustering>
</event>
<event>
 9    2  0.3764910E-005  0.1141774E+03  0.7546771E-02  0.1262323E+00
          2   -1    0    0  502    0 -0.00000000000E+00  0.00000000000E+00  0.77074629023E+03  0.77074629023E+03  0.00000000000E+00 0. -1.
         21   -1    0    0  501  502  0.00000000000E+00 -0.00000000000E+00 -0.93743091926E+02  0.93743091926E+02  0.00000000000E+00 0. -1.
         24    2    1    2    0    0  0.52989184661E+02  0.17985993458E+02  0.54396476706E+03  0.55261180476E+03  0.79691839673E+02 0.  0.
         23    2    1    2    0    0 -0.28783458624E+02 -0.31643245691E+02  0.20605033352E+03  0.23375475367E+03  0.10175835312E+03 0.  0.
        -11    1    3    3    0    0  0.56558195565E+02  0.38050774720E+02  0.29318020630E+03  0.30100053872E+03  0.00000000000E+00 0.  1.
         12    1    3    3    0    0 -0.35690109044E+01 -0.20064781261E+02  0.25078456075E+03  0.25161126604E+03  0.00000000000E+00 0. -1.
        -13    1    4    4    0    0 -0.16459661923E+00 -0.45355150163E+02  0.19491694583E+03  0.20012429265E+03  0.00000000000E+00 0. -1.
         13    1    4    4    0    0 -0.28618862004E+02  0.13711904472E+02  0.11133387696E+02  0.33630461017E+02  0.00000000000E+00 0.  1.
          1    1    1    2  501    0 -0.24205726037E+02  0.13657252233E+02 -0.73011902281E+02  0.78122823721E+02  0.00000000000E+00 0. -1.
<scales pt_clust_5="13000.00000" pt_clust_6="13000.00000" pt_clust_7="13000.00000" pt_clust_8="13000.00000" pt_clust_9="27.79276"></scales>
<clustering>
<clus scale="   27.793">  2  9  1 -1</clus>
<clus scale="   79.692">  5  6 -1 -1</clus>
<clus scale="   95.039">  1  5  2 -1</clus>
<clus scale="  101.758">  7  8 -1 -1</clus>
<clus scale="   27.793">  2  5  1 -1</clus>
</clustering>
</event>
<event>
 9    2  0.3764910E-005  0.1372112E+03  0.7546771E-02  0.1219875E+00
         21   -1    0    0  501  502  0.00000000000E+00  0.00000000000E+00  0.12482386364E+03  0.12482386364E+03  0.00000000000E+00 0. -1.
          2   -1    0    0  502    0 -0.00000000000E+00 -0.00000000000E+00 -0.62695136070E+03  0.62695136070E+03  0.00000000000E+00 0. -1.
         24    2    1    2    0    0 -0.51432233139E+02  0.97276315488E+02 -0.55480215804E+03  0.57085195541E+03  0.77191736985E+02 0.  0.
         23    2    1    2    0    0  0.44576869941E+02 -0.45006533095E+02  0.48834355592E+01  0.10976761292E+03  0.89511985501E+02 0.  0.
        -11    1    3    3    0    0  0.19143260836E+02  0.10737342872E+02 -0.70260978509E+02  0.73609510720E+02  0.00000000000E+00 0.  1.
         12    1    3    3    0    0 -0.70575493975E+02  0.86538972616E+02 -0.48454117954E+03  0.49724244469E+03  0.00000000000E+00 0. -1.
        -13    1    4    4    0    0 -0.24020818321E+02 -0.23641098535E+02  0.15576116426E+02  0.37128380731E+02  0.00000000000E+00 0.  1.
         13    1    4    4    0    0  0.68597688263E+02 -0.21365434560E+02 -0.10692680867E+02  0.72639232189E+02  0.00000000000E+00 0. -1.
          1    1    1    2  501    0  0.68553631979E+01 -0.52269782393E+02  0.47791225424E+02  0.71155656019E+02  0.00000000000E+00 0. -1.
<scales pt_clust_5="13000.00000" pt_clust_6="13000.00000" pt_clust_7="13000.00000" pt_clust_8="13000.00000" pt_clust_9="52.71742"></scales>
<clustering>
<clus scale="   52.717">  1  9  2 -1</clus>
<clus scale="   77.192">  5  6 -1 -1</clus>
<clus scale="   89.512">  7  8 -1 -1</clus>
<clus scale="  129.511">  2  5  1 -1</clus>
<clus scale="   52.717">  1  5  2 -1</clus>
</clustering>
</event>
<event>
 9    2  0.3764910E-005  0.1181294E+03  0.7546771E-02  0.1248332E+00
         21   -1    0    0  501  502  0.00000000000E+00  0.00000000000E+00  0.40558665698E+03  0.40558665698E+03  0.00000000000E+00 0.  1.
         -1   -1    0    0    0  501 -0.00000000000E+00 -0.00000000000E+00 -0.44145006357E+02  0.44145006357E+02  0.00000000000E+00 0.  1.
         24    2    1    2    0    0  0.50096938958E+02 -0.71961083989E+02  0.10631737860E+03  0.15913458231E+03  0.79575934765E+02 0.  0.
         23    2    1    2    0    0 -0.23437269228E+02  0.65866033207E+02  0.21504541839E+03  0.24207696002E+03  0.86423854814E+02 0.  0.
        -13    1    3    3    0    0  0.52524879483E+02 -0.80584526222E+02  0.63197998364E+02  0.11509437792E+03  0.00000000000E+00 0.  1.
         14    1    3    3    0    0 -0.24279405252E+01  0.86234422332E+01  0.43119380238E+02  0.44040204396E+02  0.00000000000E+00 0. -1.
        -13    1    4    4    0    0 -0.40819079438E+02  0.14965479396E+02  0.40445479795E+02  0.59380128457E+02  0.00000000000E+00 0. -1.
         13    1    4    4    0    0  0.17381810209E+02  0.50900553811E+02  0.17459993860E+03  0.18269683156E+03  0.00000000000E+00 0.  1.
         -2    1    1    2    0  502 -0.26659669730E+02  0.60950507822E+01  0.40078853631E+02  0.48520121007E+02  0.00000000000E+00 0.  1.
<scales pt_clust_5="13000.00000" pt_clust_6="13000.00000" pt_clust_7="13000.00000" pt_clust_8="13000.00000" pt_clust_9="27.34753"></scales>
<clustering>
<clus scale="   27.348">  1  9  2 -1</clus>
<clus scale="   79.576">  5  6 -1 -1</clus>
<clus scale="   86.424">  7  8 -1 -1</clus>
<clus scale="  113.216">  2  5  1 -1</clus>
<clus scale="   27.348">  1  5  2 -1</clus>
</clustering>
</event>
<event>
 9    2  0.4068250E-005  0.1163274E+03  0.7546771E-02  0.1252886E+00
         21   -1    0    0  501  502  0.00000000000E+00  0.00000000000E+00  0.15288947828E+03  0.15288947828E+03  0.00000000000E+00 0. -1.
         -1   -1    0    0    0  501 -0.00000000000E+00 -0.00000000000E+00 -0.56106011581E+03  0.56106011581E+03  0.00000000000E+00 0.  1.
         24    2    1    2    0    0 -0.67001949840E+02 -0.33479350156E+02 -0.49944652359E+03  0.51148069162E+03  0.80966288052E+02 0.  0.
         23    2    1    2    0    0  0.34075371186E+02 -0.29302477230E+02  0.82323224256E+02  0.13101354869E+03  0.91474972512E+02 0.  0.
        -11    1    3    3    0    0 -0.85435197859E+02 -0.22194578212E+02 -0.38244098677E+03  0.39249570787E+03  0.00000000000E+00 0.  1.
         12    1    3    3    0    0  0.18433248020E+02 -0.11284771944E+02 -0.11700553682E+03  0.11898498375E+03  0.00000000000E+00 0. -1.
        -11    1    4    4    0    0  0.56170503454E+02  0.94822847661E+01  0.41003466362E+02  0.70187772699E+02  0.00000000000E+00 0.  1.
         11    1    4    4    0    0 -0.22095132268E+02 -0.38784761996E+02  0.41319757893E+02  0.60825775995E+02  0.00000000000E+00 0. -1.
         -2    1    1    2    0  502  0.32926578653E+02  0.62781827386E+02  0.89526618027E+01  0.71455353789E+02  0.00000000000E+00 0.  1.
<scales pt_clust_5="13000.00000" pt_clust_6="13000.00000" pt_clust_7="13000.00000" pt_clust_8="13000.00000" pt_clust_9="70.89229"></scales>
<clustering>
<clus scale="   70.892">  1  9  2 -1</clus>
<clus scale="   80.966">  5  6 -1 -1</clus>
<clus scale="   91.475">  7  8 -1 -1</clus>
<clus scale="  108.259">  2  5  1 -1</clus>
<clus scale="   70.892">  1  5  2 -1</clus>
</clustering>
</event>
<event>
 9    2  0.3764910E-005  0.9856689E+02  0.7546771E-02  0.1294979E+00
         -1   -1    0    0    0  501 -0.00000000000E+00  0.00000000000E+00  0.40372234202E+03  0.40372234202E+03  0.00000000000E+00 0.  1.
         21   -1    0    0  501  502  0.00000000000E+00 -0.00000000000E+00 -0.10799081348E+03  0.10799081348E+03  0.00000000000E+00 0.  1.
         23    2    1    2    0    0  0.76990917311E+01 -0.80297907368E+01  0.33862181010E+03  0.35278303005E+03  0.98322848137E+02 0.  0.
         24    2    1    2    0    0  0.41502791138E+02  0.27671047709E+00  0.56819997307E+01  0.89358564870E+02  0.78931044296E+02 0.  0.
        -13    1    4    4    0    0  0.64295961183E+01 -0.32716945856E+02 -0.15479616288E+02  0.36760804844E+02  0.00000000000E+00 0.  1.
         14    1    4    4    0    0  0.35073195020E+02  0.32993656333E+02  0.21161616018E+02  0.52597760025E+02  0.00000000000E+00 0. -1.
        -11    1    3    3    0    0  0.52755168010E+01  0.44233082166E+02  0.12038732469E+03  0.12836473263E+03  0.00000000000E+00 0. -1.
         11    1    3    3    0    0  0.24235749301E+01 -0.52262872903E+02  0.21823448541E+03  0.22441829743E+03  0.00000000000E+00 0.  1.
         -2    1    1    2    0  502 -0.49201882869E+02  0.77530802597E+01 -0.48572281289E+02  0.69571560576E+02  0.00000000000E+00 0.  1.
<scales pt_clust_5="13000.00000" pt_clust_6="13000.00000" pt_clust_7="13000.00000" pt_clust_8="13000.00000" pt_clust_9="49.80899"></scales>
<clustering>
<clus scale="   49.809">  2  9  1 -1</clus>
<clus scale="   78.931">  5  6 -1 -1</clus>
<clus scale="   79.235">  2  5  1 -1</clus>
<clus scale="   98.323">  7  8 -1 -1</clus>
<clus scale="   49.809">  2  5  1 -1</clus>
</clustering>
</event>
<event>
 9    2  0.3764910E-005  0.1101847E+03  0.7546771E-02  0.1269699E+00
          2   -1    0    0  502    0 -0.00000000000E+00  0.00000000000E+00  0.28906229571E+03  0.28906229571E+03  0.00000000000E+00 0. -1.
         21   -1    0    0  501  502  0.00000000000E+00 -0.00000000000E+00 -0.80353737264E+02  0.80353737264E+02  0.00000000000E+00 0.  1.
         24    2    1    2    0    0  0.41491249757E+02  0.95834491527E+01  0.21658735271E+03  0.23520015965E+03  0.81213714621E+02 0.  0.
         23    2    1    2    0    0 -0.34260727359E+02 -0.30727683637E+02 -0.68697784225E+01  0.11184676027E+03  0.10170799352E+03 0.  0.
        -13    1    3    3    0    0  0.33308114848E+02 -0.33825428883E+02  0.11626877793E+03  0.12558669864E+03  0.00000000000E+00 0.  1.
         14    1    3    3    0    0  0.81831349091E+01  0.43408878036E+02  0.10031857478E+03  0.10961346102E+03  0.00000000000E+00 0. -1.
        -13    1    4    4    0    0  0.20766330137E+02 -0.45153663611E+02 -0.19817292394E+02  0.53505316396E+02  0.00000000000E+00 0.  1.
         13    1    4    4    0    0 -0.55027057496E+02  0.14425979973E+02  0.12947513971E+02  0.58341443871E+02  0.00000000000E+00 0. -1.
          1    1    1    2  501    0 -0.72305223982E+01  0.21144234485E+02 -0.10090158378E+01  0.22369113059E+02  0.00000000000E+00 0. -1.
<scales pt_clust_5="13000.00000" pt_clust_6="13000.00000" pt_clust_7="13000.00000" pt_clust_8="13000.00000" pt_clust_9="22.34634"></scales>
<clustering>
<clus scale="   22.346">  2  9  1 -1</clus>
<clus scale="   81.214">  5  6 -1 -1</clus>
<clus scale="   91.607">  1  5  2 -1</clus>
<clus scale="  101.708">  7  8 -1 -1</clus>
<clus scale="   22.346">  2  5  1 -1</clus>
</clustering>
</event>
<event>
 9    2  0.3764910E-005  0.1258265E+03  0.7546771E-02  0.1240322E+00
         21   -1    0    0  501  502  0.00000000000E+00  0.00000000000E+00  0.41004498819E+03  0.41004498819E+03  0.00000000000E+00 0.  1.
          2   -1    0    0  502    0 -0.00000000000E+00 -0.00000000000E+00 -0.20404157473E+03  0.20404157473E+03  0.00000000000E+00 0. -1.
         23    2    1    2    0    0  0.27796325105E+02  0.52932739194E+02  0.30781531532E+03  0.32691606099E+03  0.92462597934E+02 0.  0.
         24    2    1    2    0    0  0.74352520394E+02  0.35373962896E+02  0.43923143380E+01  0.11538052607E+03  0.80707861028E+02 0.  0.
        -13    1    4    4    0    0  0.33693411697E+02  0.57681895750E+02 -0.82562225665E+01  0.67309823207E+02  0.00000000000E+00 0.  1.
         14    1    4    4    0    0  0.40659108697E+02 -0.22307932853E+02  0.12648536905E+02  0.48070702866E+02  0.00000000000E+00 0. -1.
        -13    1    3    3    0    0  0.53049412728E+02  0.63300703966E+02  0.23995230839E+03  0.25376825967E+03  0.00000000000E+00 0.  1.
         13    1    3    3    0    0 -0.25253087622E+02 -0.10367964772E+02  0.67863006932E+02  0.73147801319E+02  0.00000000000E+00 0. -1.
          1    1    1    2  501    0 -0.10214884550E+03 -0.88306702090E+02 -0.10620421619E+03  0.17178997587E+03  0.00000000000E+00 0. -1.
<scales pt_clust_5="13000.00000" pt_clust_6="13000.00000" pt_clust_7="13000.00000" pt_clust_8="13000.00000" pt_clust_9="96.53268"></scales>
<clustering>
<clus scale="   80.708">  5  6 -1 -1</clus>
<clus scale="   92.463">  7  8 -1 -1</clus>
<clus scale="  110.108">  2  7  1 -1</clus>
<clus scale="   96.533">  1  9  2 -1</clus>
<clus scale="   96.533">  1  5  2 -1</clus>
</clustering>
</event>
<event>
 9    2  0.3764910E-005  0.1016641E+03  0.7546771E-02  0.1278692E+00
         21   -1    0    0  501  502  0.00000000000E+00  0.00000000000E+00  0.86564131657E+02  0.86564131657E+02  0.00000000000E+00 0.  1.
         -1   -1    0    0    0  501 -0.00000000000E+00 -0.00000000000E+00 -0.35805078492E+03  0.35805078492E+03  0.00000000000E+00 0.  1.
         24    2    1    2    0    0 -0.15901586638E+02  0.52072414261E+02 -0.29238123413E+03  0.30925613823E+03  0.84783112548E+02 0.  0.
         23    2    1    2    0    0 -0.43312668583E+01 -0.15812836215E+02  0.24666237440E+02  0.93665244633E+02  0.88859153277E+02 0.  0.
        -11    1    3    3    0    0 -0.47422996599E+02  0.20961751779E+02 -0.20282311484E+03  0.20934553149E+03  0.00000000000E+00 0.  1.
         12    1    3    3    0    0  0.31521409961E+02  0.31110662482E+02 -0.89558119294E+02  0.99910606732E+02  0.00000000000E+00 0. -1.
        -11    1    4    4    0    0  0.23350800628E+00  0.28886815328E+02 -0.16034758346E+02  0.33039614117E+02  0.00000000000E+00 0.  1.
         11    1    4    4    0    0 -0.45647748646E+01 -0.44699651543E+02  0.40700995785E+02  0.60625630517E+02  0.00000000000E+00 0. -1.
         -2    1    1    2    0  502  0.20232853496E+02 -0.36259578046E+02 -0.37716565724E+01  0.41693533719E+02  0.00000000000E+00 0.  1.
<scales pt_clust_5="13000.00000" pt_clust_6="13000.00000" pt_clust_7="13000.00000" pt_clust_8="13000.00000" pt_clust_9="41.52259"></scales>
<clustering>
<clus scale="   41.523">  1  9  2 -1</clus>
<clus scale="   84.783">  5  6 -1 -1</clus>
<clus scale="   88.859">  7  8 -1 -1</clus>
<clus scale="   98.121">  2  5  1 -1</clus>
<clus scale="   41.523">  1  5  2 -1</clus>
</clustering>
</event>
<event>
 9    2  0.3764910E-005  0.1153812E+03  0.7546771E-02  0.1254755E+00
          2   -1    0    0  502    0 -0.00000000000E+00  0.00000000000E+00  0.35127899790E+03  0.35127899790E+03  0.00000000000E+00 0. -1.
         21   -1    0    0  501  502  0.00000000000E+00 -0.00000000000E+00 -0.64523523593E+02  0.64523523593E+02  0.00000000000E+00 0.  1.
         24    2    1    2    0    0 -0.56007987331E+02 -0.70237659678E+02  0.13522581318E+03  0.18123047034E+03  0.80549607982E+02 0.  0.
         23    2    1    2    0    0  0.62730032790E+01  0.44959180103E+02  0.39682416204E+02  0.10958254614E+03  0.91503889626E+02 0.  0.
        -11    1    3    3    0    0 -0.28395184705E+02  0.62694700048E+01  0.78843338684E+01  0.30128980884E+02  0.00000000000E+00 0.  1.
         12    1    3    3    0    0 -0.27612802626E+02 -0.76507129683E+02  0.12734147932E+03  0.15110148945E+03  0.00000000000E+00 0. -1.
        -11    1    4    4    0    0 -0.17908233455E+02  0.30729723256E+02  0.63497920052E+02  0.72780537013E+02  0.00000000000E+00 0. -1.
         11    1    4    4    0    0  0.24181236734E+02  0.14229456847E+02 -0.23815503849E+02  0.36802009126E+02  0.00000000000E+00 0.  1.
          1    1    1    2  501    0  0.49734984052E+02  0.25278479575E+02  0.11184724492E+03  0.12498950502E+03  0.00000000000E+00 0. -1.
<scales pt_clust_5="13000.00000" pt_clust_6="13000.00000" pt_clust_7="13000.00000" pt_clust_8="13000.00000" pt_clust_9="55.79044"></scales>
<clustering>
<clus scale="   55.790">  2  9  1 -1</clus>
<clus scale="   80.550">  5  6 -1 -1</clus>
<clus scale="   91.504">  7  8 -1 -1</clus>
<clus scale="  106.902">  1  5  2 -1</clus>
<clus scale="   55.790">  2  5  1 -1</clus>
</clustering>
</event>
<event>
 9    2  0.3764910E-005  0.1202343E+03  0.7546771E-02  0.1248645E+00
          2   -1    0    0  502    0 -0.00000000000E+00  0.00000000000E+00  0.24351857622E+03  0.24351857622E+03  0.00000000000E+00 0. -1.
         21   -1    0    0  501  502  0.00000000000E+00 -0.00000000000E+00 -0.15390447138E+03  0.15390447138E+03  0.00000000000E+00 0.  1.
         23    2    1    2    0    0 -0.83531884630E+01  0.82782721285E+02  0.12815389770E+03  0.18023473426E+03  0.95594891272E+02 0.  0.
         24    2    1    2    0    0 -0.48309453743E+02 -0.55240497864E+02  0.41973628273E+02  0.11495505028E+03  0.77894558154E+02 0.  0.
        -13    1    4    4    0    0 -0.59260845039E+02 -0.52342258518E+02  0.83881754268E+01  0.79510510428E+02  0.00000000000E+00 0.  1.
         14    1    4    4    0    0  0.10951391296E+02 -0.28982393464E+01  0.33585452847E+02  0.35444539855E+02  0.00000000000E+00 0. -1.
        -13    1    3    3    0    0 -0.13699924458E+02  0.37278125552E+02  0.12841498976E+03  0.13441635380E+03  0.00000000000E+00 0.  1.
         13    1    3    3    0    0  0.53467359947E+01  0.45504595732E+02 -0.26109206091E+00  0.45818380456E+02  0.00000000000E+00 0. -1.
          1    1    1    2  501    0  0.56662642206E+02 -0.27542223420E+02 -0.80513421133E+02  0.10223326306E+03  0.00000000000E+00 0. -1.
<scales pt_clust_5="13000.00000" pt_clust_6="13000.00000" pt_clust_7="13000.00000" pt_clust_8="13000.00000" pt_clust_9="63.00182"></scales>
<clustering>
<clus scale="   63.002">  2  9  1 -1</clus>
<clus scale="   77.895">  5  6 -1 -1</clus>
<clus scale="   95.595">  7  8 -1 -1</clus>
<clus scale="  106.703">  2  5  1 -1</clus>
<clus scale="   63.002">  2  5  1 -1</clus>
</clustering>
</event>
<event>
 9    2  0.3764910E-005  0.1106104E+03  0.7546771E-02  0.1273369E+00
         21   -1    0    0  501  502  0.00000000000E+00  0.00000000000E+00  0.76446962010E+02  0.76446962010E+02  0.00000000000E+00 0.  1.
          2   -1    0    0  502    0 -0.00000000000E+00 -0.00000000000E+00 -0.45232356590E+03  0.45232356590E+03  0.00000000000E+00 0. -1.
         23    2    1    2    0    0 -0.27675866470E+02 -0.59622646922E+02 -0.40765056815E+03  0.42288053117E+03  0.91258667092E+02 0.  0.
         24    2    1    2    0    0  0.31973651833E+02  0.31028046862E+02  0.21881119655E+02  0.75328738817E+02  0.56661992472E+02 0.  0.
        -11    1    4    4    0    0  0.33303415721E+02  0.53936687041E+01  0.33147197853E+02  0.47296362295E+02  0.00000000000E+00 0.  1.
         12    1    4    4    0    0 -0.13297638876E+01  0.25634378158E+02 -0.11266078199E+02  0.28032376523E+02  0.00000000000E+00 0. -1.
        -11    1    3    3    0    0  0.99350720019E+01 -0.60620336000E+02 -0.33969565880E+03  0.34520525981E+03  0.00000000000E+00 0. -1.
         11    1    3    3    0    0 -0.37610938472E+02  0.99768907794E+00 -0.67954909346E+02  0.77675271358E+02  0.00000000000E+00 0.  1.
          1    1    1    2  501    0 -0.42977853630E+01  0.28594600060E+02  0.98928446019E+01  0.30561257924E+02  0.00000000000E+00 0. -1.
<scales pt_clust_5="13000.00000" pt_clust_6="13000.00000" pt_clust_7="13000.00000" pt_clust_8="13000.00000" pt_clust_9="28.91578"></scales>
<clustering>
<clus scale="   28.916">  1  9  2 -1</clus>
<clus scale="   56.662">  5  6 -1 -1</clus>
<clus scale="   84.363">  1  5  2 -1</clus>
<clus scale="   91.259">  7  8 -1 -1</clus>
<clus scale="   28.916">  1  5  2 -1</clus>
</clustering>
</event>
<event>
 9    2  0.3764910E-005  0.1360380E+03  0.7546771E-02  0.1221765E+00
         21   -1    0    0  501  502  0.00000000000E+00  0.00000000000E+00  0.65389233061E+03  0.65389233061E+03  0.00000000000E+00 0.  1.
         -3   -1    0    0    0  501 -0.00000000000E+00 -0.00000000000E+00 -0.38639594384E+02  0.38639594384E+02  0.00000000000E+00 0.  1.
         24    2    1    2    0    0 -0.85072970293E+02 -0.44684898229E+02  0.15279530882E+03  0.19766852201E+03  0.80574734194E+02 0.  0.
         23    2    1    2    0    0  0.10606696372E+03  0.24666676626E+02  0.41694689469E+03  0.44089410112E+03  0.93189321711E+02 0.  0.
        -11    1    3    3    0    0 -0.22516485901E+02 -0.34542658709E+02  0.11880133968E+03  0.12575351175E+03  0.00000000000E+00 0.  1.
         12    1    3    3    0    0 -0.62556484392E+02 -0.10142239520E+02  0.33993969140E+02  0.71915010254E+02  0.00000000000E+00 0. -1.
        -13    1    4    4    0    0  0.53982852437E+02 -0.34767237389E+02  0.17908938070E+03  0.19025224160E+03  0.00000000000E+00 0. -1.
         13    1    4    4    0    0  0.52084111282E+02  0.59433914015E+02  0.23785751399E+03  0.25064185952E+03  0.00000000000E+00 0.  1.
         -4    1    1    2    0  502 -0.20993993426E+02  0.20018221603E+02  0.45510532712E+02  0.53969301865E+02  0.00000000000E+00 0.  1.
<scales pt_clust_5="13000.00000" pt_clust_6="13000.00000" pt_clust_7="13000.00000" pt_clust_8="13000.00000" pt_clust_9="29.00824"></scales>
<clustering>
<clus scale="   29.008">  1  9  2 -1</clus>
<clus scale="   80.575">  5  6 -1 -1</clus>
<clus scale="   93.189">  7  8 -1 -1</clus>
<clus scale="  127.728">  2  5  1 -1</clus>
<clus scale="   29.008">  1  5  2 -1</clus>
</clustering>
</event>
<event>
 9    2  0.3764910E-005  0.1656861E+03  0.7546771E-02  0.1183257E+00
          2   -1    0    0  502    0 -0.00000000000E+00  0.00000000000E+00  0.23953182531E+04  0.23953182531E+04  0.00000000000E+00 0. -1.
         21   -1    0    0  501  502  0.00000000000E+00 -0.00000000000E+00 -0.33561108481E+02  0.33561108481E+02  0.00000000000E+00 0. -1.
         24    2    1    2    0    0 -0.49077610707E+02 -0.12176572899E+03  0.17869639505E+04  0.17939343955E+04  0.87891697011E+02 0.  0.
         23    2    1    2    0    0  0.10037553025E+03  0.13440422845E+03  0.53612650702E+03  0.56947496600E+03  0.93436404470E+02 0.  0.
        -11    1    3    3    0    0 -0.24951176706E+02 -0.11448099694E+02  0.11786423797E+03  0.12101900181E+03  0.00000000000E+00 0.  1.
         12    1    3    3    0    0 -0.24126434000E+02 -0.11031762930E+03  0.16690997125E+04  0.16729153937E+04  0.00000000000E+00 0. -1.
        -13    1    4    4    0    0  0.74272144866E+02  0.33236366536E+02  0.30788661874E+03  0.31845749726E+03  0.00000000000E+00 0. -1.
         13    1    4    4    0    0  0.26103385379E+02  0.10116786191E+03  0.22823988828E+03  0.25101746875E+03  0.00000000000E+00 0.  1.
          1    1    1    2  501    0 -0.51297919538E+02 -0.12638499456E+02  0.38666687117E+02  0.65470000077E+02  0.00000000000E+00 0. -1.
<scales pt_clust_5="13000.00000" pt_clust_6="13000.00000" pt_clust_7="13000.00000" pt_clust_8="13000.00000" pt_clust_9="52.83189"></scales>
<clustering>
<clus scale="   52.832">  2  9  1 -1</clus>
<clus scale="   87.892">  5  6 -1 -1</clus>
<clus scale="   93.436">  7  8 -1 -1</clus>
<clus scale="  162.624">  1  5  2 -1</clus>
<clus scale="   52.832">  2  5  1 -1</clus>
</clustering>
</event>
<event>
 9    2  0.3764910E-005  0.9714248E+02  0.7546771E-02  0.1291942E+00
         21   -1    0    0  501  502  0.00000000000E+00  0.00000000000E+00  0.24299380222E+03  0.24299380222E+03  0.00000000000E+00 0. -1.
          2   -1    0    0  502    0 -0.00000000000E+00 -0.00000000000E+00 -0.11006283929E+03  0.11006283929E+03  0.00000000000E+00 0. -1.
         24    2    1    2    0    0  0.32753914259E+02 -0.24362651664E+02 -0.64190827132E+02  0.11105154572E+03  0.80905042016E+02 0.  0.
         23    2    1    2    0    0 -0.12805223312E+00 -0.58390531788E+01  0.10149988756E+03  0.13655303044E+03  0.91161351507E+02 0.  0.
        -11    1    3    3    0    0  0.10874354206E+02 -0.34111667855E+02  0.65217144557E+01  0.36392172547E+02  0.00000000000E+00 0.  1.
         12    1    3    3    0    0  0.21879560053E+02  0.97490161911E+01 -0.70712541588E+02  0.74659373173E+02  0.00000000000E+00 0. -1.
        -13    1    4    4    0    0  0.12319051736E+02  0.31133972459E+02  0.68466295177E+01  0.34175424101E+02  0.00000000000E+00 0.  1.
         13    1    4    4    0    0 -0.12447103969E+02 -0.36973025638E+02  0.94653258038E+02  0.10237760634E+03  0.00000000000E+00 0. -1.
          1    1    1    2  501    0 -0.32625862026E+02  0.30201704843E+02  0.95621902505E+02  0.10545206535E+03  0.00000000000E+00 0. -1.
<scales pt_clust_5="13000.00000" pt_clust_6="13000.00000" pt_clust_7="13000.00000" pt_clust_8="13000.00000" pt_clust_9="44.45886"></scales>
<clustering>
<clus scale="   44.459">  1  9  2 -1</clus>
<clus scale="   80.905">  5  6 -1 -1</clus>
<clus scale="   87.589">  2  5  1 -1</clus>
<clus scale="   91.161">  7  8 -1 -1</clus>
<clus scale="   44.459">  1  5  2 -1</clus>
</clustering>
</event>
<event>
 9    2  0.3764910E-005  0.2259336E+03  0.7546771E-02  0.1160445E+00
         -1   -1    0    0    0  501 -0.00000000000E+00  0.00000000000E+00  0.43446846949E+03  0.43446846949E+03  0.00000000000E+00 0.  1.
         21   -1    0    0  501  502  0.00000000000E+00 -0.00000000000E+00 -0.19356193007E+03  0.19356193007E+03  0.00000000000E+00 0.  1.
         23    2    1    2    0    0 -0.89947456395E-01 -0.59870098811E+02  0.24904014966E+02  0.11072982771E+03  0.89757718112E+02 0.  0.
         24    2    1    2    0    0 -0.20048141522E+03  0.10891952325E+03  0.19387757134E+03  0.30963682655E+03  0.78931560854E+02 0.  0.
        -13    1    4    4    0    0 -0.10443356982E+03  0.98468267762E+02  0.10008686486E+03  0.17498500158E+03  0.00000000000E+00 0.  1.
         14    1    4    4    0    0 -0.96047845393E+02  0.10451255485E+02  0.93790706476E+02  0.13465182497E+03  0.00000000000E+00 0. -1.
        -11    1    3    3    0    0 -0.11738518361E+02  0.21541056143E+02 -0.86434073903E+00  0.24547036440E+02  0.00000000000E+00 0. -1.
         11    1    3    3    0    0  0.11648570905E+02 -0.81411154954E+02  0.25768355705E+02  0.86182791268E+02  0.00000000000E+00 0.  1.
         -2    1    1    2    0  502  0.20057136267E+03 -0.49049424435E+02  0.22124953126E+02  0.20766374530E+03  0.00000000000E+00 0.  1.
<scales pt_clust_5="13000.00000" pt_clust_6="13000.00000" pt_clust_7="13000.00000" pt_clust_8="13000.00000" pt_clust_9="211.69746"></scales>
<clustering>
<clus scale="   78.932">  5  6 -1 -1</clus>
<clus scale="   89.758">  7  8 -1 -1</clus>
<clus scale="  107.893">  1  7  2 -1</clus>
<clus scale="  211.697">  2  9  1 -1</clus>
<clus scale="  211.697">  2  5  1 -1</clus>
</clustering>
</event>
<event>
 9    2  0.3764910E-005  0.2261594E+03  0.7546771E-02  0.1129373E+00
         -1   -1    0    0    0  501 -0.00000000000E+00  0.00000000000E+00  0.47554421450E+02  0.47554421450E+02  0.00000000000E+00 0.  1.
         21   -1    0    0  501  502  0.00000000000E+00 -0.00000000000E+00 -0.71256461569E+03  0.71256461569E+03  0.00000000000E+00 0.  1.
         24    2    1    2    0    0  0.52934482069E+02  0.70943949167E+02 -0.17497145155E+03  0.21171533661E+03  0.79832772592E+02 0.  0.
         23    2    1    2    0    0  0.15067372050E+02  0.51202689830E+02 -0.19472079499E+03  0.22166719536E+03  0.91495444428E+02 0.  0.
        -11    1    3    3    0    0  0.55739746118E+02  0.22694699100E+02 -0.13899409962E+03  0.15146395081E+03  0.00000000000E+00 0.  1.
         12    1    3    3    0    0 -0.28052640494E+01  0.48249250068E+02 -0.35977351930E+02  0.60251385796E+02  0.00000000000E+00 0. -1.
        -11    1    4    4    0    0  0.35941699541E+02 -0.96455846972E+01 -0.42968833504E+02  0.56843326106E+02  0.00000000000E+00 0. -1.
         11    1    4    4    0    0 -0.20874327492E+02  0.60848274527E+02 -0.15175196149E+03  0.16482386926E+03  0.00000000000E+00 0.  1.
         -2    1    1    2    0  502 -0.68001854118E+02 -0.12214663900E+03 -0.29531794769E+03  0.32673650517E+03  0.00000000000E+00 0.  1.
<scales pt_clust_5="13000.00000" pt_clust_6="13000.00000" pt_clust_7="13000.00000" pt_clust_8="13000.00000" pt_clust_9="139.80005"></scales>
<clustering>
<clus scale="   79.833">  5  6 -1 -1</clus>
<clus scale="   91.495">  7  8 -1 -1</clus>
<clus scale="   94.506">  5  7 -1 -1</clus>
<clus scale="  139.800">  2  9  1 -1</clus>
<clus scale="  139.800">  2  5  1 -1</clus>
</clustering>
</event>
<event>
 9    2  0.3764910E-005  0.1514961E+03  0.7546771E-02  0.1199800E+00
         21   -1    0    0  501  502  0.00000000000E+00  0.00000000000E+00  0.12074212937E+03  0.12074212937E+03  0.00000000000E+00 0. -1.
          2   -1    0    0  502    0 -0.00000000000E+00 -0.00000000000E+00 -0.41029892065E+03  0.41029892065E+03  0.00000000000E+00 0. -1.
         23    2    1    2    0    0  0.53941187806E+02 -0.12997618499E+03 -0.14146170619E+03  0.21760269656E+03  0.86810476490E+02 0.  0.
         24    2    1    2    0    0 -0.47375783060E+02  0.77326430880E+02  0.32448852224E+02  0.12525967654E+03  0.80082562537E+02 0.  0.
        -11    1    4    4    0    0  0.11661512778E+02  0.54769568899E+02  0.25977372560E+02  0.61729413109E+02  0.00000000000E+00 0.  1.
         12    1    4    4    0    0 -0.59037295838E+02  0.22556861981E+02  0.64714796643E+01  0.63530263429E+02  0.00000000000E+00 0. -1.
        -13    1    3    3    0    0  0.19860440474E+02 -0.12332101239E+02  0.76859593379E+01  0.24608774609E+02  0.00000000000E+00 0.  1.
         13    1    3    3    0    0  0.34080747331E+02 -0.11764408375E+03 -0.14914766553E+03  0.19299392195E+03  0.00000000000E+00 0. -1.
          1    1    1    2  501    0 -0.65654047456E+01  0.52649754106E+02 -0.18054393731E+03  0.18817867692E+03  0.00000000000E+00 0. -1.
<scales pt_clust_5="13000.00000" pt_clust_6="13000.00000" pt_clust_7="13000.00000" pt_clust_8="13000.00000" pt_clust_9="53.05755"></scales>
<clustering>
<clus scale="   53.058">  1  9  2 -1</clus>
<clus scale="   80.083">  5  6 -1 -1</clus>
<clus scale="   86.810">  7  8 -1 -1</clus>
<clus scale="  147.744">  1  5  2 -1</clus>
<clus scale="   53.058">  1  5  2 -1</clus>
</clustering>
</event>
<event>
 9    2  0.3764910E-005  0.9159235E+02  0.7546771E-02  0.1304674E+00
         21   -1    0    0  501  502  0.00000000000E+00  0.00000000000E+00  0.67217466748E+02  0.67217466748E+02  0.00000000000E+00 0.  1.
         -3   -1    0    0    0  501 -0.00000000000E+00 -0.00000000000E+00 -0.42329888222E+03  0.42329888222E+03  0.00000000000E+00 0.  1.
         23    2    1    2    0    0 -0.22204555808E+02  0.43715632579E+01 -0.30960338983E+03  0.32317263562E+03  0.89856221545E+02 0.  0.
         24    2    1    2    0    0  0.69436650789E+01  0.14121169572E+02 -0.87369231840E+02  0.11994153304E+03  0.80653374140E+02 0.  0.
        -11    1    4    4    0    0 -0.18076246529E+02 -0.27683843379E+02 -0.29662826530E+02  0.44418792763E+02  0.00000000000E+00 0.  1.
         12    1    4    4    0    0  0.25019911608E+02  0.41805012951E+02 -0.57706405310E+02  0.75522740274E+02  0.00000000000E+00 0. -1.
        -11    1    3    3    0    0 -0.25039097761E+02  0.45110473924E+02 -0.18405526268E+03  0.19114981296E+03  0.00000000000E+00 0. -1.
         11    1    3    3    0    0  0.28345419531E+01 -0.40738910666E+02 -0.12554812715E+03  0.13202282265E+03  0.00000000000E+00 0.  1.
         -4    1    1    2    0  502  0.15260890729E+02 -0.18492732830E+02  0.40891206205E+02  0.47402180311E+02  0.00000000000E+00 0.  1.
<scales pt_clust_5="13000.00000" pt_clust_6="13000.00000" pt_clust_7="13000.00000" pt_clust_8="13000.00000" pt_clust_9="23.97657"></scales>
<clustering>
<clus scale="   23.977">  1  9  2 -1</clus>
<clus scale="   80.653">  5  6 -1 -1</clus>
<clus scale="   82.583">  1  5  2 -1</clus>
<clus scale="   89.856">  7  8 -1 -1</clus>
<clus scale="   23.977">  1  5  2 -1</clus>
</clustering>
</event>
<event>
 9    2  0.3764910E-005  0.1119522E+03  0.7546771E-02  0.1260323E+00
         -1   -1    0    0    0  501 -0.00000000000E+00  0.00000000000E+00  0.37177145535E+02  0.37177145535E+02  0.00000000000E+00 0.  1.
         21   -1    0    0  501  502  0.00000000000E+00 -0.00000000000E+00 -0.51105106268E+03  0.51105106268E+03  0.00000000000E+00 0. -1.
         24    2    1    2    0    0 -0.46495929823E+02 -0.49222317025E+02 -0.96362697377E+02  0.14217808472E+03  0.79650049256E+02 0.  0.
         23    2    1    2    0    0  0.22714232994E+02  0.71264741802E+02 -0.31324906832E+03  0.33407053123E+03  0.88789308056E+02 0.  0.
        -13    1    3    3    0    0 -0.60077128564E+02 -0.54724278875E+02 -0.54560140337E+02  0.97881647863E+02  0.00000000000E+00 0.  1.
         14    1    3    3    0    0  0.13581198741E+02  0.55019618499E+01 -0.41802557040E+02  0.44296436860E+02  0.00000000000E+00 0. -1.
        -11    1    4    4    0    0 -0.31971756482E+02  0.13419819611E+02 -0.69805140540E+02  0.77942558444E+02  0.00000000000E+00 0.  1.
         11    1    4    4    0    0  0.54685989475E+02  0.57844922191E+02 -0.24344392778E+03  0.25612797278E+03  0.00000000000E+00 0. -1.
         -2    1    1    2    0  502  0.23781696829E+02 -0.22042424777E+02 -0.64262151444E+02  0.71979592263E+02  0.00000000000E+00 0.  1.
<scales pt_clust_5="13000.00000" pt_clust_6="13000.00000" pt_clust_7="13000.00000" pt_clust_8="13000.00000" pt_clust_9="32.42588"></scales>
<clustering>
<clus scale="   32.426">  2  9  1 -1</clus>
<clus scale="   79.650">  5  6 -1 -1</clus>
<clus scale="   88.789">  7  8 -1 -1</clus>
<clus scale="  104.852">  1  5  2 -1</clus>
<clus scale="   32.426">  2  5  1 -1</clus>
</clustering>
</event>
<event>
 9    2  0.3764910E-005  0.1579711E+03  0.7546771E-02  0.1217377E+00
          2   -1    0    0  502    0 -0.00000000000E+00  0.00000000000E+00  0.11179995726E+04  0.11179995726E+04  0.00000000000E+00 0. -1.
         21   -1    0    0  501  502  0.00000000000E+00 -0.00000000000E+00 -0.37408835104E+02  0.37408835104E+02  0.00000000000E+00 0. -1.
         24    2    1    2    0    0  0.40010987111E+02  0.18323782732E+01  0.11461764228E+03  0.14539053032E+03  0.79981033288E+02 0.  0.
         23    2    1    2    0    0 -0.78992311251E+02  0.11283892857E+03  0.43305673410E+03  0.46351179307E+03  0.91283286144E+02 0.  0.
        -13    1    3    3    0    0 -0.88615234551E+01  0.31181617715E+02  0.39899124940E+02  0.51407782020E+02  0.00000000000E+00 0.  1.
         14    1    3    3    0    0  0.48872510566E+02 -0.29349239442E+02  0.74718517339E+02  0.93982748301E+02  0.00000000000E+00 0. -1.
        -13    1    4    4    0    0 -0.38117569376E+02 -0.60190782423E+00  0.56811365498E+02  0.68416683915E+02  0.00000000000E+00 0.  1.
         13    1    4    4    0    0 -0.40874741876E+02  0.11344083639E+03  0.37624536860E+03  0.39509510916E+03  0.00000000000E+00 0. -1.
          1    1    1    2  501    0  0.38981324140E+02 -0.11467130684E+03  0.53291636115E+03  0.54650608435E+03  0.00000000000E+00 0. -1.
<scales pt_clust_5="13000.00000" pt_clust_6="13000.00000" pt_clust_7="13000.00000" pt_clust_8="13000.00000" pt_clust_9="128.92724"></scales>
<clustering>
<clus scale="   79.981">  5  6 -1 -1</clus>
<clus scale="   89.449">  1  5  2 -1</clus>
<clus scale="   91.283">  7  8 -1 -1</clus>
<clus scale="  128.927">  2  9  1 -1</clus>
<clus scale="  128.927">  2  5  1 -1</clus>
</clustering>
</event>
<event>
 9    2  0.3764910E-005  0.9169802E+02  0.7546771E-02  0.1306521E+00
          2   -1    0    0  502    0 -0.00000000000E+00  0.00000000000E+00  0.38824026655E+03  0.38824026655E+03  0.00000000000E+00 0. -1.
         21   -1    0    0  501  502  0.00000000000E+00 -0.00000000000E+00 -0.27014943521E+02  0.27014943521E+02  0.00000000000E+00 0. -1.
         24    2    1    2    0    0  0.33349831837E+00 -0.55233692395E+01  0.18672314570E+03  0.20282429646E+03  0.79003438298E+02 0.  0.
         23    2    1    2    0    0  0.25383906162E+02  0.17286146703E+01  0.12895529514E+03  0.15998757722E+03  0.91209790697E+02 0.  0.
        -13    1    3    3    0    0 -0.13844194444E+02  0.33783657025E+02  0.10243300308E+03  0.10874519448E+03  0.00000000000E+00 0.  1.
         14    1    3    3    0    0  0.14177692762E+02 -0.39307026265E+02  0.84290142620E+02  0.94079101977E+02  0.00000000000E+00 0. -1.
        -13    1    4    4    0    0  0.21775018445E+02  0.39072419482E+02  0.29218725227E+02  0.53427888751E+02  0.00000000000E+00 0. -1.
         13    1    4    4    0    0  0.36088877171E+01 -0.37343804812E+02  0.99736569914E+02  0.10655968847E+03  0.00000000000E+00 0.  1.
          1    1    1    2  501    0 -0.25717404481E+02  0.37947545692E+01  0.45546882186E+02  0.52443336395E+02  0.00000000000E+00 0. -1.
<scales pt_clust_5="13000.00000" pt_clust_6="13000.00000" pt_clust_7="13000.00000" pt_clust_8="13000.00000" pt_clust_9="25.99587"></scales>
<clustering>
<clus scale="   25.996">  2  9  1 -1</clus>
<clus scale="   79.003">  5  6 -1 -1</clus>
<clus scale="   79.567">  1  5  2 -1</clus>
<clus scale="   91.210">  7  8 -1 -1</clus>
<clus scale="   25.996">  2  5  1 -1</clus>
</clustering>
</event>
<event>
 9    2  0.3764910E-005  0.1164640E+03  0.7546771E-02  0.1252197E+00
          2   -1    0    0  502    0 -0.00000000000E+00  0.00000000000E+00  0.75456311332E+03  0.75456311332E+03  0.00000000000E+00 0. -1.
         21   -1    0    0  501  502  0.00000000000E+00 -0.00000000000E+00 -0.38733893490E+02  0.38733893490E+02  0.00000000000E+00 0.  1.
         24    2    1    2    0    0 -0.68179428993E+02  0.81471421300E+01  0.38966523948E+03  0.40407078574E+03  0.81971888851E+02 0.  0.
         23    2    1    2    0    0  0.89195461898E+02  0.35375910508E+02  0.12411463361E+03  0.18147668854E+03  0.91225329488E+02 0.  0.
        -13    1    3    3    0    0 -0.55284338058E+02  0.42650113690E+02  0.26850983256E+03  0.27743994019E+03  0.00000000000E+00 0.  1.
         14    1    3    3    0    0 -0.12895090934E+02 -0.34502971560E+02  0.12115540693E+03  0.12663084555E+03  0.00000000000E+00 0. -1.
        -11    1    4    4    0    0  0.82448828153E+02 -0.12652720673E+02  0.70883144463E+02  0.10946378750E+03  0.00000000000E+00 0.  1.
         11    1    4    4    0    0  0.67466337451E+01  0.48028631181E+02  0.53231489143E+02  0.72012901042E+02  0.00000000000E+00 0. -1.
          1    1    1    2  501    0 -0.21016032905E+02 -0.43523052638E+02  0.20204934674E+03  0.20774953253E+03  0.00000000000E+00 0. -1.
<scales pt_clust_5="13000.00000" pt_clust_6="13000.00000" pt_clust_7="13000.00000" pt_clust_8="13000.00000" pt_clust_9="48.33148"></scales>
<clustering>
<clus scale="   48.331">  2  9  1 -1</clus>
<clus scale="   81.972">  5  6 -1 -1</clus>
<clus scale="   91.225">  7  8 -1 -1</clus>
<clus scale="  109.367">  1  5  2 -1</clus>
<clus scale="   48.331">  2  5  1 -1</clus>
</clustering>
</event>
<event>
 9    2  0.3764910E-005  0.1094352E+03  0.7546771E-02  0.1268591E+00
          4   -1    0    0  502    0 -0.00000000000E+00  0.00000000000E+00  0.36265815999E+03  0.36265815999E+03  0.00000000000E+00 0. -1.
         21   -1    0    0  501  502  0.00000000000E+00 -0.00000000000E+00 -0.45149270925E+02  0.45149270925E+02  0.00000000000E+00 0.  1.
         24    2    1    2    0    0  0.17993049146E+02  0.42469472394E+02  0.15158801222E+03  0.17556237264E+03  0.75603011418E+02 0.  0.
         23    2    1    2    0    0 -0.38947400461E+02 -0.72985624765E+02  0.13968322194E+03  0.18687177396E+03  0.92551909685E+02 0.  0.
        -13    1    3    3    0    0 -0.26184598989E+02 -0.12480575484E+01  0.50433267888E+02  0.56839294346E+02  0.00000000000E+00 0.  1.
         14    1    3    3    0    0  0.44177648135E+02  0.43717529942E+02  0.10115474433E+03  0.11872307830E+03  0.00000000000E+00 0. -1.
        -13    1    4    4    0    0  0.23267708343E+02 -0.54374324669E+02  0.69307694436E+02  0.91112622302E+02  0.00000000000E+00 0. -1.
         13    1    4    4    0    0 -0.62215108804E+02 -0.18611300097E+02  0.70375527500E+02  0.95759151655E+02  0.00000000000E+00 0.  1.
          3    1    1    2  501    0  0.20954351315E+02  0.30516152372E+02  0.26237654910E+02  0.45373284318E+02  0.00000000000E+00 0. -1.
<scales pt_clust_5="13000.00000" pt_clust_6="13000.00000" pt_clust_7="13000.00000" pt_clust_8="13000.00000" pt_clust_9="37.01784"></scales>
<clustering>
<clus scale="   37.018">  2  9  1 -1</clus>
<clus scale="   75.603">  5  6 -1 -1</clus>
<clus scale="   92.552">  7  8 -1 -1</clus>
<clus scale="   95.530">  1  5  2 -1</clus>
<clus scale="   37.018">  2  5  1 -1</clus>
</clustering>
</event>
<event>
 9    2  0.3764910E-005  0.1272756E+03  0.7546771E-02  0.1248404E+00
         21   -1    0    0  501  502  0.00000000000E+00  0.00000000000E+00  0.74762518778E+02  0.74762518778E+02  0.00000000000E+00 0.  1.
          2   -1    0    0  502    0 -0.00000000000E+00 -0.00000000000E+00 -0.56448319982E+03  0.56448319982E+03  0.00000000000E+00 0. -1.
         24    2    1    2    0    0 -0.31854033506E+02  0.24731614138E+02 -0.46401165421E+03  0.47261307462E+03  0.80187099154E+02 0.  0.
         23    2    1    2    0    0  0.52309925986E+02 -0.26281626672E+02 -0.42279843268E+02  0.14026148486E+03  0.12024411308E+03 0.  0.
        -11    1    3    3    0    0 -0.49732941998E+01 -0.29050456733E+02 -0.13973146462E+03  0.14280596940E+03  0.00000000000E+00 0.  1.
         12    1    3    3    0    0 -0.26880739306E+02  0.53782070870E+02 -0.32428018959E+03  0.32980710522E+03  0.00000000000E+00 0. -1.
        -11    1    4    4    0    0  0.53688083345E+02 -0.69403502917E+02 -0.14467815227E+02  0.88930164667E+02  0.00000000000E+00 0.  1.
         11    1    4    4    0    0 -0.13781573588E+01  0.43121876245E+02 -0.27812028041E+02  0.51331320189E+02  0.00000000000E+00 0. -1.
          1    1    1    2  501    0 -0.20455892480E+02  0.15500125347E+01  0.16570816437E+02  0.26371159121E+02  0.00000000000E+00 0. -1.
<scales pt_clust_5="13000.00000" pt_clust_6="13000.00000" pt_clust_7="13000.00000" pt_clust_8="13000.00000" pt_clust_9="20.51453"></scales>
<clustering>
<clus scale="   20.515">  1  9  2 -1</clus>
<clus scale="   80.187">  5  6 -1 -1</clus>
<clus scale="   90.390">  2  5  1 -1</clus>
<clus scale="  120.244">  7  8 -1 -1</clus>
<clus scale="   20.515">  1  5  2 -1</clus>
</clustering>
</event>
<event>
 9    2  0.3764910E-005  0.1148549E+03  0.7546771E-02  0.1257575E+00
          2   -1    0    0  502    0 -0.00000000000E+00  0.00000000000E+00  0.59753681285E+03  0.59753681285E+03  0.00000000000E+00 0. -1.
         21   -1    0    0  501  502  0.00000000000E+00 -0.00000000000E+00 -0.32951175810E+02  0.32951175810E+02  0.00000000000E+00 0. -1.
         24    2    1    2    0    0 -0.35502345469E+02  0.22067455246E+02  0.18107939365E+03  0.20252251143E+03  0.80487463092E+02 0.  0.
         23    2    1    2    0    0  0.65151187716E+02 -0.60659715235E+02  0.33342077806E+03  0.35813016944E+03  0.95726301017E+02 0.  0.
        -11    1    3    3    0    0 -0.61630065276E+02  0.17426869731E+02  0.13252000296E+03  0.14718529791E+03  0.00000000000E+00 0.  1.
         12    1    3    3    0    0  0.26127719807E+02  0.46405855157E+01  0.48559390685E+02  0.55337213518E+02  0.00000000000E+00 0. -1.
        -13    1    4    4    0    0  0.49472590372E+01 -0.69234820207E+02  0.16206364723E+03  0.17630247149E+03  0.00000000000E+00 0. -1.
         13    1    4    4    0    0  0.60203928679E+02  0.85751049717E+01  0.17135713084E+03  0.18182769795E+03  0.00000000000E+00 0.  1.
          1    1    1    2  501    0 -0.29648842248E+02  0.38592259989E+02  0.50085465330E+02  0.69835307796E+02  0.00000000000E+00 0. -1.
<scales pt_clust_5="13000.00000" pt_clust_6="13000.00000" pt_clust_7="13000.00000" pt_clust_8="13000.00000" pt_clust_9="48.66638"></scales>
<clustering>
<clus scale="   48.666">  2  9  1 -1</clus>
<clus scale="   80.487">  5  6 -1 -1</clus>
<clus scale="   95.726">  7  8 -1 -1</clus>
<clus scale="  102.501">  1  5  2 -1</clus>
<clus scale="   48.666">  2  5  1 -1</clus>
</clustering>
</event>
<event>
 9    2  0.3764910E-005  0.9498116E+02  0.7546771E-02  0.1298691E+00
          2   -1    0    0  502    0 -0.00000000000E+00  0.00000000000E+00  0.68926549383E+02  0.68926549383E+02  0.00000000000E+00 0. -1.
         21   -1    0    0  501  502  0.00000000000E+00 -0.00000000000E+00 -0.18641514984E+03  0.18641514984E+03  0.00000000000E+00 0.  1.
         24    2    1    2    0    0  0.14010502025E+02  0.18892054415E+02  0.35768154396E+01  0.84029528043E+02  0.80591340028E+02 0.  0.
         23    2    1    2    0    0  0.39113133136E+01 -0.99470705554E+01 -0.71765302466E+02  0.11809840054E+03  0.93181172926E+02 0.  0.
        -11    1    3    3    0    0  0.19993833490E+02  0.41143923333E+02  0.25374228919E+02  0.52310871701E+02  0.00000000000E+00 0.  1.
         12    1    3    3    0    0 -0.59833314656E+01 -0.22251868918E+02 -0.21797413479E+02  0.31718656342E+02  0.00000000000E+00 0. -1.
        -11    1    4    4    0    0  0.24100590246E+02  0.21932270653E+02 -0.73421011016E+02  0.80327503415E+02  0.00000000000E+00 0.  1.
         11    1    4    4    0    0 -0.20189276933E+02 -0.31879341208E+02  0.16557085503E+01  0.37770897126E+02  0.00000000000E+00 0. -1.
          1    1    1    2  501    0 -0.17921815338E+02 -0.89449838594E+01 -0.49300113431E+02  0.53213770638E+02  0.00000000000E+00 0. -1.
<scales pt_clust_5="13000.00000" pt_clust_6="13000.00000" pt_clust_7="13000.00000" pt_clust_8="13000.00000" pt_clust_9="20.03008"></scales>
<clustering>
<clus scale="   20.030">  2  9  1 -1</clus>
<clus scale="   80.591">  5  6 -1 -1</clus>
<clus scale="   82.666">  1  5  2 -1</clus>
<clus scale="   93.181">  7  8 -1 -1</clus>
<clus scale="   20.030">  2  5  1 -1</clus>
</clustering>
</event>
<event>
 9    2  0.3764910E-005  0.9983981E+02  0.7546771E-02  0.1288033E+00
         21   -1    0    0  501  502  0.00000000000E+00  0.00000000000E+00  0.71063505208E+03  0.71063505208E+03  0.00000000000E+00 0. -1.
          2   -1    0    0  502    0 -0.00000000000E+00 -0.00000000000E+00 -0.23449939582E+02  0.23449939582E+02  0.00000000000E+00 0. -1.
         24    2    1    2    0    0  0.26437843025E+02 -0.31863159652E+02  0.10452879824E+03  0.13767042709E+03  0.79452226824E+02 0.  0.
         23    2    1    2    0    0 -0.16495245992E+02  0.47074473350E+01  0.38037812887E+03  0.39207966244E+03  0.93513034235E+02 0.  0.
        -13    1    3    3    0    0  0.32399754078E+02  0.18728715431E+02  0.33260737698E+02  0.50067809201E+02  0.00000000000E+00 0.  1.
         14    1    3    3    0    0 -0.59619110536E+01 -0.50591875082E+02  0.71268060545E+02  0.87602617892E+02  0.00000000000E+00 0. -1.
        -11    1    4    4    0    0 -0.29909941633E+02  0.39556603770E+02  0.29130081422E+03  0.29549195230E+03  0.00000000000E+00 0.  1.
         11    1    4    4    0    0  0.13414695641E+02 -0.34849156435E+02  0.89077314651E+02  0.96587710134E+02  0.00000000000E+00 0. -1.
          1    1    1    2  501    0 -0.99425970327E+01  0.27155712316E+02  0.20227818538E+03  0.20433490213E+03  0.00000000000E+00 0. -1.
<scales pt_clust_5="13000.00000" pt_clust_6="13000.00000" pt_clust_7="13000.00000" pt_clust_8="13000.00000" pt_clust_9="28.91864"></scales>
<clustering>
<clus scale="   28.919">  1  9  2 -1</clus>
<clus scale="   79.452">  5  6 -1 -1</clus>
<clus scale="   86.810">  2  5  1 -1</clus>
<clus scale="   93.513">  7  8 -1 -1</clus>
<clus scale="   28.919">  1  5  2 -1</clus>
</clustering>
</event>
<event>
 9    2  0.3764910E-005  0.1488317E+03  0.7546771E-02  0.1223759E+00
          2   -1    0    0  502    0 -0.00000000000E+00  0.00000000000E+00  0.81624896298E+03  0.81624896298E+03  0.00000000000E+00 0. -1.
         21   -1    0    0  501  502  0.00000000000E+00 -0.00000000000E+00 -0.43109301734E+02  0.43109301734E+02  0.00000000000E+00 0. -1.
         24    2    1    2    0    0 -0.43272116833E+02 -0.10570735821E+02  0.11748825446E+03  0.15018893141E+03  0.82273985143E+02 0.  0.
         23    2    1    2    0    0 -0.55468129448E+02 -0.81448786246E+02  0.35736023700E+03  0.38176308619E+03  0.91247448306E+02 0.  0.
        -13    1    3    3    0    0 -0.57604503256E+02  0.19006201678E+02  0.78095139011E+02  0.98885616926E+02  0.00000000000E+00 0.  1.
         14    1    3    3    0    0  0.14332386424E+02 -0.29576937499E+02  0.39393115453E+02  0.51303314488E+02  0.00000000000E+00 0. -1.
        -11    1    4    4    0    0  0.23925559581E+02 -0.23047531547E+02  0.12553613502E+03  0.12985739219E+03  0.00000000000E+00 0.  1.
         11    1    4    4    0    0 -0.79393689029E+02 -0.58401254699E+02  0.23182410198E+03  0.25190569399E+03  0.00000000000E+00 0. -1.
          1    1    1    2  501    0  0.98740246281E+02  0.92019522067E+02  0.29829116979E+03  0.32740624712E+03  0.00000000000E+00 0. -1.
<scales pt_clust_5="13000.00000" pt_clust_6="13000.00000" pt_clust_7="13000.00000" pt_clust_8="13000.00000" pt_clust_9="117.57886"></scales>
<clustering>
<clus scale="   82.274">  5  6 -1 -1</clus>
<clus scale="   91.247">  7  8 -1 -1</clus>
<clus scale="   93.559">  1  5  2 -1</clus>
<clus scale="  117.579">  2  9  1 -1</clus>
<clus scale="  117.579">  2  5  1 -1</clus>
</clustering>
</event>
<event>
 9    2  0.3764910E-005  0.1024991E+03  0.7546771E-02  0.1281259E+00
         21   -1    0    0  501  502  0.00000000000E+00  0.00000000000E+00  0.20399526397E+03  0.20399526397E+03  0.00000000000E+00 0. -1.
          2   -1    0    0  502    0 -0.00000000000E+00 -0.00000000000E+00 -0.11594833064E+03  0.11594833064E+03  0.00000000000E+00 0. -1.
         24    2    1    2    0    0 -0.72493560608E+02 -0.58394925149E+01 -0.12625743634E+02  0.10868400001E+03  0.79770837107E+02 0.  0.
         23    2    1    2    0    0  0.20732279076E+01  0.31138909210E+02  0.17143963362E+02  0.99116250005E+02  0.92499651862E+02 0.  0.
        -11    1    3    3    0    0  0.14754496423E+02 -0.13837574718E+02 -0.42588611466E+01  0.20671515113E+02  0.00000000000E+00 0.  1.
         12    1    3    3    0    0 -0.87248057032E+02  0.79980822034E+01 -0.83668824869E+01  0.88012484894E+02  0.00000000000E+00 0. -1.
        -11    1    4    4    0    0 -0.32868118899E+02 -0.75829357946E+01  0.30282693048E+02  0.45330515698E+02  0.00000000000E+00 0. -1.
         11    1    4    4    0    0  0.34941346806E+02  0.38721845005E+02 -0.13138729686E+02  0.53785734307E+02  0.00000000000E+00 0.  1.
          1    1    1    2  501    0  0.70420332701E+02 -0.25299416695E+02  0.83528713596E+02  0.11214334460E+03  0.00000000000E+00 0. -1.
<scales pt_clust_5="13000.00000" pt_clust_6="13000.00000" pt_clust_7="13000.00000" pt_clust_8="13000.00000" pt_clust_9="74.82703"></scales>
<clustering>
<clus scale="   74.827">  1  9  2 -1</clus>
<clus scale="   79.771">  5  6 -1 -1</clus>
<clus scale="   91.177">  2  5  1 -1</clus>
<clus scale="   92.500">  7  8 -1 -1</clus>
<clus scale="   74.827">  1  5  2 -1</clus>
</clustering>
</event>
<event>
 9    2  0.3764910E-005  0.1332363E+03  0.7546771E-02  0.1225254E+00
          2   -1    0    0  502    0 -0.00000000000E+00  0.00000000000E+00  0.49702511072E+03  0.49702511072E+03  0.00000000000E+00 0. -1.
         21   -1    0    0  501  502  0.00000000000E+00 -0.00000000000E+00 -0.91430638272E+02  0.91430638272E+02  0.00000000000E+00 0. -1.
         23    2    1    2    0    0  0.33275654471E+02 -0.75142928806E+02  0.22304925652E+03  0.25406732531E+03  0.89696744788E+02 0.  0.
         24    2    1    2    0    0 -0.12538097672E+03  0.10587667674E+03  0.10650133559E+03  0.21105705953E+03  0.79197777065E+02 0.  0.
        -13    1    4    4    0    0 -0.11923348965E+02  0.56020002463E+02  0.44217419686E+02  0.72357357125E+02  0.00000000000E+00 0.  1.
         14    1    4    4    0    0 -0.11345762775E+03  0.49856674281E+02  0.62283915907E+02  0.13869970240E+03  0.00000000000E+00 0. -1.
        -11    1    3    3    0    0 -0.81716545252E+01 -0.78803933627E+02  0.13180217106E+03  0.15378116981E+03  0.00000000000E+00 0.  1.
         11    1    3    3    0    0  0.41447308997E+02  0.36610048205E+01  0.91247085467E+02  0.10028615550E+03  0.00000000000E+00 0. -1.
          1    1    1    2  501    0  0.92105322246E+02 -0.30733747937E+02  0.76043880335E+02  0.12333136416E+03  0.00000000000E+00 0. -1.
<scales pt_clust_5="13000.00000" pt_clust_6="13000.00000" pt_clust_7="13000.00000" pt_clust_8="13000.00000" pt_clust_9="97.09765"></scales>
<clustering>
<clus scale="   79.198">  5  6 -1 -1</clus>
<clus scale="   89.697">  7  8 -1 -1</clus>
<clus scale="   97.098">  2  9  1 -1</clus>
<clus scale="  126.407">  2  5  1 -1</clus>
<clus scale="   97.098">  2  5  1 -1</clus>
</clustering>
</event>
<event>
 9    2  0.3764910E-005  0.1412928E+03  0.7546771E-02  0.1227728E+00
          2   -1    0    0  502    0 -0.00000000000E+00  0.00000000000E+00  0.10100381500E+04  0.10100381500E+04  0.00000000000E+00 0. -1.
         21   -1    0    0  501  502  0.00000000000E+00 -0.00000000000E+00 -0.77751427630E+02  0.77751427630E+02  0.00000000000E+00 0. -1.
         24    2    1    2    0    0 -0.38107795436E+02 -0.46381384619E+02 -0.19217883897E+02  0.10250152255E+03  0.80831912954E+02 0.  0.
         23    2    1    2    0    0  0.44109235269E+02 -0.78112558500E+02  0.47012810974E+03  0.48803752409E+03  0.95461976329E+02 0.  0.
        -13    1    3    3    0    0  0.23164618804E+02 -0.13293030772E+02  0.77760075820E+01  0.27816731033E+02  0.00000000000E+00 0.  1.
         14    1    3    3    0    0 -0.61272414240E+02 -0.33088353847E+02 -0.26993891479E+02  0.74684791519E+02  0.00000000000E+00 0. -1.
        -13    1    4    4    0    0  0.43349173707E+02  0.49582563644E+00  0.26191232645E+03  0.26547591878E+03  0.00000000000E+00 0.  1.
         13    1    4    4    0    0  0.76006156210E+00 -0.78608384136E+02  0.20821578329E+03  0.22256160532E+03  0.00000000000E+00 0. -1.
          1    1    1    2  501    0 -0.60014398331E+01  0.12449394312E+03  0.48137649648E+03  0.49725053094E+03  0.00000000000E+00 0. -1.
<scales pt_clust_5="13000.00000" pt_clust_6="13000.00000" pt_clust_7="13000.00000" pt_clust_8="13000.00000" pt_clust_9="104.16659"></scales>
<clustering>
<clus scale="   80.832">  5  6 -1 -1</clus>
<clus scale="   95.462">  7  8 -1 -1</clus>
<clus scale="  100.684">  1  5  2 -1</clus>
<clus scale="  104.167">  2  9  1 -1</clus>
<clus scale="  104.167">  2  5  1 -1</clus>
</clustering>
</event>
<event>
 9    2  0.3764910E-005  0.1261065E+03  0.7546771E-02  0.1236705E+00
         21   -1    0    0  501  502  0.00000000000E+00  0.00000000000E+00  0.14413460881E+03  0.14413460881E+03  0.00000000000E+00 0. -1.
         -1   -1    0    0    0  501 -0.00000000000E+00 -0.00000000000E+00 -0.19995186985E+03  0.19995186985E+03  0.00000000000E+00 0.  1.
         24    2    1    2    0    0 -0.13841427177E+02  0.63176378795E+02 -0.31898637381E+02  0.10798380508E+03  0.80374990821E+02 0.  0.
         23    2    1    2    0    0  0.23924482975E+02 -0.13076036577E+03  0.51105138133E+01  0.16186013770E+03  0.92205925418E+02 0.  0.
        -13    1    3    3    0    0 -0.37901811319E+02  0.46334238864E+02 -0.45913630893E+02  0.75441835172E+02  0.00000000000E+00 0.  1.
         14    1    3    3    0    0  0.24060384142E+02  0.16842139931E+02  0.14014993512E+02  0.32541969910E+02  0.00000000000E+00 0. -1.
        -11    1    4    4    0    0  0.45445379753E+02 -0.22018872020E+02 -0.38675210807E+01  0.50646529845E+02  0.00000000000E+00 0.  1.
         11    1    4    4    0    0 -0.21520896778E+02 -0.10874149375E+03  0.89780348940E+01  0.11121360786E+03  0.00000000000E+00 0. -1.
         -2    1    1    2    0  502 -0.10083055798E+02  0.67583986979E+02 -0.29029137471E+02  0.74242535871E+02  0.00000000000E+00 0.  1.
<scales pt_clust_5="13000.00000" pt_clust_6="13000.00000" pt_clust_7="13000.00000" pt_clust_8="13000.00000" pt_clust_9="68.33204"></scales>
<clustering>
<clus scale="   68.332">  1  9  2 -1</clus>
<clus scale="   80.375">  5  6 -1 -1</clus>
<clus scale="   92.206">  7  8 -1 -1</clus>
<clus scale="  117.733">  2  5  1 -1</clus>
<clus scale="   68.332">  1  5  2 -1</clus>
</clustering>
</event>
<event>
 9    2  0.3764910E-005  0.4043497E+03  0.7546771E-02  0.1042284E+00
         -1   -1    0    0    0  501 -0.00000000000E+00  0.00000000000E+00  0.23691981959E+03  0.23691981959E+03  0.00000000000E+00 0.  1.
         21   -1    0    0  501  502  0.00000000000E+00 -0.00000000000E+00 -0.62106910556E+03  0.62106910556E+03  0.00000000000E+00 0.  1.
         24    2    1    2    0    0 -0.12670335293E+03 -0.18806875633E+03 -0.16699200113E+03  0.29291941741E+03  0.80572078920E+02 0.  0.
         23    2    1    2    0    0 -0.12076553093E+03 -0.61612519515E+02 -0.11127610142E+03  0.19792864515E+03  0.91722199061E+02 0.  0.
        -11    1    3    3    0    0 -0.12230668567E+03 -0.19269898421E+03 -0.17116807898E+03  0.28528991418E+03  0.00000000000E+00 0.  1.
         12    1    3    3    0    0 -0.43966672580E+01  0.46302278846E+01  0.41760778430E+01  0.76295032205E+01  0.00000000000E+00 0. -1.
        -11    1    4    4    0    0 -0.11265653098E+03 -0.11880627599E+02 -0.78326755604E+02  0.13772336014E+03  0.00000000000E+00 0.  1.
         11    1    4    4    0    0 -0.81089999583E+01 -0.49731891916E+02 -0.32949345814E+02  0.60205285012E+02  0.00000000000E+00 0. -1.
         -2    1    1    2    0  502  0.24746888387E+03  0.24968127584E+03 -0.10588118342E+03  0.36714086260E+03  0.00000000000E+00 0.  1.
<scales pt_clust_5="13000.00000" pt_clust_6="13000.00000" pt_clust_7="13000.00000" pt_clust_8="13000.00000" pt_clust_9="351.54191"></scales>
<clustering>
<clus scale="   80.572">  5  6 -1 -1</clus>
<clus scale="   91.722">  7  8 -1 -1</clus>
<clus scale="  114.124">  5  7 -1 -1</clus>
<clus scale="  351.542">  2  9  1 -1</clus>
<clus scale="  351.542">  2  5  1 -1</clus>
</clustering>
</event>
<event>
 9    2  0.3764910E-005  0.1010183E+03  0.7546771E-02  0.1287835E+00
          2   -1    0    0  502    0 -0.00000000000E+00  0.00000000000E+00  0.52547378456E+03  0.52547378456E+03  0.00000000000E+00 0. -1.
         21   -1    0    0  501  502  0.00000000000E+00 -0.00000000000E+00 -0.89617637911E+02  0.89617637911E+02  0.00000000000E+00 0. -1.
         23    2    1    2    0    0  0.12089532739E+02  0.20146719447E+02  0.34937920198E+03  0.36318373621E+03  0.96356382094E+02 0.  0.
         24    2    1    2    0    0 -0.45387919390E+01 -0.44217468669E+02  0.15475899405E+03  0.17911446596E+03  0.78459292045E+02 0.  0.
        -13    1    4    4    0    0  0.11421744980E+01 -0.57173779088E+02  0.58447620608E+02  0.81769614971E+02  0.00000000000E+00 0.  1.
         14    1    4    4    0    0 -0.56809664370E+01  0.12956310419E+02  0.96311373440E+02  0.97344850985E+02  0.00000000000E+00 0. -1.
        -13    1    3    3    0    0  0.52153665908E+02  0.14131277385E+02  0.14305637903E+03  0.15292097779E+03  0.00000000000E+00 0.  1.
         13    1    3    3    0    0 -0.40064133169E+02  0.60154420621E+01  0.20632282295E+03  0.21026275842E+03  0.00000000000E+00 0. -1.
          1    1    1    2  501    0 -0.75507407996E+01  0.24070749222E+02 -0.68282049376E+02  0.72793220300E+02  0.00000000000E+00 0. -1.
<scales pt_clust_5="13000.00000" pt_clust_6="13000.00000" pt_clust_7="13000.00000" pt_clust_8="13000.00000" pt_clust_9="25.22726"></scales>
<clustering>
<clus scale="   25.227">  2  9  1 -1</clus>
<clus scale="   78.459">  5  6 -1 -1</clus>
<clus scale="   84.119">  2  5  1 -1</clus>
<clus scale="   96.356">  7  8 -1 -1</clus>
<clus scale="   25.227">  2  5  1 -1</clus>
</clustering>
</event>
<event>
 9    2  0.3764910E-005  0.3656781E+03  0.7546771E-02  0.1056358E+00
          2   -1    0    0  502    0 -0.00000000000E+00  0.00000000000E+00  0.14823798970E+04  0.14823798970E+04  0.00000000000E+00 0. -1.
         21   -1    0    0  501  502  0.00000000000E+00 -0.00000000000E+00 -0.72317553749E+02  0.72317553749E+02  0.00000000000E+00 0. -1.
         24    2    1    2    0    0 -0.93648926309E+02  0.13950965875E+03  0.69985964896E+03  0.72423007919E+03  0.80452551736E+02 0.  0.
         23    2    1    2    0    0 -0.64060325432E+02  0.87654425504E+02  0.24971952530E+03  0.29332634893E+03  0.10905724210E+03 0.  0.
        -13    1    3    3    0    0 -0.33270895414E+02  0.73832275482E+02  0.18869509303E+03  0.20533873361E+03  0.00000000000E+00 0.  1.
         14    1    3    3    0    0 -0.60378030896E+02  0.65677383273E+02  0.51116455593E+03  0.51889134559E+03  0.00000000000E+00 0. -1.
        -13    1    4    4    0    0  0.26075776090E+02  0.51214088350E+01  0.20502988567E+02  0.33564080016E+02  0.00000000000E+00 0.  1.
         13    1    4    4    0    0 -0.90136101522E+02  0.82533016669E+02  0.22921653674E+03  0.25976226891E+03  0.00000000000E+00 0. -1.
          1    1    1    2  501    0  0.15770925174E+03 -0.22716408426E+03  0.46048316896E+03  0.53714102260E+03  0.00000000000E+00 0. -1.
<scales pt_clust_5="13000.00000" pt_clust_6="13000.00000" pt_clust_7="13000.00000" pt_clust_8="13000.00000" pt_clust_9="276.54245"></scales>
<clustering>
<clus scale="   80.453">  5  6 -1 -1</clus>
<clus scale="  109.057">  7  8 -1 -1</clus>
<clus scale="  150.795">  5  7 -1 -1</clus>
<clus scale="  276.542">  2  9  1 -1</clus>
<clus scale="  276.542">  2  5  1 -1</clus>
</clustering>
</event>
<event>
 9    2  0.3764910E-005  0.8796050E+02  0.7546771E-02  0.1309339E+00
         21   -1    0    0  501  502  0.00000000000E+00  0.00000000000E+00  0.53592737630E+02  0.53592737630E+02  0.00000000000E+00 0. -1.
          2   -1    0    0  502    0 -0.00000000000E+00 -0.00000000000E+00 -0.36233124861E+03  0.36233124861E+03  0.00000000000E+00 0. -1.
         24    2    1    2    0    0 -0.28342905054E+02 -0.21561951870E+02 -0.25017226323E+03  0.26571452652E+03  0.82157228989E+02 0.  0.
         23    2    1    2    0    0 -0.15517387828E+02 -0.60978808966E+01 -0.41029810650E+02  0.95470823763E+02  0.84576943381E+02 0.  0.
        -13    1    3    3    0    0  0.17087391477E+02 -0.33866522746E+02 -0.71409799733E+02  0.80859630276E+02  0.00000000000E+00 0.  1.
         14    1    3    3    0    0 -0.45430296531E+02  0.12304570877E+02 -0.17876246350E+03  0.18485489624E+03  0.00000000000E+00 0. -1.
        -13    1    4    4    0    0 -0.31424172034E+02  0.23188730148E+02 -0.47528517295E+02  0.61515491953E+02  0.00000000000E+00 0.  1.
         13    1    4    4    0    0  0.15906784207E+02 -0.29286611044E+02  0.64987066458E+01  0.33955331810E+02  0.00000000000E+00 0. -1.
          1    1    1    2  501    0  0.43860292881E+02  0.27659832766E+02 -0.17536437091E+02  0.54738635954E+02  0.00000000000E+00 0. -1.
<scales pt_clust_5="13000.00000" pt_clust_6="13000.00000" pt_clust_7="13000.00000" pt_clust_8="13000.00000" pt_clust_9="51.85356"></scales>
<clustering>
<clus scale="   51.854">  1  9  2 -1</clus>
<clus scale="   82.157">  5  6 -1 -1</clus>
<clus scale="   84.577">  7  8 -1 -1</clus>
<clus scale="   85.636">  2  5  1 -1</clus>
<clus scale="   51.854">  1  5  2 -1</clus>
</clustering>
</event>
<event>
 9    2  0.3764910E-005  0.9446534E+02  0.7546771E-02  0.1298747E+00
          4   -1    0    0  502    0 -0.00000000000E+00  0.00000000000E+00  0.13004936220E+03  0.13004936220E+03  0.00000000000E+00 0. -1.
         21   -1    0    0  501  502  0.00000000000E+00 -0.00000000000E+00 -0.10671606912E+04  0.10671606912E+04  0.00000000000E+00 0. -1.
         23    2    1    2    0    0  0.10738390292E+02 -0.43265408707E+01  0.77115021182E+02  0.12203238238E+03  0.93867693455E+02 0.  0.
         24    2    1    2    0    0  0.57294160421E+02  0.45397347984E+02 -0.98389992917E+03  0.99011927365E+03  0.83268033596E+02 0.  0.
        -13    1    4    4    0    0  0.72627912346E+01  0.46382956545E+02 -0.24065507245E+03  0.24519174270E+03  0.00000000000E+00 0.  1.
         14    1    4    4    0    0  0.50031369187E+02 -0.98560856118E+00 -0.74324485672E+03  0.74492753095E+03  0.00000000000E+00 0. -1.
        -13    1    3    3    0    0 -0.12307234138E+02 -0.44998096355E+02  0.48131946042E+02  0.67029701756E+02  0.00000000000E+00 0.  1.
         13    1    3    3    0    0  0.23045624430E+02  0.40671555484E+02  0.28983075140E+02  0.55002680620E+02  0.00000000000E+00 0. -1.
          3    1    1    2  501    0 -0.68032550713E+02 -0.41070807114E+02 -0.30326421036E+02  0.85058397389E+02  0.00000000000E+00 0. -1.
<scales pt_clust_5="13000.00000" pt_clust_6="13000.00000" pt_clust_7="13000.00000" pt_clust_8="13000.00000" pt_clust_9="79.46852"></scales>
<clustering>
<clus scale="   79.469">  2  9  1 -1</clus>
<clus scale="   83.268">  5  6 -1 -1</clus>
<clus scale="   83.941">  2  5  1 -1</clus>
<clus scale="   93.868">  7  8 -1 -1</clus>
<clus scale="   79.469">  2  5  1 -1</clus>
</clustering>
</event>
<event>
 9    2  0.3764910E-005  0.1364030E+03  0.7546771E-02  0.1220874E+00
         21   -1    0    0  501  502  0.00000000000E+00  0.00000000000E+00  0.20405830396E+03  0.20405830396E+03  0.00000000000E+00 0.  1.
          2   -1    0    0  502    0 -0.00000000000E+00 -0.00000000000E+00 -0.37944109881E+03  0.37944109881E+03  0.00000000000E+00 0. -1.
         23    2    1    2    0    0  0.59333512466E+02  0.87153461747E+02 -0.32251885271E+03  0.35107807850E+03  0.90117785448E+02 0.  0.
         24    2    1    2    0    0 -0.24506517536E+02 -0.62529036802E+02  0.15761221679E+03  0.18850057990E+03  0.78615570317E+02 0.  0.
        -13    1    4    4    0    0 -0.92055552780E+01 -0.78689767723E+02  0.13649174004E+03  0.15781893705E+03  0.00000000000E+00 0.  1.
         14    1    4    4    0    0 -0.15300962258E+02  0.16160730921E+02  0.21120476752E+02  0.30681642853E+02  0.00000000000E+00 0. -1.
        -13    1    3    3    0    0  0.37725252433E+02 -0.12667080956E+01 -0.43531050834E+02  0.57617285664E+02  0.00000000000E+00 0.  1.
         13    1    3    3    0    0  0.21608260033E+02  0.88420169842E+02 -0.27898780187E+03  0.29346079283E+03  0.00000000000E+00 0. -1.
          1    1    1    2  501    0 -0.34826994929E+02 -0.24624424944E+02 -0.10476158931E+02  0.43920744365E+02  0.00000000000E+00 0. -1.
<scales pt_clust_5="13000.00000" pt_clust_6="13000.00000" pt_clust_7="13000.00000" pt_clust_8="13000.00000" pt_clust_9="42.65304"></scales>
<clustering>
<clus scale="   42.653">  1  9  2 -1</clus>
<clus scale="   78.616">  5  6 -1 -1</clus>
<clus scale="   90.118">  7  8 -1 -1</clus>
<clus scale="  129.093">  1  5  2 -1</clus>
<clus scale="   42.653">  1  5  2 -1</clus>
</clustering>
</event>
<event>
 9    2  0.3764910E-005  0.1087074E+03  0.7546771E-02  0.1263994E+00
          2   -1    0    0  502    0 -0.00000000000E+00  0.00000000000E+00  0.57666646450E+03  0.57666646450E+03  0.00000000000E+00 0. -1.
         21   -1    0    0  501  502  0.00000000000E+00 -0.00000000000E+00 -0.70561127905E+02  0.70561127905E+02  0.00000000000E+00 0.  1.
         23    2    1    2    0    0  0.15198208085E+02  0.74881662733E+02  0.44806285916E+03  0.46196959028E+03  0.82567109968E+02 0.  0.
         24    2    1    2    0    0 -0.56881630682E+02 -0.19732827594E+02  0.86453847500E+01  0.10029345362E+03  0.79744151929E+02 0.  0.
        -11    1    4    4    0    0 -0.40348273524E+02 -0.15482648358E+01 -0.32858724201E+02  0.52058390836E+02  0.00000000000E+00 0.  1.
         12    1    4    4    0    0 -0.16533357158E+02 -0.18184562758E+02  0.41504108951E+02  0.48235062780E+02  0.00000000000E+00 0. -1.
        -13    1    3    3    0    0 -0.25380942740E+02  0.17090081135E+02  0.58101556353E+02  0.65666231643E+02  0.00000000000E+00 0.  1.
         13    1    3    3    0    0  0.40579150825E+02  0.57791581597E+02  0.38996130280E+03  0.39630335864E+03  0.00000000000E+00 0. -1.
          1    1    1    2  501    0  0.41683422597E+02 -0.55148835138E+02  0.49397092686E+02  0.84964548503E+02  0.00000000000E+00 0. -1.
<scales pt_clust_5="13000.00000" pt_clust_6="13000.00000" pt_clust_7="13000.00000" pt_clust_8="13000.00000" pt_clust_9="69.12960"></scales>
<clustering>
<clus scale="   69.130">  2  9  1 -1</clus>
<clus scale="   79.744">  5  6 -1 -1</clus>
<clus scale="   82.567">  7  8 -1 -1</clus>
<clus scale="  106.579">  2  5  1 -1</clus>
<clus scale="   69.130">  2  5  1 -1</clus>
</clustering>
</event>
<event>
 9    2  0.3764910E-005  0.1182626E+03  0.7546771E-02  0.1252031E+00
         -1   -1    0    0    0  501 -0.00000000000E+00  0.00000000000E+00  0.49576231084E+03  0.49576231084E+03  0.00000000000E+00 0.  1.
         21   -1    0    0  501  502  0.00000000000E+00 -0.00000000000E+00 -0.56461602526E+02  0.56461602526E+02  0.00000000000E+00 0. -1.
         23    2    1    2    0    0  0.64612528315E+02 -0.24220190795E+02  0.22795923264E+03  0.25735426023E+03  0.97490548547E+02 0.  0.
         24    2    1    2    0    0 -0.66887208936E+02 -0.98630167037E+01  0.28710998753E+02  0.10907210120E+03  0.80630168005E+02 0.  0.
        -13    1    4    4    0    0 -0.22040517722E+02 -0.43733112917E+02  0.15090246663E+02  0.51245342532E+02  0.00000000000E+00 0.  1.
         14    1    4    4    0    0 -0.44846691215E+02  0.33870096213E+02  0.13620752090E+02  0.57826758667E+02  0.00000000000E+00 0. -1.
        -13    1    3    3    0    0  0.88936828397E+02 -0.20975483162E+02  0.20159010204E+03  0.22133300608E+03  0.00000000000E+00 0.  1.
         13    1    3    3    0    0 -0.24324300082E+02 -0.32447076326E+01  0.26369130598E+02  0.36021254151E+02  0.00000000000E+00 0. -1.
         -2    1    1    2    0  502  0.22746806219E+01  0.34083207499E+02  0.18263047692E+03  0.18579755194E+03  0.00000000000E+00 0.  1.
<scales pt_clust_5="13000.00000" pt_clust_6="13000.00000" pt_clust_7="13000.00000" pt_clust_8="13000.00000" pt_clust_9="34.15905"></scales>
<clustering>
<clus scale="   34.159">  2  9  1 -1</clus>
<clus scale="   80.630">  5  6 -1 -1</clus>
<clus scale="   97.491">  7  8 -1 -1</clus>
<clus scale="  104.799">  2  5  1 -1</clus>
<clus scale="   34.159">  2  5  1 -1</clus>
</clustering>
</event>
<event>
 9    2  0.3764910E-005  0.1808995E+03  0.7546771E-02  0.1193041E+00
          2   -1    0    0  502    0 -0.00000000000E+00  0.00000000000E+00  0.12726446479E+04  0.12726446479E+04  0.00000000000E+00 0. -1.
         21   -1    0    0  501  502  0.00000000000E+00 -0.00000000000E+00 -0.67281276548E+02  0.67281276548E+02  0.00000000000E+00 0.  1.
         23    2    1    2    0    0  0.13650102861E+02 -0.41098694694E+02  0.23588338399E+02  0.10331552877E+03  0.90786897529E+02 0.  0.
         24    2    1    2    0    0 -0.90409359134E+02 -0.12568603952E+03  0.43735501363E+03  0.46988339332E+03  0.74432268643E+02 0.  0.
        -11    1    4    4    0    0 -0.93977040602E+02 -0.12797955303E+03  0.37299039511E+03  0.40537918668E+03  0.00000000000E+00 0.  1.
         12    1    4    4    0    0  0.35676814687E+01  0.22935135109E+01  0.64364618529E+02  0.64504206635E+02  0.00000000000E+00 0. -1.
        -11    1    3    3    0    0 -0.31795114120E+02  0.71802563179E+00  0.26635359391E+02  0.41483577626E+02  0.00000000000E+00 0. -1.
         11    1    3    3    0    0  0.45445216982E+02 -0.41816720325E+02 -0.30470209924E+01  0.61831951144E+02  0.00000000000E+00 0.  1.
          1    1    1    2  501    0  0.76759256272E+02  0.16678473421E+03  0.74442001931E+03  0.76672700236E+03  0.00000000000E+00 0. -1.
<scales pt_clust_5="13000.00000" pt_clust_6="13000.00000" pt_clust_7="13000.00000" pt_clust_8="13000.00000" pt_clust_9="164.87719"></scales>
<clustering>
<clus scale="   74.432">  5  6 -1 -1</clus>
<clus scale="   90.787">  7  8 -1 -1</clus>
<clus scale="  100.587">  1  7  2 -1</clus>
<clus scale="  164.877">  2  9  1 -1</clus>
<clus scale="  164.877">  2  5  1 -1</clus>
</clustering>
</event>
<event>
 9    2  0.3764910E-005  0.1176868E+03  0.7546771E-02  0.1252032E+00
         21   -1    0    0  501  502  0.00000000000E+00  0.00000000000E+00  0.38093341682E+02  0.38093341682E+02  0.00000000000E+00 0. -1.
          2   -1    0    0  502    0 -0.00000000000E+00 -0.00000000000E+00 -0.91574730116E+03  0.91574730116E+03  0.00000000000E+00 0. -1.
         23    2    1    2    0    0  0.74883651283E+02  0.40397808648E+02 -0.50469090599E+03  0.51953475886E+03  0.89240746885E+02 0.  0.
         24    2    1    2    0    0 -0.14482749466E+02 -0.62846016495E+02 -0.60074678089E+02  0.11485115098E+03  0.73637273935E+02 0.  0.
        -11    1    4    4    0    0  0.84470802735E+01 -0.42155736037E+02 -0.70225370821E+02  0.82341131598E+02  0.00000000000E+00 0.  1.
         12    1    4    4    0    0 -0.22929829739E+02 -0.20690280457E+02  0.10150692731E+02  0.32510019382E+02  0.00000000000E+00 0. -1.
        -13    1    3    3    0    0  0.92206433939E+02  0.18232175606E+02 -0.35554829374E+03  0.36776218929E+03  0.00000000000E+00 0. -1.
         13    1    3    3    0    0 -0.17322782657E+02  0.22165633042E+02 -0.14914261224E+03  0.15177256957E+03  0.00000000000E+00 0.  1.
          1    1    1    2  501    0 -0.60400901817E+02  0.22448207847E+02 -0.31288837541E+03  0.31945473301E+03  0.00000000000E+00 0. -1.
<scales pt_clust_5="13000.00000" pt_clust_6="13000.00000" pt_clust_7="13000.00000" pt_clust_8="13000.00000" pt_clust_9="64.43753"></scales>
<clustering>
<clus scale="   64.438">  1  9  2 -1</clus>
<clus scale="   73.637">  5  6 -1 -1</clus>
<clus scale="   89.241">  7  8 -1 -1</clus>
<clus scale="  106.342">  1  5  2 -1</clus>
<clus scale="   64.438">  1  5  2 -1</clus>
</clustering>
</event>
<event>
 9    2  0.3764910E-005  0.9929247E+02  0.7546771E-02  0.1287426E+00
          4   -1    0    0  502    0 -0.00000000000E+00  0.00000000000E+00  0.12139441469E+04  0.12139441469E+04  0.00000000000E+00 0. -1.
         21   -1    0    0  501  502  0.00000000000E+00 -0.00000000000E+00 -0.19910201021E+02  0.19910201021E+02  0.00000000000E+00 0. -1.
         24    2    1    2    0    0  0.45158160555E+02  0.24644854163E+02  0.84245485647E+03  0.84774428883E+03  0.79331997097E+02 0.  0.
         23    2    1    2    0    0 -0.20312308690E+02  0.91043438907E+01  0.32095873308E+03  0.33420696723E+03  0.90467174388E+02 0.  0.
        -13    1    3    3    0    0  0.30652868349E+02 -0.22902161535E+02  0.21958094148E+03  0.22288987685E+03  0.00000000000E+00 0.  1.
         14    1    3    3    0    0  0.14505292207E+02  0.47547015698E+02  0.62287391499E+03  0.62485441199E+03  0.00000000000E+00 0. -1.
        -11    1    4    4    0    0 -0.37558452559E+02 -0.29429736408E+02  0.21318246685E+03  0.21845711459E+03  0.00000000000E+00 0.  1.
         11    1    4    4    0    0  0.17246143869E+02  0.38534080299E+02  0.10777626623E+03  0.11574985263E+03  0.00000000000E+00 0. -1.
          3    1    1    2  501    0 -0.24845851865E+02 -0.33749198054E+02  0.30620356371E+02  0.51903091897E+02  0.00000000000E+00 0. -1.
<scales pt_clust_5="13000.00000" pt_clust_6="13000.00000" pt_clust_7="13000.00000" pt_clust_8="13000.00000" pt_clust_9="41.90853"></scales>
<clustering>
<clus scale="   41.909">  2  9  1 -1</clus>
<clus scale="   79.332">  5  6 -1 -1</clus>
<clus scale="   89.265">  1  5  2 -1</clus>
<clus scale="   90.467">  7  8 -1 -1</clus>
<clus scale="   41.909">  2  5  1 -1</clus>
</clustering>
</event>
<event>
 9    2  0.3764910E-005  0.1261583E+03  0.7546771E-02  0.1236797E+00
          2   -1    0    0  502    0 -0.00000000000E+00  0.00000000000E+00  0.44473625261E+03  0.44473625261E+03  0.00000000000E+00 0. -1.
         21   -1    0    0  501  502  0.00000000000E+00 -0.00000000000E+00 -0.14160663778E+03  0.14160663778E+03  0.00000000000E+00 0. -1.
         24    2    1    2    0    0 -0.62852703579E+02 -0.52722537627E+02  0.19094926730E+03  0.22357045994E+03  0.82413588414E+02 0.  0.
         23    2    1    2    0    0  0.46565892065E+02  0.73865914390E+02  0.21827090345E+03  0.25337632144E+03  0.94513582929E+02 0.  0.
        -11    1    3    3    0    0 -0.24513598448E+02 -0.52179854789E+02  0.46346775766E+02  0.73970787333E+02  0.00000000000E+00 0.  1.
         12    1    3    3    0    0 -0.38339105130E+02 -0.54268283738E+00  0.14460249154E+03  0.14959967261E+03  0.00000000000E+00 0. -1.
        -11    1    4    4    0    0 -0.90570960165E+01  0.68600892898E+02  0.14974820234E+03  0.16496253393E+03  0.00000000000E+00 0. -1.
         11    1    4    4    0    0  0.55622988081E+02  0.52650214921E+01  0.68522701110E+02  0.88413787510E+02  0.00000000000E+00 0.  1.
          1    1    1    2  501    0  0.16286811514E+02 -0.21143376763E+02 -0.10609055593E+03  0.10939610901E+03  0.00000000000E+00 0. -1.
<scales pt_clust_5="13000.00000" pt_clust_6="13000.00000" pt_clust_7="13000.00000" pt_clust_8="13000.00000" pt_clust_9="26.68900"></scales>
<clustering>
<clus scale="   26.689">  2  9  1 -1</clus>
<clus scale="   82.414">  5  6 -1 -1</clus>
<clus scale="   94.514">  7  8 -1 -1</clus>
<clus scale="  117.367">  1  5  2 -1</clus>
<clus scale="   26.689">  2  5  1 -1</clus>
</clustering>
</event>
<event>
 9    2  0.3764910E-005  0.8967364E+02  0.7546771E-02  0.1306739E+00
         21   -1    0    0  501  502  0.00000000000E+00  0.00000000000E+00  0.17562909090E+03  0.17562909090E+03  0.00000000000E+00 0.  1.
         -3   -1    0    0    0  501 -0.00000000000E+00 -0.00000000000E+00 -0.87786574783E+02  0.87786574783E+02  0.00000000000E+00 0.  1.
         24    2    1    2    0    0 -0.89300400252E+01 -0.16584493814E+02 -0.16153806365E+01  0.86110138380E+02  0.84009257985E+02 0.  0.
         23    2    1    2    0    0 -0.32347214965E+02 -0.42615153530E+01  0.90509001668E+02  0.13105109293E+03  0.88983182383E+02 0.  0.
        -11    1    3    3    0    0 -0.33896639953E+02 -0.24989922311E+02 -0.26594193942E+02  0.49806922898E+02  0.00000000000E+00 0.  1.
         12    1    3    3    0    0  0.24966599928E+02  0.84054284963E+01  0.24978813305E+02  0.36303215481E+02  0.00000000000E+00 0. -1.
        -13    1    4    4    0    0 -0.55681454604E+02 -0.26206178016E+02  0.49271942707E+02  0.78834716281E+02  0.00000000000E+00 0.  1.
         13    1    4    4    0    0  0.23334239639E+02  0.21944662663E+02  0.41237058961E+02  0.52216376652E+02  0.00000000000E+00 0. -1.
         -4    1    1    2    0  502  0.41277254990E+02  0.20846009167E+02 -0.10511049111E+01  0.46254434374E+02  0.00000000000E+00 0.  1.
<scales pt_clust_5="13000.00000" pt_clust_6="13000.00000" pt_clust_7="13000.00000" pt_clust_8="13000.00000" pt_clust_9="46.24251"></scales>
<clustering>
<clus scale="   46.243">  1  9  2 -1</clus>
<clus scale="   84.009">  5  6 -1 -1</clus>
<clus scale="   84.740">  2  5  1 -1</clus>
<clus scale="   88.983">  7  8 -1 -1</clus>
<clus scale="   46.243">  1  5  2 -1</clus>
</clustering>
</event>
<event>
 9    2  0.3764910E-005  0.1004428E+03  0.7546771E-02  0.1283615E+00
         21   -1    0    0  501  502  0.00000000000E+00  0.00000000000E+00  0.26124170077E+02  0.26124170077E+02  0.00000000000E+00 0. -1.
          2   -1    0    0  502    0 -0.00000000000E+00 -0.00000000000E+00 -0.89019101355E+03  0.89019101355E+03  0.00000000000E+00 0. -1.
         24    2    1    2    0    0  0.42227907991E+02 -0.25289440379E+02 -0.65900674154E+03  0.66595348709E+03  0.82349314260E+02 0.  0.
         23    2    1    2    0    0 -0.16046252142E+01  0.30341913478E+02 -0.17497657494E+03  0.19956014947E+03  0.91017827617E+02 0.  0.
        -11    1    3    3    0    0 -0.18162999085E+02 -0.96568330714E+01 -0.54777160317E+02  0.58512274380E+02  0.00000000000E+00 0.  1.
         12    1    3    3    0    0  0.60390907076E+02 -0.15632607308E+02 -0.60422958123E+03  0.60744121271E+03  0.00000000000E+00 0. -1.
        -11    1    4    4    0    0  0.24546179601E+02 -0.24776305777E+02 -0.67389180544E+02  0.75879390584E+02  0.00000000000E+00 0. -1.
         11    1    4    4    0    0 -0.26150804816E+02  0.55118219255E+02 -0.10758739439E+03  0.12368075889E+03  0.00000000000E+00 0.  1.
          1    1    1    2  501    0 -0.40623282777E+02 -0.50524730983E+01 -0.30083526986E+02  0.50801547062E+02  0.00000000000E+00 0. -1.
<scales pt_clust_5="13000.00000" pt_clust_6="13000.00000" pt_clust_7="13000.00000" pt_clust_8="13000.00000" pt_clust_9="40.93627"></scales>
<clustering>
<clus scale="   40.936">  1  9  2 -1</clus>
<clus scale="   82.349">  5  6 -1 -1</clus>
<clus scale="   91.018">  7  8 -1 -1</clus>
<clus scale="   92.660">  2  5  1 -1</clus>
<clus scale="   40.936">  1  5  2 -1</clus>
</clustering>
</event>
<event>
 9    2  0.3764910E-005  0.1557756E+03  0.7546771E-02  0.1194682E+00
         21   -1    0    0  501  502  0.00000000000E+00  0.00000000000E+00  0.17302806159E+03  0.17302806159E+03  0.00000000000E+00 0.  1.
         -3   -1    0    0    0  501 -0.00000000000E+00 -0.00000000000E+00 -0.21124904180E+03  0.21124904180E+03  0.00000000000E+00 0.  1.
         23    2    1    2    0    0  0.85107129026E+02 -0.83528786823E+02 -0.14230022451E+02  0.14848078300E+03  0.87314189809E+02 0.  0.
         24    2    1    2    0    0 -0.10403426810E+03  0.99640612134E+02  0.37794868137E+02  0.16919815383E+03  0.80300577060E+02 0.  0.
        -13    1    4    4    0    0 -0.10654609239E+03  0.99708470196E+02  0.15480723538E+02  0.14674297814E+03  0.00000000000E+00 0.  1.
         14    1    4    4    0    0  0.25118242912E+01 -0.67858061969E-01  0.22314144599E+02  0.22455175688E+02  0.00000000000E+00 0. -1.
        -11    1    3    3    0    0  0.37737608059E+02 -0.80379201679E+01 -0.40131534235E+02  0.55671134915E+02  0.00000000000E+00 0. -1.
         11    1    3    3    0    0  0.47369520967E+02 -0.75490866655E+02  0.25901511784E+02  0.92809648085E+02  0.00000000000E+00 0.  1.
         -4    1    1    2    0  502  0.18927139070E+02 -0.16111825311E+02 -0.61785825897E+02  0.66598166566E+02  0.00000000000E+00 0.  1.
<scales pt_clust_5="13000.00000" pt_clust_6="13000.00000" pt_clust_7="13000.00000" pt_clust_8="13000.00000" pt_clust_9="24.85615"></scales>
<clustering>
<clus scale="   24.856">  1  9  2 -1</clus>
<clus scale="   80.301">  5  6 -1 -1</clus>
<clus scale="   87.314">  7  8 -1 -1</clus>
<clus scale="  151.955">  1  5  2 -1</clus>
<clus scale="   24.856">  1  5  2 -1</clus>
</clustering>
</event>
<event>
 9    2  0.3764910E-005  0.1160500E+03  0.7546771E-02  0.1251422E+00
         21   -1    0    0  501  502  0.00000000000E+00  0.00000000000E+00  0.24337265026E+03  0.24337265026E+03  0.00000000000E+00 0.  1.
         -1   -1    0    0    0  501 -0.00000000000E+00 -0.00000000000E+00 -0.27695065263E+03  0.27695065263E+03  0.00000000000E+00 0.  1.
         24    2    1    2    0    0 -0.71931262426E+02  0.27024466167E+02 -0.20973602193E+03  0.24261203163E+03  0.94694090155E+02 0.  0.
         23    2    1    2    0    0  0.39782649043E+01  0.81396851885E+01  0.16852016192E+02  0.10098399514E+03  0.99154907888E+02 0.  0.
        -11    1    3    3    0    0 -0.55742120302E+02  0.60846460149E+02 -0.12298389281E+03  0.14810305054E+03  0.00000000000E+00 0.  1.
         12    1    3    3    0    0 -0.16189142124E+02 -0.33821993982E+02 -0.86752129123E+02  0.94508981092E+02  0.00000000000E+00 0. -1.
        -11    1    4    4    0    0  0.96576372287E+01  0.53183325593E+02  0.67448264930E+01  0.54472275172E+02  0.00000000000E+00 0.  1.
         11    1    4    4    0    0 -0.56793723244E+01 -0.45043640405E+02  0.10107189699E+02  0.46511719969E+02  0.00000000000E+00 0. -1.
         -2    1    1    2    0  502  0.67952997521E+02 -0.35164151356E+02  0.15930600337E+03  0.17672727612E+03  0.00000000000E+00 0.  1.
<scales pt_clust_5="13000.00000" pt_clust_6="13000.00000" pt_clust_7="13000.00000" pt_clust_8="13000.00000" pt_clust_9="76.51227"></scales>
<clustering>
<clus scale="   76.512">  1  9  2 -1</clus>
<clus scale="   94.694">  5  6 -1 -1</clus>
<clus scale="   99.155">  7  8 -1 -1</clus>
<clus scale="  112.263">  2  5  1 -1</clus>
<clus scale="   76.512">  1  5  2 -1</clus>
</clustering>
</event>
<event>
 9    2  0.3764910E-005  0.2860749E+03  0.7546771E-02  0.1092936E+00
         21   -1    0    0  501  502  0.00000000000E+00  0.00000000000E+00  0.27103430033E+03  0.27103430033E+03  0.00000000000E+00 0. -1.
          2   -1    0    0  502    0 -0.00000000000E+00 -0.00000000000E+00 -0.14756581699E+04  0.14756581699E+04  0.00000000000E+00 0. -1.
         24    2    1    2    0    0 -0.26878734961E+03 -0.22083534806E+02 -0.94805507869E+03  0.98878987886E+03  0.78502678119E+02 0.  0.
         23    2    1    2    0    0  0.25656352341E+03  0.13628817494E+03 -0.44379297254E+03  0.53825511020E+03  0.91471596758E+02 0.  0.
        -11    1    3    3    0    0 -0.11023121684E+03 -0.39288712225E+02 -0.48940816062E+03  0.50320460228E+03  0.00000000000E+00 0.  1.
         12    1    3    3    0    0 -0.15855613278E+03  0.17205177419E+02 -0.45864691808E+03  0.48558527658E+03  0.00000000000E+00 0. -1.
        -13    1    4    4    0    0  0.29051009571E+02 -0.98926850492E+01 -0.24272911962E+02  0.39128003140E+02  0.00000000000E+00 0. -1.
         13    1    4    4    0    0  0.22751251384E+03  0.14618085999E+03 -0.41952006058E+03  0.49912710706E+03  0.00000000000E+00 0.  1.
          1    1    1    2  501    0  0.12223826206E+02 -0.11420464013E+03  0.18722418170E+03  0.21964748113E+03  0.00000000000E+00 0. -1.
<scales pt_clust_5="13000.00000" pt_clust_6="13000.00000" pt_clust_7="13000.00000" pt_clust_8="13000.00000" pt_clust_9="114.85696"></scales>
<clustering>
<clus scale="   78.503">  5  6 -1 -1</clus>
<clus scale="   91.472">  7  8 -1 -1</clus>
<clus scale="  114.857">  1  9  2 -1</clus>
<clus scale="  282.196">  2  5  1 -1</clus>
<clus scale="  114.857">  1  5  2 -1</clus>
</clustering>
</event>
<event>
 9    2  0.3764910E-005  0.1124698E+03  0.7546771E-02  0.1263783E+00
         21   -1    0    0  501  502  0.00000000000E+00  0.00000000000E+00  0.29799216494E+02  0.29799216494E+02  0.00000000000E+00 0.  1.
          2   -1    0    0  502    0 -0.00000000000E+00 -0.00000000000E+00 -0.10366672379E+04  0.10366672379E+04  0.00000000000E+00 0. -1.
         24    2    1    2    0    0 -0.21542306101E+02 -0.65146228777E+01 -0.83089432977E+03  0.83834495026E+03  0.10922617414E+03 0.  0.
         23    2    1    2    0    0  0.49236431432E+02 -0.13868535350E+02 -0.15521115077E+03  0.18795284945E+03  0.92839699704E+02 0.  0.
        -13    1    3    3    0    0  0.17250700677E+02 -0.43141164323E+02 -0.20587714410E+03  0.21105483931E+03  0.00000000000E+00 0.  1.
         14    1    3    3    0    0 -0.38793006779E+02  0.36626541445E+02 -0.62501718567E+03  0.62729011095E+03  0.00000000000E+00 0. -1.
        -11    1    4    4    0    0  0.64103918813E+02 -0.40120104650E+02 -0.10552962008E+03  0.12982848654E+03  0.00000000000E+00 0.  1.
         11    1    4    4    0    0 -0.14867487381E+02  0.26251569300E+02 -0.49681530688E+02  0.58124362906E+02  0.00000000000E+00 0. -1.
          1    1    1    2  501    0 -0.27694125331E+02  0.20383158227E+02 -0.20762540903E+02  0.40168654718E+02  0.00000000000E+00 0. -1.
<scales pt_clust_5="13000.00000" pt_clust_6="13000.00000" pt_clust_7="13000.00000" pt_clust_8="13000.00000" pt_clust_9="34.38659"></scales>
<clustering>
<clus scale="   34.387">  1  9  2 -1</clus>
<clus scale="   92.840">  7  8 -1 -1</clus>
<clus scale="   96.635">  1  7  2 -1</clus>
<clus scale="  109.226">  5  6 -1 -1</clus>
<clus scale="   34.387">  1  5  2 -1</clus>
</clustering>
</event>
<event>
 9    2  0.3764910E-005  0.1120474E+03  0.7546771E-02  0.1260743E+00
         -3   -1    0    0    0  501 -0.00000000000E+00  0.00000000000E+00  0.16523126440E+03  0.16523126440E+03  0.00000000000E+00 0.  1.
         21   -1    0    0  501  502  0.00000000000E+00 -0.00000000000E+00 -0.21104440266E+03  0.21104440266E+03  0.00000000000E+00 0.  1.
         23    2    1    2    0    0  0.55288980714E+02  0.21801742066E+02  0.57747577277E+02  0.12393972108E+03  0.92163357327E+02 0.  0.
         24    2    1    2    0    0 -0.25179281976E+02 -0.88678785901E+02  0.26032885474E+01  0.12330134321E+03  0.81844491671E+02 0.  0.
        -11    1    4    4    0    0  0.19064430907E+02 -0.43672851045E+02  0.28001949671E+02  0.55270965520E+02  0.00000000000E+00 0.  1.
         12    1    4    4    0    0 -0.44243712883E+02 -0.45005934857E+02 -0.25398661124E+02  0.68030377692E+02  0.00000000000E+00 0. -1.
        -11    1    3    3    0    0  0.13097284672E+02  0.36211469095E+02 -0.12718752712E+02  0.40553372614E+02  0.00000000000E+00 0.  1.
         11    1    3    3    0    0  0.42191696042E+02 -0.14409727029E+02  0.70466329989E+02  0.83386348463E+02  0.00000000000E+00 0. -1.
         -4    1    1    2    0  502 -0.30109698737E+02  0.66877043836E+02 -0.10616400408E+03  0.12903460277E+03  0.00000000000E+00 0.  1.
<scales pt_clust_5="13000.00000" pt_clust_6="13000.00000" pt_clust_7="13000.00000" pt_clust_8="13000.00000" pt_clust_9="73.34257"></scales>
<clustering>
<clus scale="   73.343">  2  9  1 -1</clus>
<clus scale="   81.844">  5  6 -1 -1</clus>
<clus scale="   92.163">  7  8 -1 -1</clus>
<clus scale="  103.726">  2  5  1 -1</clus>
<clus scale="   73.343">  2  5  1 -1</clus>
</clustering>
</event>
<event>
 9    2  0.3764910E-005  0.9699559E+02  0.7546771E-02  0.1290229E+00
          2   -1    0    0  502    0 -0.00000000000E+00  0.00000000000E+00  0.25600545076E+03  0.25600545076E+03  0.00000000000E+00 0. -1.
         21   -1    0    0  501  502  0.00000000000E+00 -0.00000000000E+00 -0.95135229764E+02  0.95135229764E+02  0.00000000000E+00 0. -1.
         23    2    1    2    0    0 -0.10388898330E+02  0.27087262274E+02  0.82509881459E+02  0.12497885724E+03  0.89275893910E+02 0.  0.
         24    2    1    2    0    0  0.89328731875E+02  0.17885738604E+02  0.36367819268E+02  0.12607466183E+03  0.79200253115E+02 0.  0.
        -11    1    4    4    0    0  0.24893354488E+02  0.42124768268E+02  0.16160266085E+01  0.48956988687E+02  0.00000000000E+00 0.  1.
         12    1    4    4    0    0  0.64435377387E+02 -0.24239029664E+02  0.34751792660E+02  0.77117673144E+02  0.00000000000E+00 0. -1.
        -11    1    3    3    0    0  0.21430437235E+02 -0.24897150507E+02  0.26585724001E+02  0.42260294179E+02  0.00000000000E+00 0.  1.
         11    1    3    3    0    0 -0.31819335564E+02  0.51984412782E+02  0.55924157458E+02  0.82718563064E+02  0.00000000000E+00 0. -1.
          1    1    1    2  501    0 -0.78939833545E+02 -0.44973000878E+02  0.41992520266E+02  0.10008716145E+03  0.00000000000E+00 0. -1.
<scales pt_clust_5="13000.00000" pt_clust_6="13000.00000" pt_clust_7="13000.00000" pt_clust_8="13000.00000" pt_clust_9="90.85190"></scales>
<clustering>
<clus scale="   79.200">  5  6 -1 -1</clus>
<clus scale="   89.276">  7  8 -1 -1</clus>
<clus scale="   90.852">  2  9  1 -1</clus>
<clus scale="   90.852">  2  5  1 -1</clus>
<clus scale="   90.852">  2  5  1 -1</clus>
</clustering>
</event>
<event>
 9    2  0.3764910E-005  0.6465575E+03  0.7546771E-02  0.1002432E+00
         21   -1    0    0  501  502  0.00000000000E+00  0.00000000000E+00  0.16040580834E+04  0.16040580834E+04  0.00000000000E+00 0.  1.
         -1   -1    0    0    0  501 -0.00000000000E+00 -0.00000000000E+00 -0.72479927937E+03  0.72479927937E+03  0.00000000000E+00 0.  1.
         23    2    1    2    0    0 -0.12397385943E+03 -0.28778227909E+03  0.37888873491E+03  0.50161947179E+03  0.99384420596E+02 0.  0.
         24    2    1    2    0    0 -0.11520289987E+03  0.84316578701E+03 -0.22387452867E+03  0.88374088489E+03  0.81718385419E+02 0.  0.
        -11    1    4    4    0    0 -0.49629707141E+02  0.18969464748E+03 -0.77726902941E+02  0.21092330017E+03  0.00000000000E+00 0.  1.
         12    1    4    4    0    0 -0.65573192734E+02  0.65347113952E+03 -0.14614762573E+03  0.67281758471E+03  0.00000000000E+00 0. -1.
        -11    1    3    3    0    0 -0.23607522630E+02 -0.16475014750E+03  0.15720021278E+03  0.22893630801E+03  0.00000000000E+00 0.  1.
         11    1    3    3    0    0 -0.10036633680E+03 -0.12303213159E+03  0.22168852213E+03  0.27268316378E+03  0.00000000000E+00 0. -1.
         -2    1    1    2    0  502  0.23917675931E+03 -0.55538350791E+03  0.72424459775E+03  0.94349700605E+03  0.00000000000E+00 0.  1.
<scales pt_clust_5="13000.00000" pt_clust_6="13000.00000" pt_clust_7="13000.00000" pt_clust_8="13000.00000" pt_clust_9="641.37249"></scales>
<clustering>
<clus scale="   81.718">  5  6 -1 -1</clus>
<clus scale="   99.384">  7  8 -1 -1</clus>
<clus scale="  328.733">  2  7  1 -1</clus>
<clus scale="  641.372">  1  9  2 -1</clus>
<clus scale="  641.372">  1  5  2 -1</clus>
</clustering>
</event>
<event>
 9    2  0.3764910E-005  0.2158388E+03  0.7546771E-02  0.1164048E+00
          2   -1    0    0  502    0 -0.00000000000E+00  0.00000000000E+00  0.24555752664E+03  0.24555752664E+03  0.00000000000E+00 0. -1.
         21   -1    0    0  501  502  0.00000000000E+00 -0.00000000000E+00 -0.33395965940E+03  0.33395965940E+03  0.00000000000E+00 0.  1.
         23    2    1    2    0    0  0.29190496639E+02  0.62964131838E+02  0.45206442599E+02  0.12248264961E+03  0.90231978876E+02 0.  0.
         24    2    1    2    0    0  0.26678815721E+02  0.17252724762E+03 -0.85606333634E+02  0.21029219090E+03  0.80105872561E+02 0.  0.
        -13    1    4    4    0    0 -0.17652702526E+02  0.11374607006E+03 -0.70968933255E+02  0.13522712690E+03  0.00000000000E+00 0.  1.
         14    1    4    4    0    0  0.44331518247E+02  0.58781177554E+02 -0.14637400379E+02  0.75065064008E+02  0.00000000000E+00 0. -1.
        -11    1    3    3    0    0 -0.24937859824E+02  0.11912422502E+02 -0.10468645178E+02  0.29553260299E+02  0.00000000000E+00 0. -1.
         11    1    3    3    0    0  0.54128356463E+02  0.51051709336E+02  0.55675087777E+02  0.92929389315E+02  0.00000000000E+00 0.  1.
          1    1    1    2  501    0 -0.55869312360E+02 -0.23549137946E+03 -0.48002241727E+02  0.24674234552E+03  0.00000000000E+00 0. -1.
<scales pt_clust_5="13000.00000" pt_clust_6="13000.00000" pt_clust_7="13000.00000" pt_clust_8="13000.00000" pt_clust_9="200.42329"></scales>
<clustering>
<clus scale="   80.106">  5  6 -1 -1</clus>
<clus scale="   90.232">  7  8 -1 -1</clus>
<clus scale="  113.835">  1  7  2 -1</clus>
<clus scale="  200.423">  2  9  1 -1</clus>
<clus scale="  200.423">  2  5  1 -1</clus>
</clustering>
</event>
<event>
 9    2  0.3764910E-005  0.9420297E+02  0.7546771E-02  0.1300435E+00
          4   -1    0    0  502    0 -0.00000000000E+00  0.00000000000E+00  0.45111750085E+02  0.45111750085E+02  0.00000000000E+00 0. -1.
         21   -1    0    0  501  502  0.00000000000E+00 -0.00000000000E+00 -0.29823258331E+03  0.29823258331E+03  0.00000000000E+00 0.  1.
         24    2    1    2    0    0  0.30549553540E+01  0.45301972876E+01 -0.94003221010E+02  0.12421283699E+03  0.81008443214E+02 0.  0.
         23    2    1    2    0    0 -0.27365607778E+02 -0.44984341393E+01 -0.16723857967E+03  0.19350028609E+03  0.93297940957E+02 0.  0.
        -11    1    3    3    0    0 -0.21535610828E+02 -0.28923768403E+02 -0.62260046457E+02  0.71949150775E+02  0.00000000000E+00 0.  1.
         12    1    3    3    0    0  0.24590566182E+02  0.33453965691E+02 -0.31743174553E+02  0.52263686210E+02  0.00000000000E+00 0. -1.
        -13    1    4    4    0    0  0.17024492807E+02 -0.37884855019E+02 -0.78530717204E+02  0.88837881220E+02  0.00000000000E+00 0.  1.
         13    1    4    4    0    0 -0.44390100585E+02  0.33386420880E+02 -0.88707862471E+02  0.10466240487E+03  0.00000000000E+00 0. -1.
          3    1    1    2  501    0  0.24310652424E+02 -0.31763148318E-01  0.81209674555E+01  0.25631210323E+02  0.00000000000E+00 0. -1.
<scales pt_clust_5="13000.00000" pt_clust_6="13000.00000" pt_clust_7="13000.00000" pt_clust_8="13000.00000" pt_clust_9="24.31069"></scales>
<clustering>
<clus scale="   24.311">  2  9  1 -1</clus>
<clus scale="   81.008">  5  6 -1 -1</clus>
<clus scale="   82.049">  1  5  2 -1</clus>
<clus scale="   93.298">  7  8 -1 -1</clus>
<clus scale="   24.311">  2  5  1 -1</clus>
</clustering>
</event>
<event>
 9    2  0.3764910E-005  0.1618381E+03  0.7546771E-02  0.1200133E+00
         21   -1    0    0  501  502  0.00000000000E+00  0.00000000000E+00  0.23303780339E+03  0.23303780339E+03  0.00000000000E+00 0. -1.
          2   -1    0    0  502    0 -0.00000000000E+00 -0.00000000000E+00 -0.30991453969E+03  0.30991453969E+03  0.00000000000E+00 0. -1.
         24    2    1    2    0    0 -0.61648428358E+02 -0.65622449923E+02 -0.17622106018E+03  0.21337824610E+03  0.79809643565E+02 0.  0.
         23    2    1    2    0    0 -0.83919826442E+02 -0.26527699074E+02 -0.13680207266E+02  0.12352480334E+03  0.85586055419E+02 0.  0.
        -13    1    3    3    0    0  0.10954941441E+02 -0.37467419211E+02 -0.36605171957E+02  0.53514080935E+02  0.00000000000E+00 0.  1.
         14    1    3    3    0    0 -0.72603369799E+02 -0.28155030712E+02 -0.13961588822E+03  0.15986416517E+03  0.00000000000E+00 0. -1.
        -11    1    4    4    0    0 -0.21856313601E+02  0.15228478230E+02  0.27374412691E+02  0.38196380242E+02  0.00000000000E+00 0. -1.
         11    1    4    4    0    0 -0.62063512841E+02 -0.41756177303E+02 -0.41054619957E+02  0.85328423102E+02  0.00000000000E+00 0.  1.
          1    1    1    2  501    0  0.14556825480E+03  0.92150148997E+02  0.11302453114E+03  0.20604929363E+03  0.00000000000E+00 0. -1.
<scales pt_clust_5="13000.00000" pt_clust_6="13000.00000" pt_clust_7="13000.00000" pt_clust_8="13000.00000" pt_clust_9="137.35577"></scales>
<clustering>
<clus scale="   79.810">  5  6 -1 -1</clus>
<clus scale="   85.586">  7  8 -1 -1</clus>
<clus scale="  120.318">  2  5  1 -1</clus>
<clus scale="  137.356">  1  9  2 -1</clus>
<clus scale="  137.356">  1  5  2 -1</clus>
</clustering>
</event>
<event>
 9    2  0.3764910E-005  0.1290868E+03  0.7546771E-02  0.1245419E+00
         -1   -1    0    0    0  501 -0.00000000000E+00  0.00000000000E+00  0.98583753207E+02  0.98583753207E+02  0.00000000000E+00 0.  1.
         21   -1    0    0  501  502  0.00000000000E+00 -0.00000000000E+00 -0.46836821315E+03  0.46836821315E+03  0.00000000000E+00 0.  1.
         23    2    1    2    0    0  0.27914916510E+01  0.43990791015E+01 -0.19329869806E+03  0.21407177682E+03  0.91843315698E+02 0.  0.
         24    2    1    2    0    0  0.79932040667E+02 -0.65607654932E+02  0.20094438768E+02  0.13099407496E+03  0.77859910693E+02 0.  0.
        -11    1    4    4    0    0  0.56839438272E+02 -0.15833223217E+02  0.41457127961E+02  0.72111761588E+02  0.00000000000E+00 0.  1.
         12    1    4    4    0    0  0.23092602395E+02 -0.49774431716E+02 -0.21362689193E+02  0.58882313368E+02  0.00000000000E+00 0. -1.
        -13    1    3    3    0    0  0.36458413421E+02  0.20096820241E+02 -0.45477778007E+02  0.61654897497E+02  0.00000000000E+00 0.  1.
         13    1    3    3    0    0 -0.33666921770E+02 -0.15697741140E+02 -0.14782092005E+03  0.15241687933E+03  0.00000000000E+00 0. -1.
         -2    1    1    2    0  502 -0.82723532318E+02  0.61208575831E+02 -0.19658020065E+03  0.22188611458E+03  0.00000000000E+00 0.  1.
<scales pt_clust_5="13000.00000" pt_clust_6="13000.00000" pt_clust_7="13000.00000" pt_clust_8="13000.00000" pt_clust_9="102.96228"></scales>
<clustering>
<clus scale="   77.860">  5  6 -1 -1</clus>
<clus scale="   91.843">  7  8 -1 -1</clus>
<clus scale="   91.991">  1  7  2 -1</clus>
<clus scale="  102.962">  2  9  1 -1</clus>
<clus scale="  102.962">  2  5  1 -1</clus>
</clustering>
</event>
<event>
 9    2  0.3764910E-005  0.1452484E+03  0.7546771E-02  0.1224984E+00
         21   -1    0    0  501  502  0.00000000000E+00  0.00000000000E+00  0.55760072139E+03  0.55760072139E+03  0.00000000000E+00 0.  1.
          2   -1    0    0  502    0 -0.00000000000E+00 -0.00000000000E+00 -0.62384870300E+02  0.62384870300E+02  0.00000000000E+00 0. -1.
         23    2    1    2    0    0 -0.36140791383E+02 -0.26951738371E+00  0.18535701010E+03  0.20972402508E+03  0.91217959087E+02 0.  0.
         24    2    1    2    0    0  0.12118488285E+03 -0.66712555123E+02  0.19941173347E+03  0.25560821524E+03  0.80213336877E+02 0.  0.
        -13    1    4    4    0    0  0.33969894380E+02 -0.44646439151E+01  0.11262100432E+03  0.11771736229E+03  0.00000000000E+00 0.  1.
         14    1    4    4    0    0  0.87214988466E+02 -0.62247911208E+02  0.86790729147E+02  0.13789085296E+03  0.00000000000E+00 0. -1.
        -13    1    3    3    0    0  0.27121311411E+02 -0.15817457987E+02  0.43738598823E+02  0.53840714490E+02  0.00000000000E+00 0. -1.
         13    1    3    3    0    0 -0.63262102794E+02  0.15547940603E+02  0.14161841128E+03  0.15588331059E+03  0.00000000000E+00 0.  1.
          1    1    1    2  501    0 -0.85044091463E+02  0.66982072507E+02  0.11044710752E+03  0.15465335137E+03  0.00000000000E+00 0. -1.
<scales pt_clust_5="13000.00000" pt_clust_6="13000.00000" pt_clust_7="13000.00000" pt_clust_8="13000.00000" pt_clust_9="121.09058"></scales>
<clustering>
<clus scale="   80.213">  5  6 -1 -1</clus>
<clus scale="   91.218">  7  8 -1 -1</clus>
<clus scale="   98.117">  2  7  1 -1</clus>
<clus scale="  121.091">  1  9  2 -1</clus>
<clus scale="  121.091">  1  5  2 -1</clus>
</clustering>
</event>
<event>
 9    2  0.3764910E-005  0.9684840E+02  0.7546771E-02  0.1294670E+00
         21   -1    0    0  501  502  0.00000000000E+00  0.00000000000E+00  0.20081220087E+03  0.20081220087E+03  0.00000000000E+00 0. -1.
          4   -1    0    0  502    0 -0.00000000000E+00 -0.00000000000E+00 -0.32449817674E+03  0.32449817674E+03  0.00000000000E+00 0. -1.
         23    2    1    2    0    0 -0.43604803964E+02  0.18766150154E+02 -0.21969209196E+03  0.24214371517E+03  0.90085604881E+02 0.  0.
         24    2    1    2    0    0  0.18463097840E+02 -0.19426885394E+01 -0.75624253135E+02  0.10889068049E+03  0.76114995996E+02 0.  0.
        -11    1    4    4    0    0  0.10442400899E+02 -0.18024618924E+02  0.87717501789E+01  0.22602526963E+02  0.00000000000E+00 0.  1.
         12    1    4    4    0    0  0.80206969403E+01  0.16081930385E+02 -0.84396003314E+02  0.86288153530E+02  0.00000000000E+00 0. -1.
        -13    1    3    3    0    0 -0.22233699530E+02  0.27927198790E+02 -0.21559918484E+03  0.21853437792E+03  0.00000000000E+00 0. -1.
         13    1    3    3    0    0 -0.21371104434E+02 -0.91610486360E+01 -0.40929071159E+01  0.23609337253E+02  0.00000000000E+00 0.  1.
          3    1    1    2  501    0  0.25141706125E+02 -0.16823461614E+02  0.17163036921E+03  0.17427598195E+03  0.00000000000E+00 0. -1.
<scales pt_clust_5="13000.00000" pt_clust_6="13000.00000" pt_clust_7="13000.00000" pt_clust_8="13000.00000" pt_clust_9="30.25119"></scales>
<clustering>
<clus scale="   30.251">  1  9  2 -1</clus>
<clus scale="   76.115">  5  6 -1 -1</clus>
<clus scale="   84.010">  1  5  2 -1</clus>
<clus scale="   90.086">  7  8 -1 -1</clus>
<clus scale="   30.251">  1  5  2 -1</clus>
</clustering>
</event>
<event>
 9    2  0.3764910E-005  0.1274558E+03  0.7546771E-02  0.1234024E+00
          2   -1    0    0  502    0 -0.00000000000E+00  0.00000000000E+00  0.54307038017E+02  0.54307038017E+02  0.00000000000E+00 0. -1.
         21   -1    0    0  501  502  0.00000000000E+00 -0.00000000000E+00 -0.50111756730E+03  0.50111756730E+03  0.00000000000E+00 0. -1.
         23    2    1    2    0    0 -0.94681409622E+02 -0.36553442779E+02 -0.90915240867E+02  0.16371134242E+03  0.90747446847E+02 0.  0.
         24    2    1    2    0    0  0.47477928079E+02  0.58097825867E+02 -0.21507248479E+03  0.24163531271E+03  0.80634605510E+02 0.  0.
        -13    1    4    4    0    0 -0.84996798940E+01  0.34649816760E+02 -0.29192181803E+02  0.46098132697E+02  0.00000000000E+00 0.  1.
         14    1    4    4    0    0  0.55977607973E+02  0.23448009108E+02 -0.18588030299E+03  0.19553718001E+03  0.00000000000E+00 0. -1.
        -13    1    3    3    0    0 -0.25250369409E+02  0.43393986309E+01  0.15717282124E+02  0.30057353396E+02  0.00000000000E+00 0.  1.
         13    1    3    3    0    0 -0.69431040213E+02 -0.40892841410E+02 -0.10663252299E+03  0.13365398903E+03  0.00000000000E+00 0. -1.
          1    1    1    2  501    0  0.47203481543E+02 -0.21544383089E+02 -0.14082280363E+03  0.15007795019E+03  0.00000000000E+00 0. -1.
<scales pt_clust_5="13000.00000" pt_clust_6="13000.00000" pt_clust_7="13000.00000" pt_clust_8="13000.00000" pt_clust_9="51.88766"></scales>
<clustering>
<clus scale="   51.888">  2  9  1 -1</clus>
<clus scale="   80.635">  5  6 -1 -1</clus>
<clus scale="   90.747">  7  8 -1 -1</clus>
<clus scale="  120.465">  2  5  1 -1</clus>
<clus scale="   51.888">  2  5  1 -1</clus>
</clustering>
</event>
<event>
 9    2  0.3764910E-005  0.1086011E+03  0.7546771E-02  0.1267604E+00
          2   -1    0    0  502    0 -0.00000000000E+00  0.00000000000E+00  0.51030017913E+03  0.51030017913E+03  0.00000000000E+00 0. -1.
         21   -1    0    0  501  502  0.00000000000E+00 -0.00000000000E+00 -0.52080861409E+02  0.52080861409E+02  0.00000000000E+00 0. -1.
         24    2    1    2    0    0  0.57904088142E+02  0.42481151499E+01  0.35492005492E+03  0.36844432541E+03  0.80075249849E+02 0.  0.
         23    2    1    2    0    0 -0.64860872789E+02 -0.26890038071E+02  0.32729296785E+02  0.11949765529E+03  0.90986129628E+02 0.  0.
        -13    1    3    3    0    0 -0.32669279329E+01  0.31526532756E+02  0.12618839676E+03  0.13010805725E+03  0.00000000000E+00 0.  1.
         14    1    3    3    0    0  0.61171016075E+02 -0.27278417606E+02  0.22873165816E+03  0.23833626816E+03  0.00000000000E+00 0. -1.
        -13    1    4    4    0    0 -0.56007489691E+01 -0.48801221945E+02  0.27011067019E+02  0.56058232169E+02  0.00000000000E+00 0.  1.
         13    1    4    4    0    0 -0.59260123820E+02  0.21911183875E+02  0.57182297661E+01  0.63439423118E+02  0.00000000000E+00 0. -1.
          1    1    1    2  501    0  0.69567846468E+01  0.22641922921E+02  0.70569966015E+02  0.74439059838E+02  0.00000000000E+00 0. -1.
<scales pt_clust_5="13000.00000" pt_clust_6="13000.00000" pt_clust_7="13000.00000" pt_clust_8="13000.00000" pt_clust_9="23.68658"></scales>
<clustering>
<clus scale="   23.687">  2  9  1 -1</clus>
<clus scale="   80.075">  5  6 -1 -1</clus>
<clus scale="   90.986">  7  8 -1 -1</clus>
<clus scale="   99.638">  1  5  2 -1</clus>
<clus scale="   23.687">  2  5  1 -1</clus>
</clustering>
</event>
<event>
 9    2  0.3764910E-005  0.1401508E+03  0.7546771E-02  0.1216510E+00
         21   -1    0    0  501  502  0.00000000000E+00  0.00000000000E+00  0.13227931681E+03  0.13227931681E+03  0.00000000000E+00 0.  1.
          2   -1    0    0  502    0 -0.00000000000E+00 -0.00000000000E+00 -0.46048402904E+03  0.46048402904E+03  0.00000000000E+00 0. -1.
         24    2    1    2    0    0 -0.10681685200E+03  0.73514267109E+01 -0.33798233281E+03  0.36310450103E+03  0.78415164542E+02 0.  0.
         23    2    1    2    0    0  0.93330347063E+02 -0.22979318151E+02 -0.67111025396E+02  0.15004740917E+03  0.93657527858E+02 0.  0.
        -13    1    3    3    0    0 -0.65064915917E+02 -0.24372582570E+02 -0.11779469809E+03  0.13675912022E+03  0.00000000000E+00 0.  1.
         14    1    3    3    0    0 -0.41751936082E+02  0.31724009281E+02 -0.22018763472E+03  0.22634538081E+03  0.00000000000E+00 0. -1.
        -11    1    4    4    0    0  0.39662716032E+02  0.65159752638E+01  0.18937662927E+02  0.44432241152E+02  0.00000000000E+00 0. -1.
         11    1    4    4    0    0  0.53667631031E+02 -0.29495293415E+02 -0.86048688323E+02  0.10561516802E+03  0.00000000000E+00 0.  1.
          1    1    1    2  501    0  0.13486504936E+02  0.15627891441E+02  0.76888645976E+02  0.79611435650E+02  0.00000000000E+00 0. -1.
<scales pt_clust_5="13000.00000" pt_clust_6="13000.00000" pt_clust_7="13000.00000" pt_clust_8="13000.00000" pt_clust_9="20.64260"></scales>
<clustering>
<clus scale="   20.643">  1  9  2 -1</clus>
<clus scale="   78.415">  5  6 -1 -1</clus>
<clus scale="   93.658">  7  8 -1 -1</clus>
<clus scale="  130.459">  2  5  1 -1</clus>
<clus scale="   20.643">  1  5  2 -1</clus>
</clustering>
</event>
<event>
 9    2  0.3764910E-005  0.2530188E+03  0.7546771E-02  0.1111873E+00
          2   -1    0    0  502    0 -0.00000000000E+00  0.00000000000E+00  0.48284986906E+03  0.48284986906E+03  0.00000000000E+00 0. -1.
         21   -1    0    0  501  502  0.00000000000E+00 -0.00000000000E+00 -0.19426146881E+03  0.19426146881E+03  0.00000000000E+00 0.  1.
         24    2    1    2    0    0  0.22894015950E+03  0.17816773958E+02  0.26599643136E+03  0.36169478888E+03  0.85662037916E+02 0.  0.
         23    2    1    2    0    0 -0.24999129670E+03  0.23271264499E+02  0.24744593337E+02  0.26919954916E+03  0.93909010178E+02 0.  0.
        -13    1    3    3    0    0  0.16900050796E+02  0.26789954370E+02  0.23483206306E+02  0.39430627062E+02  0.00000000000E+00 0.  1.
         14    1    3    3    0    0  0.21204010870E+03 -0.89731804121E+01  0.24251322506E+03  0.32226416182E+03  0.00000000000E+00 0. -1.
        -13    1    4    4    0    0 -0.10392830086E+03 -0.21773261843E+02  0.44393135055E+02  0.11509090795E+03  0.00000000000E+00 0. -1.
         13    1    4    4    0    0 -0.14606299583E+03  0.45044526342E+02 -0.19648541718E+02  0.15410864121E+03  0.00000000000E+00 0.  1.
          1    1    1    2  501    0  0.21051137200E+02 -0.41088038457E+02 -0.21526244451E+01  0.46216999834E+02  0.00000000000E+00 0. -1.
<scales pt_clust_5="13000.00000" pt_clust_6="13000.00000" pt_clust_7="13000.00000" pt_clust_8="13000.00000" pt_clust_9="46.16684"></scales>
<clustering>
<clus scale="   46.167">  2  9  1 -1</clus>
<clus scale="   85.662">  5  6 -1 -1</clus>
<clus scale="   93.909">  7  8 -1 -1</clus>
<clus scale="  250.075">  1  5  2 -1</clus>
<clus scale="   46.167">  2  5  1 -1</clus>
</clustering>
</event>
<event>
 9    2  0.3764910E-005  0.1700378E+03  0.7546771E-02  0.1200414E+00
          2   -1    0    0  502    0 -0.00000000000E+00  0.00000000000E+00  0.13772141925E+04  0.13772141925E+04  0.00000000000E+00 0. -1.
         21   -1    0    0  501  502  0.00000000000E+00 -0.00000000000E+00 -0.45160735490E+02  0.45160735490E+02  0.00000000000E+00 0.  1.
         23    2    1    2    0    0 -0.35848215773E+02  0.28845108262E+02  0.88693160839E+02  0.13600417277E+03  0.92268756292E+02 0.  0.
         24    2    1    2    0    0 -0.44158556203E+02  0.11739890038E+03  0.78046255559E+03  0.79437206430E+03  0.78566506687E+02 0.  0.
        -13    1    4    4    0    0  0.80713892497E+01  0.52365053891E+02  0.16538905359E+03  0.17366860753E+03  0.00000000000E+00 0.  1.
         14    1    4    4    0    0 -0.52229945453E+02  0.65033846485E+02  0.61507350200E+03  0.62070345678E+03  0.00000000000E+00 0. -1.
        -11    1    3    3    0    0 -0.51527221313E+02 -0.12451212915E+02  0.25298025828E+02  0.58737359066E+02  0.00000000000E+00 0.  1.
         11    1    3    3    0    0  0.15679005540E+02  0.41296321177E+02  0.63395135012E+02  0.77266813708E+02  0.00000000000E+00 0. -1.
          1    1    1    2  501    0  0.80006771976E+02 -0.14624400864E+03  0.46289774058E+03  0.49199869091E+03  0.00000000000E+00 0. -1.
<scales pt_clust_5="13000.00000" pt_clust_6="13000.00000" pt_clust_7="13000.00000" pt_clust_8="13000.00000" pt_clust_9="150.79839"></scales>
<clustering>
<clus scale="   78.567">  5  6 -1 -1</clus>
<clus scale="   92.269">  7  8 -1 -1</clus>
<clus scale="  103.105">  1  7  2 -1</clus>
<clus scale="  150.798">  2  9  1 -1</clus>
<clus scale="  150.798">  2  5  1 -1</clus>
</clustering>
</event>
<event>
 9    2  0.3764910E-005  0.3126732E+03  0.7546771E-02  0.1112744E+00
         21   -1    0    0  501  502  0.00000000000E+00  0.00000000000E+00  0.21263503662E+03  0.21263503662E+03  0.00000000000E+00 0. -1.
          2   -1    0    0  502    0 -0.00000000000E+00 -0.00000000000E+00 -0.66992830588E+03  0.66992830588E+03  0.00000000000E+00 0. -1.
         23    2    1    2    0    0 -0.21749022450E+02  0.88076493526E+02 -0.56003567898E+02  0.14119768671E+03  0.92573745877E+02 0.  0.
         24    2    1    2    0    0  0.30659700859E+03 -0.11507818522E+03 -0.22193256232E+03  0.40367282217E+03  0.80330384978E+02 0.  0.
        -13    1    4    4    0    0  0.22078613533E+03 -0.48101061397E+02 -0.17163936360E+03  0.28376099239E+03  0.00000000000E+00 0.  1.
         14    1    4    4    0    0  0.85810873251E+02 -0.66977123819E+02 -0.50293198719E+02  0.11991182978E+03  0.00000000000E+00 0. -1.
        -13    1    3    3    0    0  0.22450632172E+02  0.49195411521E+02  0.75146090824E+01  0.54595684346E+02  0.00000000000E+00 0. -1.
         13    1    3    3    0    0 -0.44199654621E+02  0.38881082005E+02 -0.63518176981E+02  0.86602002364E+02  0.00000000000E+00 0.  1.
          1    1    1    2  501    0 -0.28484798614E+03  0.27001691690E+02 -0.17935713904E+03  0.33769283363E+03  0.00000000000E+00 0. -1.
<scales pt_clust_5="13000.00000" pt_clust_6="13000.00000" pt_clust_7="13000.00000" pt_clust_8="13000.00000" pt_clust_9="302.17807"></scales>
<clustering>
<clus scale="   80.330">  5  6 -1 -1</clus>
<clus scale="   92.574">  7  8 -1 -1</clus>
<clus scale="  129.616">  2  7  1 -1</clus>
<clus scale="  302.178">  1  9  2 -1</clus>
<clus scale="  302.178">  1  5  2 -1</clus>
</clustering>
</event>
<event>
 9    2  0.3764910E-005  0.9084848E+02  0.7546771E-02  0.1306276E+00
         21   -1    0    0  501  502  0.00000000000E+00  0.00000000000E+00  0.81051760429E+03  0.81051760429E+03  0.00000000000E+00 0. -1.
          2   -1    0    0  502    0 -0.00000000000E+00 -0.00000000000E+00 -0.23873146404E+02  0.23873146404E+02  0.00000000000E+00 0. -1.
         24    2    1    2    0    0 -0.32754456310E+01 -0.26037251722E+02  0.16332979014E+03  0.18404251608E+03  0.80662013083E+02 0.  0.
         23    2    1    2    0    0  0.33745511158E+02 -0.32158769592E+02  0.50539058811E+03  0.51536197477E+03  0.89472747277E+02 0.  0.
        -13    1    3    3    0    0 -0.46229001408E+01  0.23716499261E+02  0.17173866161E+02  0.29644311795E+02  0.00000000000E+00 0.  1.
         14    1    3    3    0    0  0.13474545098E+01 -0.49753750983E+02  0.14615592398E+03  0.15439820428E+03  0.00000000000E+00 0. -1.
        -11    1    4    4    0    0  0.59316070263E+02 -0.42811320461E+02  0.37255678528E+03  0.37967059883E+03  0.00000000000E+00 0. -1.
         11    1    4    4    0    0 -0.25570559106E+02  0.10652550869E+02  0.13283380283E+03  0.13569137595E+03  0.00000000000E+00 0.  1.
          1    1    1    2  501    0 -0.30470065527E+02  0.58196021314E+02  0.11792407964E+03  0.13498625985E+03  0.00000000000E+00 0. -1.
<scales pt_clust_5="13000.00000" pt_clust_6="13000.00000" pt_clust_7="13000.00000" pt_clust_8="13000.00000" pt_clust_9="65.69023"></scales>
<clustering>
<clus scale="   65.690">  1  9  2 -1</clus>
<clus scale="   80.662">  5  6 -1 -1</clus>
<clus scale="   82.185">  2  5  1 -1</clus>
<clus scale="   89.473">  7  8 -1 -1</clus>
<clus scale="   65.690">  1  5  2 -1</clus>
</clustering>
</event>
<event>
 9    2  0.3764910E-005  0.3586894E+03  0.7546771E-02  0.1059104E+00
         21   -1    0    0  501  502  0.00000000000E+00  0.00000000000E+00  0.12733798319E+03  0.12733798319E+03  0.00000000000E+00 0.  1.
         -1   -1    0    0    0  501 -0.00000000000E+00 -0.00000000000E+00 -0.87416582651E+03  0.87416582651E+03  0.00000000000E+00 0.  1.
         24    2    1    2    0    0 -0.66964084014E+02  0.87168371695E+02 -0.19783933274E+03  0.24277880347E+03  0.87855746910E+02 0.  0.
         23    2    1    2    0    0  0.30056617663E+02  0.18975920210E+03 -0.36351586942E+03  0.42338764950E+03  0.10100177912E+03 0.  0.
        -11    1    3    3    0    0 -0.41103774995E+02  0.37210052774E+02 -0.17229455739E+03  0.18099591944E+03  0.00000000000E+00 0.  1.
         12    1    3    3    0    0 -0.25860309019E+02  0.49958318921E+02 -0.25544775345E+02  0.61782884033E+02  0.00000000000E+00 0. -1.
        -11    1    4    4    0    0  0.26920391695E+02  0.52188022941E+02 -0.37904676933E+02  0.69893216845E+02  0.00000000000E+00 0.  1.
         11    1    4    4    0    0  0.31362259675E+01  0.13757117916E+03 -0.32561119249E+03  0.35349443266E+03  0.00000000000E+00 0. -1.
         -2    1    1    2    0  502  0.36907466352E+02 -0.27692757379E+03 -0.18547264116E+03  0.33533735673E+03  0.00000000000E+00 0.  1.
<scales pt_clust_5="13000.00000" pt_clust_6="13000.00000" pt_clust_7="13000.00000" pt_clust_8="13000.00000" pt_clust_9="279.37617"></scales>
<clustering>
<clus scale="   87.856">  5  6 -1 -1</clus>
<clus scale="  101.002">  7  8 -1 -1</clus>
<clus scale="  134.060">  5  7 -1 -1</clus>
<clus scale="  279.376">  1  9  2 -1</clus>
<clus scale="  279.376">  1  5  2 -1</clus>
</clustering>
</event>
<event>
 9    2  0.3764910E-005  0.8651596E+02  0.7546771E-02  0.1312524E+00
         21   -1    0    0  501  502  0.00000000000E+00  0.00000000000E+00  0.13426350741E+03  0.13426350741E+03  0.00000000000E+00 0.  1.
         -3   -1    0    0    0  501 -0.00000000000E+00 -0.00000000000E+00 -0.12258045424E+03  0.12258045424E+03  0.00000000000E+00 0.  1.
         24    2    1    2    0    0 -0.33828130267E+01 -0.27988150209E+02 -0.51583152671E+02  0.98854959975E+02  0.79477679232E+02 0.  0.
         23    2    1    2    0    0  0.48217283997E+02  0.23221500071E+02  0.56396144956E+02  0.11238145321E+03  0.81147528102E+02 0.  0.
        -13    1    3    3    0    0  0.30954627924E+02  0.66988233774E+01 -0.35246051118E+02  0.47385096222E+02  0.00000000000E+00 0.  1.
         14    1    3    3    0    0 -0.34337440950E+02 -0.34686973587E+02 -0.16337101553E+02  0.51469863753E+02  0.00000000000E+00 0. -1.
        -11    1    4    4    0    0  0.66343805789E+02  0.18485969024E+01  0.51329746268E+02  0.83902686066E+02  0.00000000000E+00 0.  1.
         11    1    4    4    0    0 -0.18126521792E+02  0.21372903169E+02  0.50663986874E+01  0.28478767139E+02  0.00000000000E+00 0. -1.
         -4    1    1    2    0  502 -0.44834470970E+02  0.47666501382E+01  0.68700608910E+01  0.45607548469E+02  0.00000000000E+00 0.  1.
<scales pt_clust_5="13000.00000" pt_clust_6="13000.00000" pt_clust_7="13000.00000" pt_clust_8="13000.00000" pt_clust_9="45.08715"></scales>
<clustering>
<clus scale="   45.087">  1  9  2 -1</clus>
<clus scale="   79.478">  5  6 -1 -1</clus>
<clus scale="   81.148">  7  8 -1 -1</clus>
<clus scale="   84.952">  2  5  1 -1</clus>
<clus scale="   45.087">  1  5  2 -1</clus>
</clustering>
</event>
<event>
 9    2  0.3764910E-005  0.1405937E+03  0.7546771E-02  0.1228702E+00
         21   -1    0    0  501  502  0.00000000000E+00  0.00000000000E+00  0.14253622614E+03  0.14253622614E+03  0.00000000000E+00 0. -1.
          2   -1    0    0  502    0 -0.00000000000E+00 -0.00000000000E+00 -0.30908464804E+03  0.30908464804E+03  0.00000000000E+00 0. -1.
         24    2    1    2    0    0 -0.99917856665E+01  0.58157702653E+02 -0.11282160570E+03  0.15086234325E+03  0.80923283049E+02 0.  0.
         23    2    1    2    0    0  0.37505107332E+02  0.56042137135E+02 -0.12069320060E+03  0.16554358014E+03  0.91052040306E+02 0.  0.
        -13    1    3    3    0    0  0.76235089949E+01  0.20140614751E+02 -0.10629823691E+03  0.10845772182E+03  0.00000000000E+00 0.  1.
         14    1    3    3    0    0 -0.17615294661E+02  0.38017087902E+02 -0.65233687928E+01  0.42404621434E+02  0.00000000000E+00 0. -1.
        -13    1    4    4    0    0  0.12120835657E+02  0.49159031748E+02 -0.12849457122E+03  0.13811002821E+03  0.00000000000E+00 0. -1.
         13    1    4    4    0    0  0.25384271675E+02  0.68831053874E+01  0.78013706147E+01  0.27433551934E+02  0.00000000000E+00 0.  1.
          1    1    1    2  501    0 -0.27513321665E+02 -0.11419983979E+03  0.66966384406E+02  0.13521495079E+03  0.00000000000E+00 0. -1.
<scales pt_clust_5="13000.00000" pt_clust_6="13000.00000" pt_clust_7="13000.00000" pt_clust_8="13000.00000" pt_clust_9="107.12665"></scales>
<clustering>
<clus scale="   80.923">  5  6 -1 -1</clus>
<clus scale="   91.052">  7  8 -1 -1</clus>
<clus scale="  100.154">  2  5  1 -1</clus>
<clus scale="  107.127">  1  9  2 -1</clus>
<clus scale="  107.127">  1  5  2 -1</clus>
</clustering>
</event>
<event>
 9    2  0.3764910E-005  0.2358096E+03  0.7546771E-02  0.1122616E+00
          2   -1    0    0  502    0 -0.00000000000E+00  0.00000000000E+00  0.86979643568E+03  0.86979643568E+03  0.00000000000E+00 0. -1.
         21   -1    0    0  501  502  0.00000000000E+00 -0.00000000000E+00 -0.64952546021E+02  0.64952546021E+02  0.00000000000E+00 0. -1.
         24    2    1    2    0    0 -0.71155832932E+02 -0.41260428220E+02  0.44824321162E+03  0.46298551760E+03  0.81658050702E+02 0.  0.
         23    2    1    2    0    0 -0.61805086180E+02 -0.31229269771E+02  0.27913703960E+03  0.30166355932E+03  0.91039992201E+02 0.  0.
        -13    1    3    3    0    0 -0.37005071467E+02 -0.15025382842E+02  0.58281643900E+02  0.70653290507E+02  0.00000000000E+00 0.  1.
         14    1    3    3    0    0 -0.34150761464E+02 -0.26235045378E+02  0.38996156772E+03  0.39233222709E+03  0.00000000000E+00 0. -1.
        -13    1    4    4    0    0  0.18985571118E+02  0.11578054722E+02  0.69070310576E+02  0.72561774130E+02  0.00000000000E+00 0.  1.
         13    1    4    4    0    0 -0.80790657298E+02 -0.42807324493E+02  0.21006672902E+03  0.22910178519E+03  0.00000000000E+00 0. -1.
          1    1    1    2  501    0  0.13296091911E+03  0.72489697991E+02  0.77463638442E+02  0.17009990478E+03  0.00000000000E+00 0. -1.
<scales pt_clust_5="13000.00000" pt_clust_6="13000.00000" pt_clust_7="13000.00000" pt_clust_8="13000.00000" pt_clust_9="151.43765"></scales>
<clustering>
<clus scale="   81.658">  5  6 -1 -1</clus>
<clus scale="   91.040">  7  8 -1 -1</clus>
<clus scale="   97.126">  5  7 -1 -1</clus>
<clus scale="  151.438">  2  9  1 -1</clus>
<clus scale="  151.438">  2  5  1 -1</clus>
</clustering>
</event>
<event>
 9    2  0.3764910E-005  0.1010335E+03  0.7546771E-02  0.1281971E+00
         21   -1    0    0  501  502  0.00000000000E+00  0.00000000000E+00  0.22470739726E+03  0.22470739726E+03  0.00000000000E+00 0. -1.
         -1   -1    0    0    0  501 -0.00000000000E+00 -0.00000000000E+00 -0.21443627450E+03  0.21443627450E+03  0.00000000000E+00 0.  1.
         23    2    1    2    0    0 -0.46836967025E+02 -0.75480766165E+01 -0.14976123604E+03  0.18034862477E+03  0.88580605637E+02 0.  0.
         24    2    1    2    0    0  0.44447638992E+02  0.78619334717E+02  0.13986811140E+03  0.18488003167E+03  0.80380004476E+02 0.  0.
        -13    1    4    4    0    0  0.17861838145E+02  0.13586762066E+02 -0.57780965388E+01  0.23173945822E+02  0.00000000000E+00 0.  1.
         14    1    4    4    0    0  0.26585800847E+02  0.65032572650E+02  0.14564620794E+03  0.16170608585E+03  0.00000000000E+00 0. -1.
        -11    1    3    3    0    0  0.25628658328E+02  0.14450665656E+01 -0.25262582794E+02  0.36015474931E+02  0.00000000000E+00 0. -1.
         11    1    3    3    0    0 -0.72465625353E+02 -0.89931431821E+01 -0.12449865325E+03  0.14433314984E+03  0.00000000000E+00 0.  1.
         -2    1    1    2    0  502  0.23893280330E+01 -0.71071258100E+02  0.20164247391E+02  0.73915015316E+02  0.00000000000E+00 0.  1.
<scales pt_clust_5="13000.00000" pt_clust_6="13000.00000" pt_clust_7="13000.00000" pt_clust_8="13000.00000" pt_clust_9="71.11141"></scales>
<clustering>
<clus scale="   71.111">  1  9  2 -1</clus>
<clus scale="   80.380">  5  6 -1 -1</clus>
<clus scale="   88.581">  7  8 -1 -1</clus>
<clus scale="   93.926">  1  5  2 -1</clus>
<clus scale="   71.111">  1  5  2 -1</clus>
</clustering>
</event>
<event>
 9    2  0.3764910E-005  0.1006150E+03  0.7546771E-02  0.1284312E+00
         21   -1    0    0  501  502  0.00000000000E+00  0.00000000000E+00  0.19479703906E+03  0.19479703906E+03  0.00000000000E+00 0. -1.
          2   -1    0    0  502    0 -0.00000000000E+00 -0.00000000000E+00 -0.19330727878E+03  0.19330727878E+03  0.00000000000E+00 0. -1.
         23    2    1    2    0    0  0.58848843543E+01  0.50877403988E+02 -0.14202873860E+03  0.17661040023E+03  0.91629300880E+02 0.  0.
         24    2    1    2    0    0 -0.14784849202E+02 -0.75440371663E+01  0.27089431198E+02  0.86943855967E+02  0.80931406419E+02 0.  0.
        -13    1    4    4    0    0  0.96987775409E+00 -0.30441536208E+02  0.44663611534E+02  0.54059837077E+02  0.00000000000E+00 0.  1.
         14    1    4    4    0    0 -0.15754726956E+02  0.22897499041E+02 -0.17574180336E+02  0.32884018889E+02  0.00000000000E+00 0. -1.
        -11    1    3    3    0    0 -0.42084425908E+02  0.20638427793E+02 -0.78732290784E+02  0.91628692110E+02  0.00000000000E+00 0.  1.
         11    1    3    3    0    0  0.47969310262E+02  0.30238976195E+02 -0.63296447817E+02  0.84981708118E+02  0.00000000000E+00 0. -1.
          1    1    1    2  501    0  0.88999648480E+01 -0.43333366821E+02  0.11642906768E+03  0.12455006165E+03  0.00000000000E+00 0. -1.
<scales pt_clust_5="13000.00000" pt_clust_6="13000.00000" pt_clust_7="13000.00000" pt_clust_8="13000.00000" pt_clust_9="44.23788"></scales>
<clustering>
<clus scale="   44.238">  1  9  2 -1</clus>
<clus scale="   80.931">  5  6 -1 -1</clus>
<clus scale="   90.980">  1  5  2 -1</clus>
<clus scale="   91.629">  7  8 -1 -1</clus>
<clus scale="   44.238">  1  5  2 -1</clus>
</clustering>
</event>
<event>
 9    2  0.3764910E-005  0.9847674E+02  0.7546771E-02  0.1285378E+00
         21   -1    0    0  501  502  0.00000000000E+00  0.00000000000E+00  0.36665516002E+02  0.36665516002E+02  0.00000000000E+00 0. -1.
          2   -1    0    0  502    0 -0.00000000000E+00 -0.00000000000E+00 -0.80333533584E+03  0.80333533584E+03  0.00000000000E+00 0. -1.
         24    2    1    2    0    0  0.25809403443E+01 -0.49189584203E+02 -0.43994124988E+03  0.45003438056E+03  0.80971377033E+02 0.  0.
         23    2    1    2    0    0  0.61327792906E+02  0.40404330926E+02 -0.29967591673E+03  0.32001396662E+03  0.84909808779E+02 0.  0.
        -13    1    3    3    0    0  0.21284601000E+02  0.15983933410E+02 -0.10722557392E+03  0.11048006187E+03  0.00000000000E+00 0.  1.
         14    1    3    3    0    0 -0.18703660655E+02 -0.65173517613E+02 -0.33271567596E+03  0.33955431870E+03  0.00000000000E+00 0. -1.
        -11    1    4    4    0    0  0.59788072521E+02 -0.39255969146E+01 -0.11041266235E+03  0.12562237036E+03  0.00000000000E+00 0. -1.
         11    1    4    4    0    0  0.15397203848E+01  0.44329927841E+02 -0.18926325438E+03  0.19439159626E+03  0.00000000000E+00 0.  1.
          1    1    1    2  501    0 -0.63908733250E+02  0.87852532772E+01 -0.27052653234E+02  0.69952504657E+02  0.00000000000E+00 0. -1.
<scales pt_clust_5="13000.00000" pt_clust_6="13000.00000" pt_clust_7="13000.00000" pt_clust_8="13000.00000" pt_clust_9="64.50974"></scales>
<clustering>
<clus scale="   64.510">  1  9  2 -1</clus>
<clus scale="   80.971">  5  6 -1 -1</clus>
<clus scale="   84.910">  7  8 -1 -1</clus>
<clus scale="   95.102">  2  5  1 -1</clus>
<clus scale="   64.510">  1  5  2 -1</clus>
</clustering>
</event>
<event>
 9    2  0.3764910E-005  0.1427986E+03  0.7546771E-02  0.1211112E+00
         -1   -1    0    0    0  501 -0.00000000000E+00  0.00000000000E+00  0.26461149019E+03  0.26461149019E+03  0.00000000000E+00 0.  1.
         21   -1    0    0  501  502  0.00000000000E+00 -0.00000000000E+00 -0.10672672178E+03  0.10672672178E+03  0.00000000000E+00 0. -1.
         24    2    1    2    0    0  0.88797611502E+02  0.76513364167E+02  0.12982802260E+03  0.19501423871E+03  0.86231822109E+02 0.  0.
         23    2    1    2    0    0 -0.81732299372E+02 -0.50042044620E+02  0.48373353388E+02  0.14221511902E+03  0.93277991880E+02 0.  0.
        -11    1    3    3    0    0  0.90822803910E+02  0.25348244298E+02  0.85605401638E+02  0.12735619337E+03  0.00000000000E+00 0.  1.
         12    1    3    3    0    0 -0.20251924079E+01  0.51165119870E+02  0.44222620964E+02  0.67658045349E+02  0.00000000000E+00 0. -1.
        -11    1    4    4    0    0 -0.43311975778E+02 -0.12510717779E+02  0.70862116469E+02  0.83987408911E+02  0.00000000000E+00 0.  1.
         11    1    4    4    0    0 -0.38420323594E+02 -0.37531326840E+02 -0.22488763081E+02  0.58227710108E+02  0.00000000000E+00 0. -1.
         -2    1    1    2    0  502 -0.70653121298E+01 -0.26471319548E+02 -0.20316607580E+02  0.34108854241E+02  0.00000000000E+00 0.  1.
<scales pt_clust_5="13000.00000" pt_clust_6="13000.00000" pt_clust_7="13000.00000" pt_clust_8="13000.00000" pt_clust_9="27.39798"></scales>
<clustering>
<clus scale="   27.398">  2  9  1 -1</clus>
<clus scale="   86.232">  5  6 -1 -1</clus>
<clus scale="   93.278">  7  8 -1 -1</clus>
<clus scale="  138.299">  1  5  2 -1</clus>
<clus scale="   27.398">  2  5  1 -1</clus>
</clustering>
</event>
<event>
 9    2  0.3764910E-005  0.1103132E+03  0.7546771E-02  0.1264886E+00
          2   -1    0    0  502    0 -0.00000000000E+00  0.00000000000E+00  0.44723303374E+03  0.44723303374E+03  0.00000000000E+00 0. -1.
         21   -1    0    0  501  502  0.00000000000E+00 -0.00000000000E+00 -0.41755827264E+02  0.41755827264E+02  0.00000000000E+00 0.  1.
         23    2    1    2    0    0  0.24018918829E+02  0.42703419074E+02  0.23615754734E+03  0.25846685643E+03  0.92920601841E+02 0.  0.
         24    2    1    2    0    0 -0.63105030535E+02 -0.52338999101E+02  0.13703716904E+03  0.17892037962E+03  0.80695110386E+02 0.  0.
        -13    1    4    4    0    0 -0.75041334939E+02 -0.32387204308E+02  0.68810578322E+02  0.10684113740E+03  0.00000000000E+00 0.  1.
         14    1    4    4    0    0  0.11936304404E+02 -0.19951794793E+02  0.68226590714E+02  0.72079242218E+02  0.00000000000E+00 0. -1.
        -13    1    3    3    0    0  0.24531600331E+02 -0.80623378941E+01  0.11717732256E+02  0.28356762092E+02  0.00000000000E+00 0.  1.
         13    1    3    3    0    0 -0.51268150184E+00  0.50765756969E+02  0.22443981508E+03  0.23011009434E+03  0.00000000000E+00 0. -1.
          1    1    1    2  501    0  0.39086111706E+02  0.96355800268E+01  0.32282490104E+02  0.51601624955E+02  0.00000000000E+00 0. -1.
<scales pt_clust_5="13000.00000" pt_clust_6="13000.00000" pt_clust_7="13000.00000" pt_clust_8="13000.00000" pt_clust_9="40.25629"></scales>
<clustering>
<clus scale="   40.256">  2  9  1 -1</clus>
<clus scale="   80.695">  5  6 -1 -1</clus>
<clus scale="   92.921">  7  8 -1 -1</clus>
<clus scale="  100.232">  2  5  1 -1</clus>
<clus scale="   40.256">  2  5  1 -1</clus>
</clustering>
</event>
<event>
 9    2  0.3764910E-005  0.9510681E+02  0.7546771E-02  0.1296652E+00
         -1   -1    0    0    0  501 -0.00000000000E+00  0.00000000000E+00  0.26738951675E+03  0.26738951675E+03  0.00000000000E+00 0.  1.
         21   -1    0    0  501  502  0.00000000000E+00 -0.00000000000E+00 -0.48846782779E+02  0.48846782779E+02  0.00000000000E+00 0. -1.
         23    2    1    2    0    0 -0.97031072061E+01  0.12533331069E+02  0.17189153351E+03  0.19594894395E+03  0.92725695830E+02 0.  0.
         24    2    1    2    0    0  0.12051069705E+02 -0.33197314329E+02  0.37182215981E+02  0.97436211201E+02  0.82849309643E+02 0.  0.
        -13    1    4    4    0    0 -0.18879450987E+02  0.11334305837E+02  0.37185716116E+02  0.43216636165E+02  0.00000000000E+00 0.  1.
         14    1    4    4    0    0  0.30930520692E+02 -0.44531620166E+02 -0.35001351048E-02  0.54219575036E+02  0.00000000000E+00 0. -1.
        -11    1    3    3    0    0 -0.51119676280E+02  0.24191258210E+01  0.86478775327E+02  0.10048707407E+03  0.00000000000E+00 0. -1.
         11    1    3    3    0    0  0.41416569074E+02  0.10114205248E+02  0.85412758184E+02  0.95461869886E+02  0.00000000000E+00 0.  1.
         -2    1    1    2    0  502 -0.23479624991E+01  0.20663983260E+02  0.94689844782E+01  0.22851144372E+02  0.00000000000E+00 0.  1.
<scales pt_clust_5="13000.00000" pt_clust_6="13000.00000" pt_clust_7="13000.00000" pt_clust_8="13000.00000" pt_clust_9="20.79695"></scales>
<clustering>
<clus scale="   20.797">  2  9  1 -1</clus>
<clus scale="   82.849">  5  6 -1 -1</clus>
<clus scale="   85.506">  2  5  1 -1</clus>
<clus scale="   92.726">  7  8 -1 -1</clus>
<clus scale="   20.797">  2  5  1 -1</clus>
</clustering>
</event>
<event>
 9    2  0.3764910E-005  0.1286655E+03  0.7546771E-02  0.1246845E+00
         21   -1    0    0  501  502  0.00000000000E+00  0.00000000000E+00  0.84129561195E+02  0.84129561195E+02  0.00000000000E+00 0. -1.
          2   -1    0    0  502    0 -0.00000000000E+00 -0.00000000000E+00 -0.34581359116E+03  0.34581359116E+03  0.00000000000E+00 0. -1.
         24    2    1    2    0    0 -0.11187890043E+02 -0.40582633204E+02 -0.17846506117E+02  0.92018446815E+02  0.79854729180E+02 0.  0.
         23    2    1    2    0    0  0.77558742092E+02 -0.35297201831E+02 -0.18352886432E+03  0.22045141589E+03  0.87491324126E+02 0.  0.
        -13    1    3    3    0    0 -0.40565313790E+02 -0.17488275684E+01 -0.14846573386E+02  0.43232208156E+02  0.00000000000E+00 0.  1.
         14    1    3    3    0    0  0.29377423747E+02 -0.38833805636E+02 -0.29999327305E+01  0.48786238660E+02  0.00000000000E+00 0. -1.
        -11    1    4    4    0    0  0.49786729936E+02  0.35110117612E+01 -0.26866831852E+02  0.56682204748E+02  0.00000000000E+00 0. -1.
         11    1    4    4    0    0  0.27772012156E+02 -0.38808213593E+02 -0.15666203246E+03  0.16376921114E+03  0.00000000000E+00 0.  1.
          1    1    1    2  501    0 -0.66370852049E+02  0.75879835036E+02 -0.60308659528E+02  0.11747328965E+03  0.00000000000E+00 0. -1.
<scales pt_clust_5="13000.00000" pt_clust_6="13000.00000" pt_clust_7="13000.00000" pt_clust_8="13000.00000" pt_clust_9="94.34025"></scales>
<clustering>
<clus scale="   79.855">  5  6 -1 -1</clus>
<clus scale="   87.491">  7  8 -1 -1</clus>
<clus scale="   90.271">  2  5  1 -1</clus>
<clus scale="   94.340">  1  9  2 -1</clus>
<clus scale="   94.340">  1  5  2 -1</clus>
</clustering>
</event>
<event>
 9    2  0.3764910E-005  0.9832728E+02  0.7546771E-02  0.1290780E+00
         21   -1    0    0  501  502  0.00000000000E+00  0.00000000000E+00  0.39725774187E+03  0.39725774187E+03  0.00000000000E+00 0.  1.
          2   -1    0    0  502    0 -0.00000000000E+00 -0.00000000000E+00 -0.76159352291E+02  0.76159352291E+02  0.00000000000E+00 0. -1.
         24    2    1    2    0    0 -0.21856903579E+02 -0.19810648010E+02 -0.36210592190E+02  0.93073235774E+02  0.80506112949E+02 0.  0.
         23    2    1    2    0    0  0.45428412407E+02  0.22576205382E+02  0.30344469775E+03  0.32148278951E+03  0.93268824683E+02 0.  0.
        -13    1    3    3    0    0 -0.49536962082E+02 -0.26681737424E+02 -0.17346499969E+02  0.58878916307E+02  0.00000000000E+00 0.  1.
         14    1    3    3    0    0  0.27680058503E+02  0.68710894147E+01 -0.18864092221E+02  0.34194319467E+02  0.00000000000E+00 0. -1.
        -11    1    4    4    0    0 -0.21258822235E+02 -0.17722549851E+02  0.65573373900E+02  0.71175091575E+02  0.00000000000E+00 0.  1.
         11    1    4    4    0    0  0.66687234642E+02  0.40298755233E+02  0.23787132385E+03  0.25030769794E+03  0.00000000000E+00 0. -1.
          1    1    1    2  501    0 -0.23571508828E+02 -0.27655573722E+01  0.53864284017E+02  0.58861068872E+02  0.00000000000E+00 0. -1.
<scales pt_clust_5="13000.00000" pt_clust_6="13000.00000" pt_clust_7="13000.00000" pt_clust_8="13000.00000" pt_clust_9="23.73319"></scales>
<clustering>
<clus scale="   23.733">  1  9  2 -1</clus>
<clus scale="   80.506">  5  6 -1 -1</clus>
<clus scale="   86.316">  2  5  1 -1</clus>
<clus scale="   93.269">  7  8 -1 -1</clus>
<clus scale="   23.733">  1  5  2 -1</clus>
</clustering>
</event>
<event>
 9    2  0.3764910E-005  0.3268279E+03  0.7546771E-02  0.1072549E+00
         21   -1    0    0  501  502  0.00000000000E+00  0.00000000000E+00  0.13729594029E+03  0.13729594029E+03  0.00000000000E+00 0.  1.
         -1   -1    0    0    0  501 -0.00000000000E+00 -0.00000000000E+00 -0.60034746581E+03  0.60034746581E+03  0.00000000000E+00 0.  1.
         24    2    1    2    0    0 -0.11484244367E+03 -0.11515010340E+03 -0.15921665805E+03  0.24067577304E+03  0.78272283389E+02 0.  0.
         23    2    1    2    0    0 -0.11305521200E+03  0.20639008875E+02 -0.12195082389E+03  0.19045255389E+03  0.90513657474E+02 0.  0.
        -13    1    3    3    0    0 -0.30414012649E+02 -0.75570603981E+02 -0.10471918536E+03  0.13267266536E+03  0.00000000000E+00 0.  1.
         14    1    3    3    0    0 -0.84428431022E+02 -0.39579499415E+02 -0.54497472694E+02  0.10800310768E+03  0.00000000000E+00 0. -1.
        -13    1    4    4    0    0 -0.87287118954E+02 -0.63535751743E+01 -0.12546120262E+03  0.15297033182E+03  0.00000000000E+00 0. -1.
         13    1    4    4    0    0 -0.25768093043E+02  0.26992584050E+02  0.35103787333E+01  0.37482222074E+02  0.00000000000E+00 0.  1.
         -2    1    1    2    0  502  0.22789765567E+03  0.94511094520E+02 -0.18188404359E+03  0.30651507917E+03  0.00000000000E+00 0.  1.
<scales pt_clust_5="13000.00000" pt_clust_6="13000.00000" pt_clust_7="13000.00000" pt_clust_8="13000.00000" pt_clust_9="246.71783"></scales>
<clustering>
<clus scale="   78.272">  5  6 -1 -1</clus>
<clus scale="   90.514">  7  8 -1 -1</clus>
<clus scale="  140.125">  5  7 -1 -1</clus>
<clus scale="  246.718">  1  9  2 -1</clus>
<clus scale="  246.718">  1  5  2 -1</clus>
</clustering>
</event>
<event>
 9    2  0.3764910E-005  0.1113955E+03  0.7546771E-02  0.1260803E+00
          4   -1    0    0  502    0 -0.00000000000E+00  0.00000000000E+00  0.12384179987E+03  0.12384179987E+03  0.00000000000E+00 0. -1.
         21   -1    0    0  501  502  0.00000000000E+00 -0.00000000000E+00 -0.12466402116E+03  0.12466402116E+03  0.00000000000E+00 0. -1.
         24    2    1    2    0    0  0.26706140517E+02  0.69476738561E+02  0.24838052838E+02  0.11444128237E+03  0.83304520287E+02 0.  0.
         23    2    1    2    0    0 -0.98183315909E+01 -0.49263452285E+02 -0.28547698584E+02  0.10756713779E+03  0.90732743111E+02 0.  0.
        -13    1    3    3    0    0 -0.22481603718E+02  0.17694196617E+02  0.31689016545E+02  0.42693100956E+02  0.00000000000E+00 0.  1.
         14    1    3    3    0    0  0.49187744235E+02  0.51782541944E+02 -0.68509637069E+01  0.71748181418E+02  0.00000000000E+00 0. -1.
        -13    1    4    4    0    0 -0.33327643831E+02 -0.38408501452E+02  0.18295548401E+02  0.54043241191E+02  0.00000000000E+00 0.  1.
         13    1    4    4    0    0  0.23509312240E+02 -0.10854950833E+02 -0.46843246984E+02  0.53523896603E+02  0.00000000000E+00 0. -1.
          3    1    1    2  501    0 -0.16887808926E+02 -0.20213286276E+02  0.28874244559E+01  0.26497400861E+02  0.00000000000E+00 0. -1.
<scales pt_clust_5="13000.00000" pt_clust_6="13000.00000" pt_clust_7="13000.00000" pt_clust_8="13000.00000" pt_clust_9="26.33962"></scales>
<clustering>
<clus scale="   26.340">  2  9  1 -1</clus>
<clus scale="   83.305">  5  6 -1 -1</clus>
<clus scale="   90.733">  7  8 -1 -1</clus>
<clus scale="  105.433">  1  5  2 -1</clus>
<clus scale="   26.340">  2  5  1 -1</clus>
</clustering>
</event>
<event>
 9    2  0.3764910E-005  0.1021017E+03  0.7546771E-02  0.1281586E+00
         -1   -1    0    0    0  501 -0.00000000000E+00  0.00000000000E+00  0.24190652605E+03  0.24190652605E+03  0.00000000000E+00 0.  1.
         21   -1    0    0  501  502  0.00000000000E+00 -0.00000000000E+00 -0.18489660922E+03  0.18489660922E+03  0.00000000000E+00 0. -1.
         23    2    1    2    0    0  0.36662113379E+02  0.11293089467E+02  0.10497595011E+03  0.14506750388E+03  0.92482355903E+02 0.  0.
         24    2    1    2    0    0 -0.89914313665E+02  0.49532557781E+02 -0.11703308347E+03  0.17540683180E+03  0.80825465868E+02 0.  0.
        -13    1    4    4    0    0 -0.34470610113E+02  0.64576483792E+02 -0.66416615572E+02  0.98840841987E+02  0.00000000000E+00 0.  1.
         14    1    4    4    0    0 -0.55443703552E+02 -0.15043926011E+02 -0.50616467902E+02  0.76565989814E+02  0.00000000000E+00 0. -1.
        -11    1    3    3    0    0  0.52172535063E+02  0.33879768488E+02  0.99159708932E+02  0.11705750725E+03  0.00000000000E+00 0.  1.
         11    1    3    3    0    0 -0.15510421684E+02 -0.22586679020E+02  0.58162411804E+01  0.28009996634E+02  0.00000000000E+00 0. -1.
         -2    1    1    2    0  502  0.53252200286E+02 -0.60825647248E+02  0.69067050193E+02  0.10632879958E+03  0.00000000000E+00 0.  1.
<scales pt_clust_5="13000.00000" pt_clust_6="13000.00000" pt_clust_7="13000.00000" pt_clust_8="13000.00000" pt_clust_9="80.84283"></scales>
<clustering>
<clus scale="   80.825">  5  6 -1 -1</clus>
<clus scale="   80.843">  2  9  1 -1</clus>
<clus scale="   91.676">  2  5  1 -1</clus>
<clus scale="   92.482">  7  8 -1 -1</clus>
<clus scale="   80.843">  2  5  1 -1</clus>
</clustering>
</event>
<event>
 9    2  0.3764910E-005  0.9013348E+02  0.7546771E-02  0.1308254E+00
         21   -1    0    0  501  502  0.00000000000E+00  0.00000000000E+00  0.23715426995E+02  0.23715426995E+02  0.00000000000E+00 0. -1.
          2   -1    0    0  502    0 -0.00000000000E+00 -0.00000000000E+00 -0.82393501671E+03  0.82393501671E+03  0.00000000000E+00 0. -1.
         24    2    1    2    0    0 -0.52030275764E+01  0.95259956564E-01 -0.51956034616E+03  0.52572520935E+03  0.80105941578E+02 0.  0.
         23    2    1    2    0    0  0.24997860505E+02  0.48040686676E+02 -0.20604671100E+03  0.23095306947E+03  0.89169908483E+02 0.  0.
        -13    1    3    3    0    0 -0.35503120139E+02 -0.12038771609E+02 -0.14580285862E+03  0.15054526609E+03  0.00000000000E+00 0.  1.
         14    1    3    3    0    0  0.30300092562E+02  0.12134031565E+02 -0.37375748754E+03  0.37517994326E+03  0.00000000000E+00 0. -1.
        -11    1    4    4    0    0 -0.24159391522E+02  0.40804458222E+02 -0.58739506885E+02  0.75491785504E+02  0.00000000000E+00 0. -1.
         11    1    4    4    0    0  0.49157252027E+02  0.72362284536E+01 -0.14730720411E+03  0.15546128397E+03  0.00000000000E+00 0.  1.
          1    1    1    2  501    0 -0.19794832929E+02 -0.48135946632E+02 -0.74612532562E+02  0.90972164887E+02  0.00000000000E+00 0. -1.
<scales pt_clust_5="13000.00000" pt_clust_6="13000.00000" pt_clust_7="13000.00000" pt_clust_8="13000.00000" pt_clust_9="52.04714"></scales>
<clustering>
<clus scale="   52.047">  1  9  2 -1</clus>
<clus scale="   80.106">  5  6 -1 -1</clus>
<clus scale="   81.177">  2  5  1 -1</clus>
<clus scale="   89.170">  7  8 -1 -1</clus>
<clus scale="   52.047">  1  5  2 -1</clus>
</clustering>
</event>
<event>
 9    2  0.3764910E-005  0.1023521E+03  0.7546771E-02  0.1280186E+00
         21   -1    0    0  501  502  0.00000000000E+00  0.00000000000E+00  0.29209404158E+03  0.29209404158E+03  0.00000000000E+00 0.  1.
         -3   -1    0    0    0  501 -0.00000000000E+00 -0.00000000000E+00 -0.56284389135E+02  0.56284389135E+02  0.00000000000E+00 0.  1.
         23    2    1    2    0    0  0.75010593044E+01 -0.47389494019E+02  0.26180582522E+02  0.10429963968E+03  0.88831086350E+02 0.  0.
         24    2    1    2    0    0  0.10790736513E+02  0.58981944821E+02  0.14105295012E+03  0.17216454407E+03  0.78418018893E+02 0.  0.
        -13    1    4    4    0    0  0.29491001630E+02  0.56303737836E+02  0.13939383269E+03  0.15320075282E+03  0.00000000000E+00 0.  1.
         14    1    4    4    0    0 -0.18700265118E+02  0.26782069851E+01  0.16591174354E+01  0.18963791256E+02  0.00000000000E+00 0. -1.
        -13    1    3    3    0    0  0.64627950266E-02 -0.72767255264E+02  0.27537663272E+02  0.77803575618E+02  0.00000000000E+00 0.  1.
         13    1    3    3    0    0  0.74945965094E+01  0.25377761245E+02 -0.13570807496E+01  0.26496064063E+02  0.00000000000E+00 0. -1.
         -4    1    1    2    0  502 -0.18291795817E+02 -0.11592450803E+02  0.68576119800E+02  0.71914246966E+02  0.00000000000E+00 0.  1.
<scales pt_clust_5="13000.00000" pt_clust_6="13000.00000" pt_clust_7="13000.00000" pt_clust_8="13000.00000" pt_clust_9="21.65582"></scales>
<clustering>
<clus scale="   21.656">  1  9  2 -1</clus>
<clus scale="   78.418">  5  6 -1 -1</clus>
<clus scale="   88.831">  7  8 -1 -1</clus>
<clus scale="   93.458">  1  5  2 -1</clus>
<clus scale="   21.656">  1  5  2 -1</clus>
</clustering>
</event>
<event>
 9    2  0.3764910E-005  0.1286651E+03  0.7546771E-02  0.1232347E+00
         21   -1    0    0  501  502  0.00000000000E+00  0.00000000000E+00  0.11956440553E+03  0.11956440553E+03  0.00000000000E+00 0. -1.
         -3   -1    0    0    0  501 -0.00000000000E+00 -0.00000000000E+00 -0.27313316715E+03  0.27313316715E+03  0.00000000000E+00 0.  1.
         23    2    1    2    0    0 -0.95469208939E+02  0.65533799319E+02 -0.14187033765E+03  0.20493390837E+03  0.91987311013E+02 0.  0.
         24    2    1    2    0    0  0.64501846238E+02  0.11297385683E+02 -0.11105316291E+02  0.10492429977E+03  0.81225990545E+02 0.  0.
        -13    1    4    4    0    0  0.35580500700E+02  0.79744742777E+01 -0.46502582004E+02  0.59093607125E+02  0.00000000000E+00 0.  1.
         14    1    4    4    0    0  0.28921345538E+02  0.33229114057E+01  0.35397265713E+02  0.45830692641E+02  0.00000000000E+00 0. -1.
        -13    1    3    3    0    0 -0.55243168949E+02 -0.36785475177E+01 -0.19489000338E+02  0.58695490129E+02  0.00000000000E+00 0. -1.
         13    1    3    3    0    0 -0.40226039990E+02  0.69212346837E+02 -0.12238133731E+03  0.14623841824E+03  0.00000000000E+00 0.  1.
         -4    1    1    2    0  502  0.30967362701E+02 -0.76831185002E+02 -0.59310767945E+00  0.82839364545E+02  0.00000000000E+00 0.  1.
<scales pt_clust_5="13000.00000" pt_clust_6="13000.00000" pt_clust_7="13000.00000" pt_clust_8="13000.00000" pt_clust_9="82.83724"></scales>
<clustering>
<clus scale="   81.226">  5  6 -1 -1</clus>
<clus scale="   82.837">  1  9  2 -1</clus>
<clus scale="   91.987">  7  8 -1 -1</clus>
<clus scale="  121.205">  1  5  2 -1</clus>
<clus scale="   82.837">  1  5  2 -1</clus>
</clustering>
</event>
<event>
 9    2  0.3764910E-005  0.2612308E+03  0.7546771E-02  0.1131504E+00
          4   -1    0    0  502    0 -0.00000000000E+00  0.00000000000E+00  0.13227372338E+04  0.13227372338E+04  0.00000000000E+00 0. -1.
         21   -1    0    0  501  502  0.00000000000E+00 -0.00000000000E+00 -0.15412827714E+03  0.15412827714E+03  0.00000000000E+00 0. -1.
         23    2    1    2    0    0 -0.86966614284E+02 -0.56855405180E+02  0.29570984065E+03  0.32686627103E+03  0.92744380878E+02 0.  0.
         24    2    1    2    0    0  0.31625143242E+03 -0.14616573739E+02  0.84795369311E+03  0.90854107434E+03  0.78694379423E+02 0.  0.
        -13    1    4    4    0    0  0.45057851225E+02  0.25974404197E+02  0.13527371761E+03  0.14492707927E+03  0.00000000000E+00 0.  1.
         14    1    4    4    0    0  0.27119358120E+03 -0.40590977936E+02  0.71267997551E+03  0.76361399507E+03  0.00000000000E+00 0. -1.
        -13    1    3    3    0    0 -0.66704289741E+02 -0.17183058871E+02  0.75520126622E+02  0.10221550424E+03  0.00000000000E+00 0. -1.
         13    1    3    3    0    0 -0.20262324542E+02 -0.39672346308E+02  0.22018971403E+03  0.22465076679E+03  0.00000000000E+00 0.  1.
          3    1    1    2  501    0 -0.22928481814E+03  0.71471978919E+02  0.24945422909E+02  0.24145816558E+03  0.00000000000E+00 0. -1.
<scales pt_clust_5="13000.00000" pt_clust_6="13000.00000" pt_clust_7="13000.00000" pt_clust_8="13000.00000" pt_clust_9="249.09576"></scales>
<clustering>
<clus scale="   78.694">  5  6 -1 -1</clus>
<clus scale="   92.744">  7  8 -1 -1</clus>
<clus scale="  139.274">  1  7  2 -1</clus>
<clus scale="  249.096">  2  9  1 -1</clus>
<clus scale="  249.096">  2  5  1 -1</clus>
</clustering>
</event>
<event>
 9    2  0.3764910E-005  0.9552685E+02  0.7546771E-02  0.1298604E+00
         21   -1    0    0  501  502  0.00000000000E+00  0.00000000000E+00  0.62177375096E+02  0.62177375096E+02  0.00000000000E+00 0.  1.
          2   -1    0    0  502    0 -0.00000000000E+00 -0.00000000000E+00 -0.22252383093E+03  0.22252383093E+03  0.00000000000E+00 0. -1.
         24    2    1    2    0    0  0.30209444483E+02 -0.72782476504E+01 -0.37698125149E+02  0.93003957077E+02  0.79139143080E+02 0.  0.
         23    2    1    2    0    0 -0.37723169272E+01  0.42476534709E+01 -0.35015823326E+02  0.10011361198E+03  0.93618131179E+02 0.  0.
        -13    1    3    3    0    0  0.30981019673E+02 -0.17190884803E+02  0.15652791990E+02  0.38734480729E+02  0.00000000000E+00 0.  1.
         14    1    3    3    0    0 -0.77157518973E+00  0.99126371526E+01 -0.53350917139E+02  0.54269476348E+02  0.00000000000E+00 0. -1.
        -13    1    4    4    0    0 -0.45758652864E+02  0.17285602974E+02 -0.11470729594E+02  0.50241656218E+02  0.00000000000E+00 0. -1.
         13    1    4    4    0    0  0.41986335937E+02 -0.13037949503E+02 -0.23545093731E+02  0.49871955761E+02  0.00000000000E+00 0.  1.
          1    1    1    2  501    0 -0.26437127556E+02  0.30305941795E+01 -0.87632507363E+02  0.91583636973E+02  0.00000000000E+00 0. -1.
<scales pt_clust_5="13000.00000" pt_clust_6="13000.00000" pt_clust_7="13000.00000" pt_clust_8="13000.00000" pt_clust_9="26.61028"></scales>
<clustering>
<clus scale="   26.610">  1  9  2 -1</clus>
<clus scale="   79.139">  5  6 -1 -1</clus>
<clus scale="   81.388">  2  5  1 -1</clus>
<clus scale="   93.618">  7  8 -1 -1</clus>
<clus scale="   26.610">  1  5  2 -1</clus>
</clustering>
</event>
<event>
 9    2  0.3764910E-005  0.1034870E+03  0.7546771E-02  0.1276538E+00
         -1   -1    0    0    0  501 -0.00000000000E+00  0.00000000000E+00  0.20346022056E+03  0.20346022056E+03  0.00000000000E+00 0.  1.
         21   -1    0    0  501  502  0.00000000000E+00 -0.00000000000E+00 -0.75322102275E+02  0.75322102275E+02  0.00000000000E+00 0.  1.
         24    2    1    2    0    0 -0.13670933302E+02  0.40750357049E+02  0.96721626398E+02  0.13424203129E+03  0.82573385141E+02 0.  0.
         23    2    1    2    0    0  0.25672292917E+02 -0.64960395782E+02  0.25273942190E+02  0.11682947191E+03  0.90174462623E+02 0.  0.
        -11    1    3    3    0    0 -0.39288666347E+02  0.16924298755E+02  0.14975734984E+02  0.45324428623E+02  0.00000000000E+00 0.  1.
         12    1    3    3    0    0  0.25617733045E+02  0.23826058294E+02  0.81745891414E+02  0.88917602663E+02  0.00000000000E+00 0. -1.
        -13    1    4    4    0    0 -0.35212939580E+01 -0.40222458808E+02 -0.29505838782E+02  0.50008401554E+02  0.00000000000E+00 0. -1.
         13    1    4    4    0    0  0.29193586875E+02 -0.24737936974E+02  0.54779780972E+02  0.66821070357E+02  0.00000000000E+00 0.  1.
         -2    1    1    2    0  502 -0.12001359615E+02  0.24210038733E+02  0.61425496925E+01  0.27710819634E+02  0.00000000000E+00 0.  1.
<scales pt_clust_5="13000.00000" pt_clust_6="13000.00000" pt_clust_7="13000.00000" pt_clust_8="13000.00000" pt_clust_9="27.02145"></scales>
<clustering>
<clus scale="   27.021">  2  9  1 -1</clus>
<clus scale="   82.573">  5  6 -1 -1</clus>
<clus scale="   90.174">  7  8 -1 -1</clus>
<clus scale="   96.936">  1  5  2 -1</clus>
<clus scale="   27.021">  2  5  1 -1</clus>
</clustering>
</event>
<event>
 9    2  0.3764910E-005  0.1704340E+03  0.7546771E-02  0.1179874E+00
         21   -1    0    0  501  502  0.00000000000E+00  0.00000000000E+00  0.23687184181E+03  0.23687184181E+03  0.00000000000E+00 0. -1.
          2   -1    0    0  502    0 -0.00000000000E+00 -0.00000000000E+00 -0.23736652612E+03  0.23736652612E+03  0.00000000000E+00 0. -1.
         23    2    1    2    0    0  0.12799780428E+03 -0.89944984062E+02 -0.13918799107E+03  0.22924403089E+03  0.93305898974E+02 0.  0.
         24    2    1    2    0    0 -0.94510930077E+02  0.31976344809E+02  0.12496136220E+03  0.17665474250E+03  0.75078315603E+02 0.  0.
        -13    1    4    4    0    0 -0.55202653059E+02  0.19056517894E+02  0.16676496324E+02  0.60733757570E+02  0.00000000000E+00 0.  1.
         14    1    4    4    0    0 -0.39308277018E+02  0.12919826915E+02  0.10828486587E+03  0.11592098493E+03  0.00000000000E+00 0. -1.
        -11    1    3    3    0    0  0.27601908974E+02 -0.11496224555E+02 -0.86227445874E+02  0.91264456279E+02  0.00000000000E+00 0.  1.
         11    1    3    3    0    0  0.10039589531E+03 -0.78448759507E+02 -0.52960545191E+02  0.13797957461E+03  0.00000000000E+00 0. -1.
          1    1    1    2  501    0 -0.33486874206E+02  0.57968639253E+02  0.13731944556E+02  0.68339594542E+02  0.00000000000E+00 0. -1.
<scales pt_clust_5="13000.00000" pt_clust_6="13000.00000" pt_clust_7="13000.00000" pt_clust_8="13000.00000" pt_clust_9="66.94575"></scales>
<clustering>
<clus scale="   66.946">  1  9  2 -1</clus>
<clus scale="   75.078">  5  6 -1 -1</clus>
<clus scale="   93.306">  7  8 -1 -1</clus>
<clus scale="  161.178">  1  5  2 -1</clus>
<clus scale="   66.946">  1  5  2 -1</clus>
</clustering>
</event>
<event>
 9    2  0.3764910E-005  0.1156426E+03  0.7546771E-02  0.1254614E+00
         21   -1    0    0  501  502  0.00000000000E+00  0.00000000000E+00  0.59265805203E+03  0.59265805203E+03  0.00000000000E+00 0.  1.
         -3   -1    0    0    0  501 -0.00000000000E+00 -0.00000000000E+00 -0.40049133571E+02  0.40049133571E+02  0.00000000000E+00 0.  1.
         24    2    1    2    0    0  0.83692319864E+02 -0.54011389885E+01  0.16481416297E+03  0.20114947697E+03  0.79144343207E+02 0.  0.
         23    2    1    2    0    0 -0.38407183220E+02  0.60261261468E+02  0.27257160942E+03  0.29614445216E+03  0.91102815137E+02 0.  0.
        -11    1    3    3    0    0  0.76643144417E+02 -0.21949633504E+02  0.16490100767E+03  0.18316195109E+03  0.00000000000E+00 0.  1.
         12    1    3    3    0    0  0.70491754468E+01  0.16548494515E+02 -0.86844696482E-01  0.17987525878E+02  0.00000000000E+00 0. -1.
        -13    1    4    4    0    0 -0.51227642616E+02  0.35384307310E+00  0.89880894987E+02  0.10345516834E+03  0.00000000000E+00 0. -1.
         13    1    4    4    0    0  0.12820459396E+02  0.59907418395E+02  0.18269071443E+03  0.19268928382E+03  0.00000000000E+00 0.  1.
         -4    1    1    2    0  502 -0.45285136644E+02 -0.54860122479E+02  0.11522314607E+03  0.13541325648E+03  0.00000000000E+00 0.  1.
<scales pt_clust_5="13000.00000" pt_clust_6="13000.00000" pt_clust_7="13000.00000" pt_clust_8="13000.00000" pt_clust_9="71.13636"></scales>
<clustering>
<clus scale="   71.136">  1  9  2 -1</clus>
<clus scale="   79.144">  5  6 -1 -1</clus>
<clus scale="   91.103">  7  8 -1 -1</clus>
<clus scale="  106.477">  2  5  1 -1</clus>
<clus scale="   71.136">  1  5  2 -1</clus>
</clustering>
</event>
<event>
 9    2  0.3764910E-005  0.9867260E+02  0.7546771E-02  0.1290274E+00
         21   -1    0    0  501  502  0.00000000000E+00  0.00000000000E+00  0.10035864211E+03  0.10035864211E+03  0.00000000000E+00 0. -1.
          2   -1    0    0  502    0 -0.00000000000E+00 -0.00000000000E+00 -0.19168519845E+03  0.19168519845E+03  0.00000000000E+00 0. -1.
         24    2    1    2    0    0  0.42455792480E+02 -0.46991742591E+01 -0.57974432071E+02  0.10390114175E+03  0.74898837969E+02 0.  0.
         23    2    1    2    0    0 -0.15246203304E+02  0.68729660027E+02 -0.34487205110E+02  0.11856142791E+03  0.88945106606E+02 0.  0.
        -11    1    3    3    0    0  0.19139785343E+02 -0.17096780124E+02  0.12569496954E+02  0.28576625540E+02  0.00000000000E+00 0.  1.
         12    1    3    3    0    0  0.23316007136E+02  0.12397605865E+02 -0.70543929024E+02  0.75324516209E+02  0.00000000000E+00 0. -1.
        -13    1    4    4    0    0  0.27546428498E+02 -0.48559884011E+01 -0.46210368864E+01  0.28350314429E+02  0.00000000000E+00 0.  1.
         13    1    4    4    0    0 -0.42792631802E+02  0.73585648428E+02 -0.29866168224E+02  0.90211113481E+02  0.00000000000E+00 0. -1.
          1    1    1    2  501    0 -0.27209589175E+02 -0.64030485768E+02  0.11350808424E+01  0.69581270894E+02  0.00000000000E+00 0. -1.
<scales pt_clust_5="13000.00000" pt_clust_6="13000.00000" pt_clust_7="13000.00000" pt_clust_8="13000.00000" pt_clust_9="69.57201"></scales>
<clustering>
<clus scale="   69.572">  1  9  2 -1</clus>
<clus scale="   74.899">  5  6 -1 -1</clus>
<clus scale="   86.226">  2  5  1 -1</clus>
<clus scale="   88.945">  7  8 -1 -1</clus>
<clus scale="   69.572">  1  5  2 -1</clus>
</clustering>
</event>
<event>
 9    2  0.3764910E-005  0.1241485E+03  0.7546771E-02  0.1240407E+00
         21   -1    0    0  501  502  0.00000000000E+00  0.00000000000E+00  0.54744522600E+02  0.54744522600E+02  0.00000000000E+00 0.  1.
          2   -1    0    0  502    0 -0.00000000000E+00 -0.00000000000E+00 -0.52251265161E+03  0.52251265161E+03  0.00000000000E+00 0. -1.
         24    2    1    2    0    0  0.60696280510E+02  0.55439937936E+02 -0.31851790817E+03  0.33795707413E+03  0.77483552747E+02 0.  0.
         23    2    1    2    0    0 -0.40480632726E+02 -0.84692284424E+02 -0.15543752989E+03  0.20320778811E+03  0.91220144609E+02 0.  0.
        -11    1    3    3    0    0  0.34858451887E+02  0.50864189917E+02 -0.97335291084E+02  0.11522341938E+03  0.00000000000E+00 0.  1.
         12    1    3    3    0    0  0.25837828623E+02  0.45757480183E+01 -0.22118261708E+03  0.22273365475E+03  0.00000000000E+00 0. -1.
        -11    1    4    4    0    0 -0.23463967078E+02 -0.10002493736E+03 -0.10065583901E+03  0.14383026028E+03  0.00000000000E+00 0.  1.
         11    1    4    4    0    0 -0.17016665648E+02  0.15332652932E+02 -0.54781690881E+02  0.59377527832E+02  0.00000000000E+00 0. -1.
          1    1    1    2  501    0 -0.20215647784E+02  0.29252346489E+02  0.61873090434E+01  0.36092311974E+02  0.00000000000E+00 0. -1.
<scales pt_clust_5="13000.00000" pt_clust_6="13000.00000" pt_clust_7="13000.00000" pt_clust_8="13000.00000" pt_clust_9="35.55801"></scales>
<clustering>
<clus scale="   35.558">  1  9  2 -1</clus>
<clus scale="   77.484">  5  6 -1 -1</clus>
<clus scale="   91.220">  7  8 -1 -1</clus>
<clus scale="  114.435">  2  5  1 -1</clus>
<clus scale="   35.558">  1  5  2 -1</clus>
</clustering>
</event>
<event>
 9    2  0.3764910E-005  0.1074447E+03  0.7546771E-02  0.1270028E+00
         21   -1    0    0  501  502  0.00000000000E+00  0.00000000000E+00  0.12649581542E+03  0.12649581542E+03  0.00000000000E+00 0.  1.
         -1   -1    0    0    0  501 -0.00000000000E+00 -0.00000000000E+00 -0.15240046413E+03  0.15240046413E+03  0.00000000000E+00 0.  1.
         24    2    1    2    0    0  0.52220990733E+02  0.20097633931E+02 -0.66029948973E+01  0.97330832558E+02  0.79364631052E+02 0.  0.
         23    2    1    2    0    0 -0.66240139782E+02  0.20489692197E+02  0.28220937736E+02  0.11751652593E+03  0.90587686445E+02 0.  0.
        -11    1    3    3    0    0 -0.32746751055E+01  0.38397400501E+02 -0.11695779272E+00  0.38536963313E+02  0.00000000000E+00 0.  1.
         12    1    3    3    0    0  0.55495665839E+02 -0.18299766570E+02 -0.64860371046E+01  0.58793869244E+02  0.00000000000E+00 0. -1.
        -13    1    4    4    0    0 -0.88735437947E+02  0.15216685842E+02  0.16218073379E+02  0.91479786728E+02  0.00000000000E+00 0.  1.
         13    1    4    4    0    0  0.22495298165E+02  0.52730063549E+01  0.12002864357E+02  0.26036739203E+02  0.00000000000E+00 0. -1.
         -2    1    1    2    0  502  0.14019149049E+02 -0.40587326128E+02 -0.47522591543E+02  0.64048921062E+02  0.00000000000E+00 0.  1.
<scales pt_clust_5="13000.00000" pt_clust_6="13000.00000" pt_clust_7="13000.00000" pt_clust_8="13000.00000" pt_clust_9="42.94030"></scales>
<clustering>
<clus scale="   42.940">  1  9  2 -1</clus>
<clus scale="   79.365">  5  6 -1 -1</clus>
<clus scale="   90.588">  7  8 -1 -1</clus>
<clus scale="   98.168">  2  5  1 -1</clus>
<clus scale="   42.940">  1  5  2 -1</clus>
</clustering>
</event>
<event>
 9    2  0.3764910E-005  0.1552021E+03  0.7546771E-02  0.1212329E+00
         -1   -1    0    0    0  501 -0.00000000000E+00  0.00000000000E+00  0.14350481684E+03  0.14350481684E+03  0.00000000000E+00 0.  1.
         21   -1    0    0  501  502  0.00000000000E+00 -0.00000000000E+00 -0.31530976137E+03  0.31530976137E+03  0.00000000000E+00 0. -1.
         23    2    1    2    0    0 -0.28841609109E+02  0.45816879710E+02 -0.84799115345E+02  0.13493998529E+03  0.89927108171E+02 0.  0.
         24    2    1    2    0    0 -0.93002127699E+02 -0.92185628746E+01  0.41328332591E+02  0.14316767531E+03  0.10027250132E+03 0.  0.
        -13    1    4    4    0    0 -0.97461595876E+02  0.12128762156E+02  0.59456938415E+02  0.11480852350E+03  0.00000000000E+00 0.  1.
         14    1    4    4    0    0  0.44594681773E+01 -0.21347325031E+02 -0.18128605824E+02  0.28359151812E+02  0.00000000000E+00 0. -1.
        -13    1    3    3    0    0  0.19524736055E+02  0.52013607112E+02 -0.52592146820E+02  0.76502055854E+02  0.00000000000E+00 0.  1.
         13    1    3    3    0    0 -0.48366345164E+02 -0.61967274017E+01 -0.32206968526E+02  0.58437929435E+02  0.00000000000E+00 0. -1.
         -2    1    1    2    0  502  0.12184373681E+03 -0.36598316835E+02 -0.12833416178E+03  0.18070691761E+03  0.00000000000E+00 0.  1.
<scales pt_clust_5="13000.00000" pt_clust_6="13000.00000" pt_clust_7="13000.00000" pt_clust_8="13000.00000" pt_clust_9="118.46147"></scales>
<clustering>
<clus scale="   89.927">  7  8 -1 -1</clus>
<clus scale="  100.273">  5  6 -1 -1</clus>
<clus scale="  104.966">  1  7  2 -1</clus>
<clus scale="  118.461">  2  9  1 -1</clus>
<clus scale="  118.461">  2  5  1 -1</clus>
</clustering>
</event>
<event>
 9    2  0.3764910E-005  0.9622932E+02  0.7546771E-02  0.1306068E+00
         -3   -1    0    0    0  501 -0.00000000000E+00  0.00000000000E+00  0.18234272457E+03  0.18234272457E+03  0.00000000000E+00 0.  1.
         21   -1    0    0  501  502  0.00000000000E+00 -0.00000000000E+00 -0.81888959544E+02  0.81888959544E+02  0.00000000000E+00 0.  1.
         23    2    1    2    0    0  0.10786139143E+02  0.34291650982E+02  0.11143745429E+03  0.14990298286E+03  0.93596687583E+02 0.  0.
         24    2    1    2    0    0  0.14214135118E+02 -0.52004242577E+01  0.13559421359E+02  0.68791052398E+02  0.65721114817E+02 0.  0.
        -13    1    4    4    0    0  0.31024473006E+02 -0.20052176603E+02  0.23996586738E+02  0.44050469770E+02  0.00000000000E+00 0.  1.
         14    1    4    4    0    0 -0.16810337888E+02  0.14851752345E+02 -0.10437165379E+02  0.24740582629E+02  0.00000000000E+00 0. -1.
        -11    1    3    3    0    0 -0.26492512807E+02 -0.17954856677E+02  0.18527331129E+02  0.36979617520E+02  0.00000000000E+00 0. -1.
         11    1    3    3    0    0  0.37278651950E+02  0.52246507659E+02  0.92910123158E+02  0.11292336534E+03  0.00000000000E+00 0.  1.
         -4    1    1    2    0  502 -0.25000274261E+02 -0.29091226724E+02 -0.24543110616E+02  0.45537648865E+02  0.00000000000E+00 0.  1.
<scales pt_clust_5="13000.00000" pt_clust_6="13000.00000" pt_clust_7="13000.00000" pt_clust_8="13000.00000" pt_clust_9="38.35770"></scales>
<clustering>
<clus scale="   38.358">  2  9  1 -1</clus>
<clus scale="   65.721">  5  6 -1 -1</clus>
<clus scale="   69.419">  2  5  1 -1</clus>
<clus scale="   93.597">  7  8 -1 -1</clus>
<clus scale="   38.358">  2  5  1 -1</clus>
</clustering>
</event>
<event>
 9    2  0.3764910E-005  0.1853494E+03  0.7546771E-02  0.1193482E+00
         21   -1    0    0  501  502  0.00000000000E+00  0.00000000000E+00  0.45121885142E+03  0.45121885142E+03  0.00000000000E+00 0. -1.
         -3   -1    0    0    0  501 -0.00000000000E+00 -0.00000000000E+00 -0.49592235298E+03  0.49592235298E+03  0.00000000000E+00 0.  1.
         24    2    1    2    0    0  0.50723366290E+02  0.21042015408E+02  0.35908591176E+03  0.37083695603E+03  0.74577004689E+02 0.  0.
         23    2    1    2    0    0 -0.16384888247E+03 -0.62537601724E+02 -0.52362422099E+02  0.20479355370E+03  0.91875831818E+02 0.  0.
        -13    1    3    3    0    0  0.10140911496E+02  0.27055861497E+02  0.41242222201E+02  0.50356515163E+02  0.00000000000E+00 0.  1.
         14    1    3    3    0    0  0.40582454794E+02 -0.60138460889E+01  0.31784368956E+03  0.32048044086E+03  0.00000000000E+00 0. -1.
        -13    1    4    4    0    0 -0.44170597440E+02  0.18134593861E+02  0.78841427113E+01  0.48394884843E+02  0.00000000000E+00 0.  1.
         13    1    4    4    0    0 -0.11967828503E+03 -0.80672195584E+02 -0.60246564811E+02  0.15639866885E+03  0.00000000000E+00 0. -1.
         -4    1    1    2    0  502  0.11312551618E+03  0.41495586316E+02 -0.35142699123E+03  0.37151069467E+03  0.00000000000E+00 0.  1.
<scales pt_clust_5="13000.00000" pt_clust_6="13000.00000" pt_clust_7="13000.00000" pt_clust_8="13000.00000" pt_clust_9="160.97594"></scales>
<clustering>
<clus scale="   74.577">  5  6 -1 -1</clus>
<clus scale="   91.876">  7  8 -1 -1</clus>
<clus scale="   92.614">  2  5  1 -1</clus>
<clus scale="  160.976">  1  9  2 -1</clus>
<clus scale="  160.976">  1  5  2 -1</clus>
</clustering>
</event>
<event>
 9    2  0.3764910E-005  0.9155869E+02  0.7546771E-02  0.1305335E+00
          2   -1    0    0  502    0 -0.00000000000E+00  0.00000000000E+00  0.84545780616E+03  0.84545780616E+03  0.00000000000E+00 0. -1.
         21   -1    0    0  501  502  0.00000000000E+00 -0.00000000000E+00 -0.20291185240E+02  0.20291185240E+02  0.00000000000E+00 0.  1.
         23    2    1    2    0    0 -0.16790371918E+02 -0.22847427583E+02  0.49831942108E+03  0.50738239557E+03  0.91163196378E+02 0.  0.
         24    2    1    2    0    0 -0.15942576772E+02 -0.27113236855E+02  0.20092601030E+03  0.21899780486E+03  0.81237205459E+02 0.  0.
        -13    1    4    4    0    0 -0.33357847151E+02 -0.36525100220E+01  0.28243711993E+02  0.43861076858E+02  0.00000000000E+00 0.  1.
         14    1    4    4    0    0  0.17415270379E+02 -0.23460726833E+02  0.17268229831E+03  0.17513672800E+03  0.00000000000E+00 0. -1.
        -13    1    3    3    0    0 -0.19541865039E+02  0.33527036847E+02  0.22025802904E+03  0.22365049976E+03  0.00000000000E+00 0. -1.
         13    1    3    3    0    0  0.27514931215E+01 -0.56374464429E+02  0.27806139205E+03  0.28373189581E+03  0.00000000000E+00 0.  1.
          1    1    1    2  501    0  0.32732948690E+02  0.49960664438E+02  0.12592118954E+03  0.13936879097E+03  0.00000000000E+00 0. -1.
<scales pt_clust_5="13000.00000" pt_clust_6="13000.00000" pt_clust_7="13000.00000" pt_clust_8="13000.00000" pt_clust_9="59.72867"></scales>
<clustering>
<clus scale="   59.729">  2  9  1 -1</clus>
<clus scale="   81.237">  5  6 -1 -1</clus>
<clus scale="   81.681">  2  5  1 -1</clus>
<clus scale="   91.163">  7  8 -1 -1</clus>
<clus scale="   59.729">  2  5  1 -1</clus>
</clustering>
</event>
<event>
 9    2  0.3764910E-005  0.9325932E+02  0.7546771E-02  0.1300960E+00
         21   -1    0    0  501  502  0.00000000000E+00  0.00000000000E+00  0.29672389531E+02  0.29672389531E+02  0.00000000000E+00 0.  1.
          2   -1    0    0  502    0 -0.00000000000E+00 -0.00000000000E+00 -0.35480393302E+03  0.35480393302E+03  0.00000000000E+00 0. -1.
         24    2    1    2    0    0 -0.10780111843E+02 -0.18676512046E+02 -0.12243411224E+03  0.14816544877E+03  0.80609338522E+02 0.  0.
         23    2    1    2    0    0 -0.88499990520E+01  0.27361926231E+02 -0.13305965273E+03  0.16343976928E+03  0.90447164176E+02 0.  0.
        -13    1    3    3    0    0 -0.45695370068E+02 -0.78725684244E+01 -0.76629008129E+02  0.89565892315E+02  0.00000000000E+00 0.  1.
         14    1    3    3    0    0  0.34915258225E+02 -0.10803943621E+02 -0.45805104108E+02  0.58599556457E+02  0.00000000000E+00 0. -1.
        -13    1    4    4    0    0 -0.32858749341E+02 -0.21739855424E+01 -0.11799497364E+03  0.12250403024E+03  0.00000000000E+00 0. -1.
         13    1    4    4    0    0  0.24008750289E+02  0.29535911774E+02 -0.15064679096E+02  0.40935739043E+02  0.00000000000E+00 0.  1.
          1    1    1    2  501    0  0.19630110895E+02 -0.86854141857E+01 -0.69637778524E+02  0.72871104500E+02  0.00000000000E+00 0. -1.
<scales pt_clust_5="13000.00000" pt_clust_6="13000.00000" pt_clust_7="13000.00000" pt_clust_8="13000.00000" pt_clust_9="21.46574"></scales>
<clustering>
<clus scale="   21.466">  1  9  2 -1</clus>
<clus scale="   80.609">  5  6 -1 -1</clus>
<clus scale="   83.752">  2  5  1 -1</clus>
<clus scale="   90.447">  7  8 -1 -1</clus>
<clus scale="   21.466">  1  5  2 -1</clus>
</clustering>
</event>
<event>
 9    2  0.3764910E-005  0.1017030E+03  0.7546771E-02  0.1280998E+00
         21   -1    0    0  501  502  0.00000000000E+00  0.00000000000E+00  0.39328407421E+02  0.39328407421E+02  0.00000000000E+00 0.  1.
          2   -1    0    0  502    0 -0.00000000000E+00 -0.00000000000E+00 -0.50833800232E+03  0.50833800232E+03  0.00000000000E+00 0. -1.
         23    2    1    2    0    0 -0.38189907009E+02  0.25832667763E+02 -0.28556502876E+03  0.30351028429E+03  0.91898374822E+02 0.  0.
         24    2    1    2    0    0  0.40362431768E+02 -0.10373959287E+01 -0.43635377364E+02  0.10214860933E+03  0.83066781223E+02 0.  0.
        -13    1    4    4    0    0  0.23792358016E+02  0.21983805971E+02  0.15986264241E+02  0.36123741075E+02  0.00000000000E+00 0.  1.
         14    1    4    4    0    0  0.16570073753E+02 -0.23021201899E+02 -0.59621641604E+02  0.66024868259E+02  0.00000000000E+00 0. -1.
        -11    1    3    3    0    0  0.19254470573E+02 -0.16995946315E+02 -0.38619897185E+02  0.46379880193E+02  0.00000000000E+00 0.  1.
         11    1    3    3    0    0 -0.57444377582E+02  0.42828614078E+02 -0.24694513158E+03  0.25713040409E+03  0.00000000000E+00 0. -1.
          1    1    1    2  501    0 -0.21725247598E+01 -0.24795271834E+02 -0.13980918877E+03  0.14200751612E+03  0.00000000000E+00 0. -1.
<scales pt_clust_5="13000.00000" pt_clust_6="13000.00000" pt_clust_7="13000.00000" pt_clust_8="13000.00000" pt_clust_9="24.89028"></scales>
<clustering>
<clus scale="   24.890">  1  9  2 -1</clus>
<clus scale="   83.067">  5  6 -1 -1</clus>
<clus scale="   91.898">  7  8 -1 -1</clus>
<clus scale="   93.799">  1  5  2 -1</clus>
<clus scale="   24.890">  1  5  2 -1</clus>
</clustering>
</event>
<event>
 9    2  0.3764910E-005  0.1913788E+03  0.7546771E-02  0.1166242E+00
          2   -1    0    0  502    0 -0.00000000000E+00  0.00000000000E+00  0.58251384367E+03  0.58251384367E+03  0.00000000000E+00 0. -1.
         21   -1    0    0  501  502  0.00000000000E+00 -0.00000000000E+00 -0.18972650998E+03  0.18972650998E+03  0.00000000000E+00 0.  1.
         24    2    1    2    0    0  0.12468418224E+03  0.46173065246E+02 -0.43458941976E+02  0.16120557578E+03  0.80127777780E+02 0.  0.
         23    2    1    2    0    0  0.11268672566E+03 -0.91114917999E+02  0.10480644078E+03  0.20089201956E+03  0.91504027620E+02 0.  0.
        -11    1    3    3    0    0  0.10874087923E+03  0.66306550354E+02 -0.45963077964E+02  0.13540214907E+03  0.00000000000E+00 0.  1.
         12    1    3    3    0    0  0.15943303003E+02 -0.20133485108E+02  0.25041359880E+01  0.25803426716E+02  0.00000000000E+00 0. -1.
        -13    1    4    4    0    0  0.72625236028E+02 -0.33066995027E+02  0.67211169281E+01  0.80081361633E+02  0.00000000000E+00 0.  1.
         13    1    4    4    0    0  0.40061489637E+02 -0.58047922972E+02  0.98085323856E+02  0.12081065793E+03  0.00000000000E+00 0. -1.
          1    1    1    2  501    0 -0.23737090790E+03  0.44941852754E+02  0.33143983488E+03  0.41014275831E+03  0.00000000000E+00 0. -1.
<scales pt_clust_5="13000.00000" pt_clust_6="13000.00000" pt_clust_7="13000.00000" pt_clust_8="13000.00000" pt_clust_9="168.08600"></scales>
<clustering>
<clus scale="   80.128">  5  6 -1 -1</clus>
<clus scale="   91.504">  7  8 -1 -1</clus>
<clus scale="  155.237">  1  5  2 -1</clus>
<clus scale="  168.086">  2  9  1 -1</clus>
<clus scale="  168.086">  2  5  1 -1</clus>
</clustering>
</event>
<event>
 9    2  0.3764910E-005  0.9439408E+02  0.7546771E-02  0.1300880E+00
         -1   -1    0    0    0  501 -0.00000000000E+00  0.00000000000E+00  0.21623937025E+03  0.21623937025E+03  0.00000000000E+00 0.  1.
         21   -1    0    0  501  502  0.00000000000E+00 -0.00000000000E+00 -0.68715926560E+02  0.68715926560E+02  0.00000000000E+00 0. -1.
         24    2    1    2    0    0 -0.25959948881E+02  0.67286819396E+01  0.14143034011E+03  0.16366758475E+03  0.77880312577E+02 0.  0.
         23    2    1    2    0    0  0.65301537158E+01  0.90788860979E+01  0.16843977046E+02  0.94030099766E+02  0.91830664916E+02 0.  0.
        -13    1    3    3    0    0  0.24599310019E+02 -0.24831668491E+01  0.19968618853E+02  0.31781093592E+02  0.00000000000E+00 0.  1.
         14    1    3    3    0    0 -0.50559258900E+02  0.92118487888E+01  0.12146172126E+03  0.13188649116E+03  0.00000000000E+00 0. -1.
        -11    1    4    4    0    0 -0.24940341390E+02 -0.29644692585E+02 -0.59087880446E+01  0.39188546838E+02  0.00000000000E+00 0. -1.
         11    1    4    4    0    0  0.31470495106E+02  0.38723578683E+02  0.22752765091E+02  0.54841552928E+02  0.00000000000E+00 0.  1.
         -2    1    1    2    0  502  0.19429795165E+02 -0.15807568038E+02 -0.10750873471E+02  0.27257612291E+02  0.00000000000E+00 0.  1.
<scales pt_clust_5="13000.00000" pt_clust_6="13000.00000" pt_clust_7="13000.00000" pt_clust_8="13000.00000" pt_clust_9="25.04788"></scales>
<clustering>
<clus scale="   25.048">  2  9  1 -1</clus>
<clus scale="   77.880">  5  6 -1 -1</clus>
<clus scale="   80.887">  1  5  2 -1</clus>
<clus scale="   91.831">  7  8 -1 -1</clus>
<clus scale="   25.048">  2  5  1 -1</clus>
</clustering>
</event>
<event>
 9    2  0.3764910E-005  0.1001504E+03  0.7546771E-02  0.1288663E+00
         21   -1    0    0  501  502  0.00000000000E+00  0.00000000000E+00  0.11039206434E+03  0.11039206434E+03  0.00000000000E+00 0.  1.
          2   -1    0    0  502    0 -0.00000000000E+00 -0.00000000000E+00 -0.19306764505E+03  0.19306764505E+03  0.00000000000E+00 0. -1.
         24    2    1    2    0    0 -0.25691122325E+02 -0.11174039001E+02 -0.14127360399E+03  0.16534740590E+03  0.81219705361E+02 0.  0.
         23    2    1    2    0    0  0.11538262474E+02 -0.56606216567E+01  0.30563825525E+02  0.10248049908E+03  0.96968712082E+02 0.  0.
        -13    1    3    3    0    0 -0.24418743966E+00  0.32819070298E+02 -0.37754776552E+02  0.50025734929E+02  0.00000000000E+00 0.  1.
         14    1    3    3    0    0 -0.25446934886E+02 -0.43993109299E+02 -0.10351882744E+03  0.11532167097E+03  0.00000000000E+00 0. -1.
        -13    1    4    4    0    0  0.20878090862E+02 -0.29716579293E+02 -0.23025465452E+02  0.43001649064E+02  0.00000000000E+00 0. -1.
         13    1    4    4    0    0 -0.93398283887E+01  0.24055957636E+02  0.53589290977E+02  0.59478850018E+02  0.00000000000E+00 0.  1.
          1    1    1    2  501    0  0.14152859852E+02  0.16834660658E+02  0.28034197761E+02  0.35631804410E+02  0.00000000000E+00 0. -1.
<scales pt_clust_5="13000.00000" pt_clust_6="13000.00000" pt_clust_7="13000.00000" pt_clust_8="13000.00000" pt_clust_9="21.99339"></scales>
<clustering>
<clus scale="   21.993">  1  9  2 -1</clus>
<clus scale="   81.220">  5  6 -1 -1</clus>
<clus scale="   84.993">  2  5  1 -1</clus>
<clus scale="   96.969">  7  8 -1 -1</clus>
<clus scale="   21.993">  1  5  2 -1</clus>
</clustering>
</event>
<event>
 9    2  0.3764910E-005  0.2496088E+03  0.7546771E-02  0.1151544E+00
         21   -1    0    0  501  502  0.00000000000E+00  0.00000000000E+00  0.19552208012E+03  0.19552208012E+03  0.00000000000E+00 0.  1.
         -3   -1    0    0    0  501 -0.00000000000E+00 -0.00000000000E+00 -0.44289504975E+03  0.44289504975E+03  0.00000000000E+00 0.  1.
         23    2    1    2    0    0 -0.37828904367E+02  0.12494704944E+02 -0.63670658393E+02  0.11735379057E+03  0.90171036163E+02 0.  0.
         24    2    1    2    0    0  0.10237485581E+03 -0.22735480847E+03 -0.80456261988E+02  0.27410020315E+03  0.80541239348E+02 0.  0.
        -13    1    4    4    0    0  0.41236782061E+02 -0.69193461569E+02  0.11237160067E+02  0.81329460130E+02  0.00000000000E+00 0.  1.
         14    1    4    4    0    0  0.61138073750E+02 -0.15816134690E+03 -0.91693422055E+02  0.19277074302E+03  0.00000000000E+00 0. -1.
        -11    1    3    3    0    0  0.20725235856E+02 -0.21466947127E+02 -0.27629893452E+02  0.40666647666E+02  0.00000000000E+00 0.  1.
         11    1    3    3    0    0 -0.58554140223E+02  0.33961652071E+02 -0.36040764941E+02  0.76687142900E+02  0.00000000000E+00 0. -1.
         -4    1    1    2    0  502 -0.64545951445E+02  0.21486010353E+03 -0.10324604924E+03  0.24696313616E+03  0.00000000000E+00 0.  1.
<scales pt_clust_5="13000.00000" pt_clust_6="13000.00000" pt_clust_7="13000.00000" pt_clust_8="13000.00000" pt_clust_9="236.25770"></scales>
<clustering>
<clus scale="   80.541">  5  6 -1 -1</clus>
<clus scale="   90.171">  7  8 -1 -1</clus>
<clus scale="   98.580">  2  7  1 -1</clus>
<clus scale="  236.258">  1  9  2 -1</clus>
<clus scale="  236.258">  1  5  2 -1</clus>
</clustering>
</event>
<event>
 9    2  0.3764910E-005  0.1309137E+03  0.7546771E-02  0.1229610E+00
          2   -1    0    0  502    0 -0.00000000000E+00  0.00000000000E+00  0.82618102991E+03  0.82618102991E+03  0.00000000000E+00 0. -1.
         21   -1    0    0  501  502  0.00000000000E+00 -0.00000000000E+00 -0.30839328579E+02  0.30839328579E+02  0.00000000000E+00 0.  1.
         24    2    1    2    0    0  0.50294937239E+02 -0.91871658041E+02  0.49045579601E+03  0.50777066065E+03  0.79461775188E+02 0.  0.
         23    2    1    2    0    0 -0.38394878971E+02  0.51872394921E+02  0.14442161433E+03  0.18344758349E+03  0.92900490410E+02 0.  0.
        -11    1    3    3    0    0  0.30993436490E+02  0.41446137849E+01  0.82589774730E+02  0.88311051510E+02  0.00000000000E+00 0.  1.
         12    1    3    3    0    0  0.19301500748E+02 -0.96016271826E+02  0.40786602128E+03  0.41945960914E+03  0.00000000000E+00 0. -1.
        -13    1    4    4    0    0 -0.11995071317E+02  0.75710541836E+02  0.10894398142E+03  0.13320945525E+03  0.00000000000E+00 0. -1.
         13    1    4    4    0    0 -0.26399807654E+02 -0.23838146915E+02  0.35477632914E+02  0.50238128246E+02  0.00000000000E+00 0.  1.
          1    1    1    2  501    0 -0.11900058268E+02  0.39999263120E+02  0.16046429099E+03  0.16580211434E+03  0.00000000000E+00 0. -1.
<scales pt_clust_5="13000.00000" pt_clust_6="13000.00000" pt_clust_7="13000.00000" pt_clust_8="13000.00000" pt_clust_9="41.73193"></scales>
<clustering>
<clus scale="   41.732">  2  9  1 -1</clus>
<clus scale="   79.462">  5  6 -1 -1</clus>
<clus scale="   92.900">  7  8 -1 -1</clus>
<clus scale="  121.746">  1  5  2 -1</clus>
<clus scale="   41.732">  2  5  1 -1</clus>
</clustering>
</event>
<event>
 9    2  0.3764910E-005  0.1611655E+03  0.7546771E-02  0.1188290E+00
          2   -1    0    0  502    0 -0.00000000000E+00  0.00000000000E+00  0.10205287879E+04  0.10205287879E+04  0.00000000000E+00 0. -1.
         21   -1    0    0  501  502  0.00000000000E+00 -0.00000000000E+00 -0.81302321841E+02  0.81302321841E+02  0.00000000000E+00 0. -1.
         24    2    1    2    0    0 -0.58270840229E+02 -0.13009479280E+03  0.88257839220E+03  0.89924207487E+03  0.96806739893E+02 0.  0.
         23    2    1    2    0    0  0.42863483231E+02  0.50852090928E+02  0.41804353753E+02  0.12050902224E+03  0.91387127658E+02 0.  0.
        -13    1    3    3    0    0  0.18937055562E+02 -0.18374705069E+02  0.60237013361E+02  0.65762752667E+02  0.00000000000E+00 0.  1.
         14    1    3    3    0    0 -0.77207895791E+02 -0.11172008773E+03  0.82234137884E+03  0.83347932220E+03  0.00000000000E+00 0. -1.
        -11    1    4    4    0    0  0.26871777840E+02  0.30430758998E+02  0.70794808747E+02  0.81608997561E+02  0.00000000000E+00 0.  1.
         11    1    4    4    0    0  0.15991705391E+02  0.20421331929E+02 -0.28990454994E+02  0.38900024677E+02  0.00000000000E+00 0. -1.
          1    1    1    2  501    0  0.15407356999E+02  0.79242701868E+02  0.14843720109E+02  0.82080012644E+02  0.00000000000E+00 0. -1.
<scales pt_clust_5="13000.00000" pt_clust_6="13000.00000" pt_clust_7="13000.00000" pt_clust_8="13000.00000" pt_clust_9="80.72665"></scales>
<clustering>
<clus scale="   80.727">  2  9  1 -1</clus>
<clus scale="   91.387">  7  8 -1 -1</clus>
<clus scale="   96.807">  5  6 -1 -1</clus>
<clus scale="  157.970">  2  7  1 -1</clus>
<clus scale="   80.727">  2  5  1 -1</clus>
</clustering>
</event>
<event>
 9    2  0.3764910E-005  0.1094002E+03  0.7546771E-02  0.1266457E+00
          4   -1    0    0  502    0 -0.00000000000E+00  0.00000000000E+00  0.69587183121E+03  0.69587183121E+03  0.00000000000E+00 0. -1.
         21   -1    0    0  501  502  0.00000000000E+00 -0.00000000000E+00 -0.28290054216E+02  0.28290054216E+02  0.00000000000E+00 0.  1.
         23    2    1    2    0    0  0.53781580925E+02 -0.10491568286E+02  0.38364481584E+03  0.39832287467E+03  0.92061046690E+02 0.  0.
         24    2    1    2    0    0 -0.72632284983E+02 -0.18477576552E+02  0.14061890837E+03  0.17841233525E+03  0.80252191997E+02 0.  0.
        -13    1    4    4    0    0 -0.54235067939E+02 -0.34905617751E+02  0.42499033498E+02  0.77239967589E+02  0.00000000000E+00 0.  1.
         14    1    4    4    0    0 -0.18397217044E+02  0.16428041199E+02  0.98119874876E+02  0.10117236766E+03  0.00000000000E+00 0. -1.
        -11    1    3    3    0    0  0.60389070631E+02  0.14686668566E+02  0.35153786382E+03  0.35698936649E+03  0.00000000000E+00 0.  1.
         11    1    3    3    0    0 -0.66074897055E+01 -0.25178236852E+02  0.32106952014E+02  0.41333508185E+02  0.00000000000E+00 0. -1.
          3    1    1    2  501    0  0.18850704057E+02  0.28969144839E+02  0.14331805278E+03  0.14742667550E+03  0.00000000000E+00 0. -1.
<scales pt_clust_5="13000.00000" pt_clust_6="13000.00000" pt_clust_7="13000.00000" pt_clust_8="13000.00000" pt_clust_9="34.56243"></scales>
<clustering>
<clus scale="   34.562">  2  9  1 -1</clus>
<clus scale="   80.252">  5  6 -1 -1</clus>
<clus scale="   92.061">  7  8 -1 -1</clus>
<clus scale="   99.667">  2  5  1 -1</clus>
<clus scale="   34.562">  2  5  1 -1</clus>
</clustering>
</event>
<event>
 9    2  0.3764910E-005  0.9821902E+02  0.7546771E-02  0.1292528E+00
          2   -1    0    0  502    0 -0.00000000000E+00  0.00000000000E+00  0.42837578477E+03  0.42837578477E+03  0.00000000000E+00 0. -1.
         21   -1    0    0  501  502  0.00000000000E+00 -0.00000000000E+00 -0.38674040604E+02  0.38674040604E+02  0.00000000000E+00 0.  1.
         24    2    1    2    0    0 -0.18703344075E+01 -0.24491961875E+02  0.22674122820E+03  0.24152103280E+03  0.79482516144E+02 0.  0.
         23    2    1    2    0    0  0.43730985783E+02  0.23107778971E+02  0.82704324542E+02  0.13500097167E+03  0.94545695232E+02 0.  0.
        -13    1    3    3    0    0  0.16246677932E+02  0.23656964261E+02  0.52352558012E+02  0.59702569729E+02  0.00000000000E+00 0.  1.
         14    1    3    3    0    0 -0.18117012339E+02 -0.48148926135E+02  0.17438867019E+03  0.18181846307E+03  0.00000000000E+00 0. -1.
        -11    1    4    4    0    0 -0.25239828837E+01  0.51831717316E+02  0.45908266972E+02  0.69285398072E+02  0.00000000000E+00 0.  1.
         11    1    4    4    0    0  0.46254968667E+02 -0.28723938345E+02  0.36796057570E+02  0.65715573597E+02  0.00000000000E+00 0. -1.
          1    1    1    2  501    0 -0.41860651376E+02  0.13841829034E+01  0.80256191424E+02  0.90527820905E+02  0.00000000000E+00 0. -1.
<scales pt_clust_5="13000.00000" pt_clust_6="13000.00000" pt_clust_7="13000.00000" pt_clust_8="13000.00000" pt_clust_9="41.88355"></scales>
<clustering>
<clus scale="   41.884">  2  9  1 -1</clus>
<clus scale="   79.483">  5  6 -1 -1</clus>
<clus scale="   83.819">  1  5  2 -1</clus>
<clus scale="   94.546">  7  8 -1 -1</clus>
<clus scale="   41.884">  2  5  1 -1</clus>
</clustering>
</event>
<event>
 9    2  0.3764910E-005  0.1086327E+03  0.7546771E-02  0.1277013E+00
         21   -1    0    0  501  502  0.00000000000E+00  0.00000000000E+00  0.40716218331E+03  0.40716218331E+03  0.00000000000E+00 0. -1.
          2   -1    0    0  502    0 -0.00000000000E+00 -0.00000000000E+00 -0.59820316281E+02  0.59820316281E+02  0.00000000000E+00 0. -1.
         24    2    1    2    0    0 -0.21053798775E+02 -0.24741071157E+02  0.26441651286E+02  0.90829085899E+02  0.80593913404E+02 0.  0.
         23    2    1    2    0    0 -0.44862908500E+01 -0.44696641170E+02  0.24019241470E+03  0.26666532657E+03  0.10677117486E+03 0.  0.
        -13    1    3    3    0    0  0.23223072466E+02 -0.10203918794E+01 -0.13297189745E+02  0.26779984120E+02  0.00000000000E+00 0.  1.
         14    1    3    3    0    0 -0.44276871241E+02 -0.23720679277E+02  0.39738841031E+02  0.64049101780E+02  0.00000000000E+00 0. -1.
        -11    1    4    4    0    0  0.38999795746E+02 -0.56327067503E+02  0.16991916319E+03  0.18321092932E+03  0.00000000000E+00 0. -1.
         11    1    4    4    0    0 -0.43486086596E+02  0.11630426333E+02  0.70273251505E+02  0.83454397255E+02  0.00000000000E+00 0.  1.
          1    1    1    2  501    0  0.25540089625E+02  0.69437712326E+02  0.80707801044E+02  0.10948808712E+03  0.00000000000E+00 0. -1.
<scales pt_clust_5="13000.00000" pt_clust_6="13000.00000" pt_clust_7="13000.00000" pt_clust_8="13000.00000" pt_clust_9="73.98579"></scales>
<clustering>
<clus scale="   73.986">  1  9  2 -1</clus>
<clus scale="   80.594">  5  6 -1 -1</clus>
<clus scale="   83.044">  2  5  1 -1</clus>
<clus scale="  106.771">  7  8 -1 -1</clus>
<clus scale="   73.986">  1  5  2 -1</clus>
</clustering>
</event>
<event>
 9    2  0.3764910E-005  0.8991742E+02  0.7546771E-02  0.1308729E+00
         21   -1    0    0  501  502  0.00000000000E+00  0.00000000000E+00  0.11247237483E+03  0.11247237483E+03  0.00000000000E+00 0.  1.
         -1   -1    0    0    0  501 -0.00000000000E+00 -0.00000000000E+00 -0.10538026390E+03  0.10538026390E+03  0.00000000000E+00 0.  1.
         23    2    1    2    0    0 -0.65725077831E+01  0.63176582668E+01 -0.14490044901E+02  0.90957773184E+02  0.89332213881E+02 0.  0.
         24    2    1    2    0    0 -0.30343429011E+02 -0.59838528653E+01  0.25297594373E+02  0.89790926406E+02  0.80410894812E+02 0.  0.
        -13    1    4    4    0    0 -0.57220118833E+02  0.38134825953E+01  0.19739522946E+02  0.60649265576E+02  0.00000000000E+00 0.  1.
         14    1    4    4    0    0  0.26876689822E+02 -0.97973354607E+01  0.55580714271E+01  0.29141660830E+02  0.00000000000E+00 0. -1.
        -11    1    3    3    0    0 -0.29791787267E+02  0.38154632489E+02  0.15030049542E+01  0.48431246039E+02  0.00000000000E+00 0.  1.
         11    1    3    3    0    0  0.23219279484E+02 -0.31836974222E+02 -0.15993049855E+02  0.42526527146E+02  0.00000000000E+00 0. -1.
         -2    1    1    2    0  502  0.36915936794E+02 -0.33380540144E+00 -0.37154385433E+01  0.37103939130E+02  0.00000000000E+00 0.  1.
<scales pt_clust_5="13000.00000" pt_clust_6="13000.00000" pt_clust_7="13000.00000" pt_clust_8="13000.00000" pt_clust_9="36.91746"></scales>
<clustering>
<clus scale="   36.917">  1  9  2 -1</clus>
<clus scale="   80.411">  5  6 -1 -1</clus>
<clus scale="   81.061">  1  5  2 -1</clus>
<clus scale="   89.332">  7  8 -1 -1</clus>
<clus scale="   36.917">  1  5  2 -1</clus>
</clustering>
</event>
<event>
 9    2  0.3764910E-005  0.1244441E+03  0.7546771E-02  0.1238561E+00
          2   -1    0    0  502    0 -0.00000000000E+00  0.00000000000E+00  0.57787034845E+03  0.57787034845E+03  0.00000000000E+00 0. -1.
         21   -1    0    0  501  502  0.00000000000E+00 -0.00000000000E+00 -0.62518401073E+02  0.62518401073E+02  0.00000000000E+00 0. -1.
         23    2    1    2    0    0  0.66268237749E+02  0.54027047064E+02  0.21948151677E+03  0.25253449298E+03  0.91055657684E+02 0.  0.
         24    2    1    2    0    0 -0.10708320696E+03  0.42071822823E+02  0.20774110846E+03  0.25122471388E+03  0.81979492733E+02 0.  0.
        -11    1    4    4    0    0 -0.55477463114E+01 -0.20553312555E+02  0.23250774259E+02  0.31524825928E+02  0.00000000000E+00 0.  1.
         12    1    4    4    0    0 -0.10153546065E+03  0.62625135378E+02  0.18449033420E+03  0.21969988795E+03  0.00000000000E+00 0. -1.
        -13    1    3    3    0    0  0.35996995286E+02  0.48913591144E+02  0.45552295478E+02  0.75916629875E+02  0.00000000000E+00 0.  1.
         13    1    3    3    0    0  0.30271242463E+02  0.51134559200E+01  0.17392922129E+03  0.17661786311E+03  0.00000000000E+00 0. -1.
          1    1    1    2  501    0  0.40814969214E+02 -0.96098869887E+02  0.88129322153E+02  0.13662954266E+03  0.00000000000E+00 0. -1.
<scales pt_clust_5="13000.00000" pt_clust_6="13000.00000" pt_clust_7="13000.00000" pt_clust_8="13000.00000" pt_clust_9="104.40716"></scales>
<clustering>
<clus scale="   81.979">  5  6 -1 -1</clus>
<clus scale="   91.056">  7  8 -1 -1</clus>
<clus scale="  104.407">  2  9  1 -1</clus>
<clus scale="  117.965">  2  5  1 -1</clus>
<clus scale="  104.407">  2  5  1 -1</clus>
</clustering>
</event>
<event>
 9    2  0.3764910E-005  0.1015252E+03  0.7546771E-02  0.1281533E+00
          2   -1    0    0  502    0 -0.00000000000E+00  0.00000000000E+00  0.50515738726E+03  0.50515738726E+03  0.00000000000E+00 0. -1.
         21   -1    0    0  501  502  0.00000000000E+00 -0.00000000000E+00 -0.67874056456E+02  0.67874056456E+02  0.00000000000E+00 0.  1.
         23    2    1    2    0    0 -0.41235018734E+02  0.16190897054E+02  0.28514862951E+03  0.30220956688E+03  0.89768644231E+02 0.  0.
         24    2    1    2    0    0  0.79182225369E+02  0.34668315750E+02  0.14083150154E+02  0.11888478198E+03  0.80396140069E+02 0.  0.
        -13    1    4    4    0    0  0.74566677137E+02 -0.79316857853E+01  0.12373767977E+02  0.76001388886E+02  0.00000000000E+00 0.  1.
         14    1    4    4    0    0  0.46155482329E+01  0.42600001535E+02  0.17093821767E+01  0.42883393099E+02  0.00000000000E+00 0. -1.
        -13    1    3    3    0    0  0.99717285725E+01  0.36026514193E+02  0.61945762710E+02  0.72350691865E+02  0.00000000000E+00 0.  1.
         13    1    3    3    0    0 -0.51206747307E+02 -0.19835617139E+02  0.22320286680E+03  0.22985887501E+03  0.00000000000E+00 0. -1.
          1    1    1    2  501    0 -0.37947206635E+02 -0.50859212804E+02  0.13805155115E+03  0.15193709485E+03  0.00000000000E+00 0. -1.
<scales pt_clust_5="13000.00000" pt_clust_6="13000.00000" pt_clust_7="13000.00000" pt_clust_8="13000.00000" pt_clust_9="63.45592"></scales>
<clustering>
<clus scale="   63.456">  2  9  1 -1</clus>
<clus scale="   80.396">  5  6 -1 -1</clus>
<clus scale="   89.769">  7  8 -1 -1</clus>
<clus scale="   93.341">  2  5  1 -1</clus>
<clus scale="   63.456">  2  5  1 -1</clus>
</clustering>
</event>
<event>
 9    2  0.3764910E-005  0.1132423E+03  0.7546771E-02  0.1264612E+00
          4   -1    0    0  502    0 -0.00000000000E+00  0.00000000000E+00  0.15414987422E+03  0.15414987422E+03  0.00000000000E+00 0. -1.
         21   -1    0    0  501  502  0.00000000000E+00 -0.00000000000E+00 -0.11715508882E+03  0.11715508882E+03  0.00000000000E+00 0. -1.
         23    2    1    2    0    0  0.65778122838E+01  0.66582206959E+02  0.17149747341E+02  0.11775346798E+03  0.95369321533E+02 0.  0.
         24    2    1    2    0    0  0.43694544947E+02 -0.49772725659E+02 -0.91453532426E+00  0.96623220446E+02  0.70346804312E+02 0.  0.
        -11    1    4    4    0    0  0.41885196159E+02  0.98345578314E+00  0.13170140641E+02  0.43917985462E+02  0.00000000000E+00 0.  1.
         12    1    4    4    0    0  0.18093487874E+01 -0.50756181442E+02 -0.14084675966E+02  0.52705234984E+02  0.00000000000E+00 0. -1.
        -13    1    3    3    0    0  0.24681075424E+02 -0.14309166351E+02  0.19952187168E+02  0.34813754445E+02  0.00000000000E+00 0. -1.
         13    1    3    3    0    0 -0.18103263140E+02  0.80891373311E+02 -0.28024398273E+01  0.82939713536E+02  0.00000000000E+00 0.  1.
          3    1    1    2  501    0 -0.50272357230E+02 -0.16809481300E+02  0.20759573381E+02  0.56928274610E+02  0.00000000000E+00 0. -1.
<scales pt_clust_5="13000.00000" pt_clust_6="13000.00000" pt_clust_7="13000.00000" pt_clust_8="13000.00000" pt_clust_9="53.00822"></scales>
<clustering>
<clus scale="   53.008">  2  9  1 -1</clus>
<clus scale="   70.347">  5  6 -1 -1</clus>
<clus scale="   93.151">  2  5  1 -1</clus>
<clus scale="   95.369">  7  8 -1 -1</clus>
<clus scale="   53.008">  2  5  1 -1</clus>
</clustering>
</event>
<event>
 9    2  0.3764910E-005  0.1030339E+03  0.7546771E-02  0.1277615E+00
          2   -1    0    0  502    0 -0.00000000000E+00  0.00000000000E+00  0.66475125571E+03  0.66475125571E+03  0.00000000000E+00 0. -1.
         21   -1    0    0  501  502  0.00000000000E+00 -0.00000000000E+00 -0.36392264453E+02  0.36392264453E+02  0.00000000000E+00 0. -1.
         24    2    1    2    0    0  0.13657843507E+02 -0.30793555894E+02  0.23856508557E+03  0.25399024384E+03  0.80392562722E+02 0.  0.
         23    2    1    2    0    0 -0.13860677469E+02  0.73201207199E+02  0.38782764780E+03  0.40469958153E+03  0.88436032136E+02 0.  0.
        -11    1    3    3    0    0  0.42716446230E+02 -0.31064682816E+02  0.19173090418E+03  0.19887294666E+03  0.00000000000E+00 0.  1.
         12    1    3    3    0    0 -0.29058602723E+02  0.27112692205E+00  0.46834181391E+02  0.55117297182E+02  0.00000000000E+00 0. -1.
        -13    1    4    4    0    0 -0.43770945741E+02  0.65657800805E+02  0.21248617655E+03  0.22666543125E+03  0.00000000000E+00 0.  1.
         13    1    4    4    0    0  0.29910268272E+02  0.75434063945E+01  0.17534147125E+03  0.17803415028E+03  0.00000000000E+00 0. -1.
          1    1    1    2  501    0  0.20283396195E+00 -0.42407651305E+02  0.19662578862E+01  0.42453694785E+02  0.00000000000E+00 0. -1.
<scales pt_clust_5="13000.00000" pt_clust_6="13000.00000" pt_clust_7="13000.00000" pt_clust_8="13000.00000" pt_clust_9="42.40814"></scales>
<clustering>
<clus scale="   42.408">  2  9  1 -1</clus>
<clus scale="   80.393">  5  6 -1 -1</clus>
<clus scale="   88.436">  7  8 -1 -1</clus>
<clus scale="   96.219">  1  5  2 -1</clus>
<clus scale="   42.408">  2  5  1 -1</clus>
</clustering>
</event>
<event>
 9    2  0.3764910E-005  0.9828533E+02  0.7546771E-02  0.1293848E+00
         21   -1    0    0  501  502  0.00000000000E+00  0.00000000000E+00  0.18953671268E+03  0.18953671268E+03  0.00000000000E+00 0.  1.
          2   -1    0    0  502    0 -0.00000000000E+00 -0.00000000000E+00 -0.10127169279E+03  0.10127169279E+03  0.00000000000E+00 0. -1.
         24    2    1    2    0    0  0.82384122099E+01 -0.10892129485E+02 -0.44890115865E+02  0.92317063471E+02  0.79503508005E+02 0.  0.
         23    2    1    2    0    0 -0.45583208171E+02  0.18227220784E+02  0.10747625053E+03  0.15258009615E+03  0.96537458365E+02 0.  0.
        -13    1    3    3    0    0  0.78683265036E+01  0.29007270966E+02  0.27425536663E+01  0.30180356715E+02  0.00000000000E+00 0.  1.
         14    1    3    3    0    0  0.37008570627E+00 -0.39899400450E+02 -0.47632669532E+02  0.62136706756E+02  0.00000000000E+00 0. -1.
        -11    1    4    4    0    0 -0.72465266731E+02  0.29292726883E+02  0.87394074744E+02  0.11724761418E+03  0.00000000000E+00 0.  1.
         11    1    4    4    0    0  0.26882058560E+02 -0.11065506099E+02  0.20082175789E+02  0.35332481969E+02  0.00000000000E+00 0. -1.
          1    1    1    2  501    0  0.37344795961E+02 -0.73350912994E+01  0.25678885216E+02  0.45911245851E+02  0.00000000000E+00 0. -1.
<scales pt_clust_5="13000.00000" pt_clust_6="13000.00000" pt_clust_7="13000.00000" pt_clust_8="13000.00000" pt_clust_9="38.05834"></scales>
<clustering>
<clus scale="   38.058">  1  9  2 -1</clus>
<clus scale="   79.504">  5  6 -1 -1</clus>
<clus scale="   81.617">  2  5  1 -1</clus>
<clus scale="   96.537">  7  8 -1 -1</clus>
<clus scale="   38.058">  1  5  2 -1</clus>
</clustering>
</event>
<event>
 9    2  0.3764910E-005  0.1159939E+03  0.7546771E-02  0.1253175E+00
          2   -1    0    0  502    0 -0.00000000000E+00  0.00000000000E+00  0.11750593858E+03  0.11750593858E+03  0.00000000000E+00 0. -1.
         21   -1    0    0  501  502  0.00000000000E+00 -0.00000000000E+00 -0.16522026130E+03  0.16522026130E+03  0.00000000000E+00 0. -1.
         24    2    1    2    0    0  0.55477921999E+02 -0.88399045005E+01 -0.22205539649E+02  0.99440491687E+02  0.78989756646E+02 0.  0.
         23    2    1    2    0    0 -0.98923806083E+02 -0.11373788323E+02 -0.21239926347E+02  0.13517789844E+03  0.88919330206E+02 0.  0.
        -13    1    3    3    0    0  0.25229276064E+02  0.34321217904E+02 -0.94066184501E+00  0.42606891624E+02  0.00000000000E+00 0.  1.
         14    1    3    3    0    0  0.30248645935E+02 -0.43161122405E+02 -0.21264877804E+02  0.56833600063E+02  0.00000000000E+00 0. -1.
        -11    1    4    4    0    0 -0.77924492248E+02  0.30812846578E+01  0.25406481826E+02  0.82019571604E+02  0.00000000000E+00 0. -1.
         11    1    4    4    0    0 -0.20999313835E+02 -0.14455072980E+02 -0.46646408173E+02  0.53158326835E+02  0.00000000000E+00 0.  1.
          1    1    1    2  501    0  0.43445884084E+02  0.20213692823E+02 -0.42688567296E+01  0.48107809752E+02  0.00000000000E+00 0. -1.
<scales pt_clust_5="13000.00000" pt_clust_6="13000.00000" pt_clust_7="13000.00000" pt_clust_8="13000.00000" pt_clust_9="47.91806"></scales>
<clustering>
<clus scale="   47.918">  2  9  1 -1</clus>
<clus scale="   78.990">  5  6 -1 -1</clus>
<clus scale="   88.919">  7  8 -1 -1</clus>
<clus scale="  108.569">  1  5  2 -1</clus>
<clus scale="   47.918">  2  5  1 -1</clus>
</clustering>
</event>
<event>
 9    2  0.3764910E-005  0.1221760E+03  0.7546771E-02  0.1242699E+00
          2   -1    0    0  502    0 -0.00000000000E+00  0.00000000000E+00  0.24569261720E+03  0.24569261720E+03  0.00000000000E+00 0. -1.
         21   -1    0    0  501  502  0.00000000000E+00 -0.00000000000E+00 -0.49676400016E+03  0.49676400016E+03  0.00000000000E+00 0. -1.
         24    2    1    2    0    0 -0.81590542906E+02 -0.60731134711E+01  0.16544386015E+03  0.20165757748E+03  0.81241665994E+02 0.  0.
         23    2    1    2    0    0  0.58923931697E+02  0.10268354370E+03 -0.45062465242E+02  0.15631949987E+03  0.91592687446E+02 0.  0.
        -13    1    3    3    0    0  0.10461662176E+02 -0.18813996609E+02  0.22311270517E+02  0.31003316532E+02  0.00000000000E+00 0.  1.
         14    1    3    3    0    0 -0.92052205082E+02  0.12740883138E+02  0.14313258964E+03  0.17065426095E+03  0.00000000000E+00 0. -1.
        -13    1    4    4    0    0  0.71667132359E+02  0.33968133492E+02 -0.17658303279E+02  0.81251631542E+02  0.00000000000E+00 0.  1.
         13    1    4    4    0    0 -0.12743200662E+02  0.68715410203E+02 -0.27404161963E+02  0.75067868328E+02  0.00000000000E+00 0. -1.
          1    1    1    2  501    0  0.22666611208E+02 -0.96610430224E+02 -0.37145277788E+03  0.38447954001E+03  0.00000000000E+00 0. -1.
<scales pt_clust_5="13000.00000" pt_clust_6="13000.00000" pt_clust_7="13000.00000" pt_clust_8="13000.00000" pt_clust_9="99.23382"></scales>
<clustering>
<clus scale="   81.242">  5  6 -1 -1</clus>
<clus scale="   91.593">  7  8 -1 -1</clus>
<clus scale="   99.234">  2  9  1 -1</clus>
<clus scale="  114.621">  1  5  2 -1</clus>
<clus scale="   99.234">  2  5  1 -1</clus>
</clustering>
</event>
<event>
 9    2  0.3764910E-005  0.1824313E+03  0.7546771E-02  0.1188586E+00
         21   -1    0    0  501  502  0.00000000000E+00  0.00000000000E+00  0.74491433761E+03  0.74491433761E+03  0.00000000000E+00 0. -1.
          4   -1    0    0  502    0 -0.00000000000E+00 -0.00000000000E+00 -0.20507778224E+03  0.20507778224E+03  0.00000000000E+00 0. -1.
         23    2    1    2    0    0  0.54210541059E+02 -0.22107760796E+02  0.25427345964E+02  0.11115239683E+03  0.90998733774E+02 0.  0.
         24    2    1    2    0    0  0.91782488971E+02 -0.23411098943E+02 -0.12072703749E+03  0.18555266243E+03  0.10432002741E+03 0.  0.
        -13    1    4    4    0    0  0.41333973230E+02 -0.53178729801E+02 -0.22180516636E+02  0.70911564392E+02  0.00000000000E+00 0.  1.
         14    1    4    4    0    0  0.50448515741E+02  0.29767630858E+02 -0.98546520850E+02  0.11464109804E+03  0.00000000000E+00 0. -1.
        -13    1    3    3    0    0  0.62188289720E+02  0.93995701085E+01 -0.93111642024E+01  0.63580131136E+02  0.00000000000E+00 0. -1.
         13    1    3    3    0    0 -0.79777486607E+01 -0.31507330905E+02  0.34738510166E+02  0.47572265691E+02  0.00000000000E+00 0.  1.
          3    1    1    2  501    0 -0.14599303003E+03  0.45518859739E+02  0.63513624690E+03  0.65328706059E+03  0.00000000000E+00 0. -1.
<scales pt_clust_5="13000.00000" pt_clust_6="13000.00000" pt_clust_7="13000.00000" pt_clust_8="13000.00000" pt_clust_9="149.66127"></scales>
<clustering>
<clus scale="   90.999">  7  8 -1 -1</clus>
<clus scale="  104.320">  5  6 -1 -1</clus>
<clus scale="  108.205">  2  7  1 -1</clus>
<clus scale="  149.661">  1  9  2 -1</clus>
<clus scale="  149.661">  1  5  2 -1</clus>
</clustering>
</event>
<event>
 9    2  0.3764910E-005  0.9373102E+02  0.7546771E-02  0.1301086E+00
         21   -1    0    0  501  502  0.00000000000E+00  0.00000000000E+00  0.16250518678E+03  0.16250518678E+03  0.00000000000E+00 0. -1.
          2   -1    0    0  502    0 -0.00000000000E+00 -0.00000000000E+00 -0.71036897156E+02  0.71036897156E+02  0.00000000000E+00 0. -1.
         24    2    1    2    0    0  0.63386193332E+00 -0.10903120671E+02  0.23590308856E+02  0.83357610706E+02  0.79200434149E+02 0.  0.
         23    2    1    2    0    0  0.22997945163E+02  0.34915322081E+02  0.48030603817E+02  0.11108247207E+03  0.91018632705E+02 0.  0.
        -11    1    3    3    0    0  0.68534721693E+01 -0.43331233325E+02  0.20182699828E+01  0.43916275752E+02  0.00000000000E+00 0.  1.
         12    1    3    3    0    0 -0.62196102360E+01  0.32428112654E+02  0.21572038873E+02  0.39441334954E+02  0.00000000000E+00 0. -1.
        -13    1    4    4    0    0  0.16851925316E+02  0.57345506067E+02  0.60201394140E+02  0.84833379688E+02  0.00000000000E+00 0. -1.
         13    1    4    4    0    0  0.61460198479E+01 -0.22430183986E+02 -0.12170790322E+02  0.26249092378E+02  0.00000000000E+00 0.  1.
          1    1    1    2  501    0 -0.23631807097E+02 -0.24012201410E+02  0.19847376953E+02  0.39102001165E+02  0.00000000000E+00 0. -1.
<scales pt_clust_5="13000.00000" pt_clust_6="13000.00000" pt_clust_7="13000.00000" pt_clust_8="13000.00000" pt_clust_9="33.69048"></scales>
<clustering>
<clus scale="   33.690">  1  9  2 -1</clus>
<clus scale="   79.200">  5  6 -1 -1</clus>
<clus scale="   82.303">  2  5  1 -1</clus>
<clus scale="   91.019">  7  8 -1 -1</clus>
<clus scale="   33.690">  1  5  2 -1</clus>
</clustering>
</event>
<event>
 9    2  0.3764910E-005  0.9407701E+02  0.7546771E-02  0.1302467E+00
         -3   -1    0    0    0  501 -0.00000000000E+00  0.00000000000E+00  0.80688508322E+02  0.80688508322E+02  0.00000000000E+00 0.  1.
         21   -1    0    0  501  502  0.00000000000E+00 -0.00000000000E+00 -0.15948951707E+03  0.15948951707E+03  0.00000000000E+00 0.  1.
         23    2    1    2    0    0 -0.76351298540E+01 -0.13899489932E+01 -0.12593393680E+02  0.93221518402E+02  0.92040375720E+02 0.  0.
         24    2    1    2    0    0  0.39771785388E+02  0.57753259929E+01 -0.73471918965E+02  0.11371848251E+03  0.76932574932E+02 0.  0.
        -13    1    4    4    0    0 -0.14570575328E+02  0.24261510911E+02 -0.16088890490E+02  0.32554185203E+02  0.00000000000E+00 0.  1.
         14    1    4    4    0    0  0.54342360716E+02 -0.18486184918E+02 -0.57383028475E+02  0.81164297311E+02  0.00000000000E+00 0. -1.
        -11    1    3    3    0    0  0.24414996006E+02  0.34625341516E+02 -0.15015349413E+02  0.44949605371E+02  0.00000000000E+00 0.  1.
         11    1    3    3    0    0 -0.32050125860E+02 -0.36015290509E+02  0.24219557336E+01  0.48271913031E+02  0.00000000000E+00 0. -1.
         -4    1    1    2    0  502 -0.32136655534E+02 -0.43853769998E+01  0.72643038917E+01  0.33238024481E+02  0.00000000000E+00 0.  1.
<scales pt_clust_5="13000.00000" pt_clust_6="13000.00000" pt_clust_7="13000.00000" pt_clust_8="13000.00000" pt_clust_9="32.43451"></scales>
<clustering>
<clus scale="   32.435">  2  9  1 -1</clus>
<clus scale="   76.933">  5  6 -1 -1</clus>
<clus scale="   79.358">  2  5  1 -1</clus>
<clus scale="   92.040">  7  8 -1 -1</clus>
<clus scale="   32.435">  2  5  1 -1</clus>
</clustering>
</event>
<event>
 9    2  0.3764910E-005  0.9371280E+02  0.7546771E-02  0.1300298E+00
          2   -1    0    0  502    0 -0.00000000000E+00  0.00000000000E+00  0.49265317738E+03  0.49265317738E+03  0.00000000000E+00 0. -1.
         21   -1    0    0  501  502  0.00000000000E+00 -0.00000000000E+00 -0.42637314234E+02  0.42637314234E+02  0.00000000000E+00 0.  1.
         23    2    1    2    0    0  0.38399576148E+01 -0.31623553574E+02  0.10972801823E+03  0.14648524185E+03  0.91667298850E+02 0.  0.
         24    2    1    2    0    0  0.38052452417E+02 -0.40669137301E+02  0.12690633263E+03  0.15964836692E+03  0.79249075294E+02 0.  0.
        -11    1    4    4    0    0  0.15838672308E+02  0.13092490077E+02  0.56307353021E+00  0.20557088527E+02  0.00000000000E+00 0.  1.
         12    1    4    4    0    0  0.22213780108E+02 -0.53761627377E+02  0.12634325910E+03  0.13909127840E+03  0.00000000000E+00 0. -1.
        -11    1    3    3    0    0  0.27045813895E+02 -0.45793748549E+02  0.10658090867E+03  0.11911353218E+03  0.00000000000E+00 0.  1.
         11    1    3    3    0    0 -0.23205856280E+02  0.14170194975E+02  0.31471095589E+01  0.27371709664E+02  0.00000000000E+00 0. -1.
          1    1    1    2  501    0 -0.41892410032E+02  0.72292690875E+02  0.21338151228E+03  0.22915688284E+03  0.00000000000E+00 0. -1.
<scales pt_clust_5="13000.00000" pt_clust_6="13000.00000" pt_clust_7="13000.00000" pt_clust_8="13000.00000" pt_clust_9="83.55366"></scales>
<clustering>
<clus scale="   79.249">  5  6 -1 -1</clus>
<clus scale="   83.554">  2  9  1 -1</clus>
<clus scale="   83.554">  2  5  1 -1</clus>
<clus scale="   91.667">  7  8 -1 -1</clus>
<clus scale="   83.554">  2  5  1 -1</clus>
</clustering>
</event>
<event>
 9    2  0.3764910E-005  0.1129971E+03  0.7546771E-02  0.1258305E+00
         21   -1    0    0  501  502  0.00000000000E+00  0.00000000000E+00  0.24306416430E+03  0.24306416430E+03  0.00000000000E+00 0. -1.
          2   -1    0    0  502    0 -0.00000000000E+00 -0.00000000000E+00 -0.49177351085E+03  0.49177351085E+03  0.00000000000E+00 0. -1.
         23    2    1    2    0    0 -0.31028844321E+02 -0.63317840644E+02 -0.41818532176E+03  0.43366248097E+03  0.90621443071E+02 0.  0.
         24    2    1    2    0    0  0.41441676389E+02  0.37814848149E+02 -0.26943716560E+02  0.10283325455E+03  0.81861707149E+02 0.  0.
        -11    1    4    4    0    0 -0.12478299387E+01  0.48824494757E+02  0.39500189713E+01  0.48999908344E+02  0.00000000000E+00 0.  1.
         12    1    4    4    0    0  0.42689506327E+02 -0.11009646608E+02 -0.30893735532E+02  0.53833346209E+02  0.00000000000E+00 0. -1.
        -13    1    3    3    0    0 -0.33764189756E+02  0.14047167221E+02 -0.15971782131E+03  0.16385092573E+03  0.00000000000E+00 0. -1.
         13    1    3    3    0    0  0.27353454346E+01 -0.77365007865E+02 -0.25846750045E+03  0.26981155525E+03  0.00000000000E+00 0.  1.
          1    1    1    2  501    0 -0.10412832068E+02  0.25502992494E+02  0.19641969177E+03  0.19834193962E+03  0.00000000000E+00 0. -1.
<scales pt_clust_5="13000.00000" pt_clust_6="13000.00000" pt_clust_7="13000.00000" pt_clust_8="13000.00000" pt_clust_9="27.54686"></scales>
<clustering>
<clus scale="   27.547">  1  9  2 -1</clus>
<clus scale="   81.862">  5  6 -1 -1</clus>
<clus scale="   90.621">  7  8 -1 -1</clus>
<clus scale="  106.101">  1  5  2 -1</clus>
<clus scale="   27.547">  1  5  2 -1</clus>
</clustering>
</event>
<event>
 9    2  0.3764910E-005  0.1225373E+03  0.7546771E-02  0.1245827E+00
         21   -1    0    0  501  502  0.00000000000E+00  0.00000000000E+00  0.16273486185E+03  0.16273486185E+03  0.00000000000E+00 0. -1.
          2   -1    0    0  502    0 -0.00000000000E+00 -0.00000000000E+00 -0.14424426029E+03  0.14424426029E+03  0.00000000000E+00 0. -1.
         23    2    1    2    0    0  0.59904259395E+02 -0.29342646014E+02  0.26847166073E+02  0.11679695505E+03  0.92039378599E+02 0.  0.
         24    2    1    2    0    0 -0.80708783895E+02  0.56244155658E+02  0.43582074831E+02  0.12810043293E+03  0.69519859219E+02 0.  0.
        -13    1    4    4    0    0 -0.38998070856E+02  0.39745983234E+02  0.58563062271E+02  0.80809807426E+02  0.00000000000E+00 0.  1.
         14    1    4    4    0    0 -0.41710713039E+02  0.16498172424E+02 -0.14980987439E+02  0.47290625500E+02  0.00000000000E+00 0. -1.
        -11    1    3    3    0    0 -0.24049811691E+02 -0.13560875024E+02  0.11943023968E+02  0.30081997861E+02  0.00000000000E+00 0.  1.
         11    1    3    3    0    0  0.83954071087E+02 -0.15781770990E+02  0.14904142105E+02  0.86714957184E+02  0.00000000000E+00 0. -1.
          1    1    1    2  501    0  0.20804524500E+02 -0.26901509644E+02 -0.51938639341E+02  0.62081734169E+02  0.00000000000E+00 0. -1.
<scales pt_clust_5="13000.00000" pt_clust_6="13000.00000" pt_clust_7="13000.00000" pt_clust_8="13000.00000" pt_clust_9="34.00766"></scales>
<clustering>
<clus scale="   34.008">  1  9  2 -1</clus>
<clus scale="   69.520">  5  6 -1 -1</clus>
<clus scale="   92.039">  7  8 -1 -1</clus>
<clus scale="  106.664">  1  5  2 -1</clus>
<clus scale="   34.008">  1  5  2 -1</clus>
</clustering>
</event>
<event>
 9    2  0.3764910E-005  0.1213540E+03  0.7546771E-02  0.1244402E+00
         21   -1    0    0  501  502  0.00000000000E+00  0.00000000000E+00  0.18212488304E+03  0.18212488304E+03  0.00000000000E+00 0.  1.
         -3   -1    0    0    0  501 -0.00000000000E+00 -0.00000000000E+00 -0.19959517229E+03  0.19959517229E+03  0.00000000000E+00 0.  1.
         23    2    1    2    0    0  0.53442224369E+02  0.56835226741E+02 -0.59786039190E+02  0.13482619263E+03  0.92289855306E+02 0.  0.
         24    2    1    2    0    0 -0.11218424690E+03  0.24882699276E+02  0.89977585952E+01  0.14088191437E+03  0.81008025296E+02 0.  0.
        -13    1    4    4    0    0 -0.49133841702E+02 -0.11801813660E+02 -0.29384888049E+02  0.58454160260E+02  0.00000000000E+00 0.  1.
         14    1    4    4    0    0 -0.63050405193E+02  0.36684512936E+02  0.38382646644E+02  0.82427754111E+02  0.00000000000E+00 0. -1.
        -13    1    3    3    0    0  0.22205077626E+02  0.34076291260E+02  0.20629483218E+02  0.45605204486E+02  0.00000000000E+00 0.  1.
         13    1    3    3    0    0  0.31237146743E+02  0.22758935482E+02 -0.80415522408E+02  0.89220988142E+02  0.00000000000E+00 0. -1.
         -4    1    1    2    0  502  0.58742022527E+02 -0.81717926017E+02  0.33317991343E+02  0.10601194834E+03  0.00000000000E+00 0.  1.
<scales pt_clust_5="13000.00000" pt_clust_6="13000.00000" pt_clust_7="13000.00000" pt_clust_8="13000.00000" pt_clust_9="100.64017"></scales>
<clustering>
<clus scale="   81.008">  5  6 -1 -1</clus>
<clus scale="   92.290">  7  8 -1 -1</clus>
<clus scale="  100.640">  1  9  2 -1</clus>
<clus scale="  113.012">  1  5  2 -1</clus>
<clus scale="  100.640">  1  5  2 -1</clus>
</clustering>
</event>
<event>
 9    2  0.3764910E-005  0.9363456E+02  0.7546771E-02  0.1299638E+00
         21   -1    0    0  501  502  0.00000000000E+00  0.00000000000E+00  0.35283117548E+02  0.35283117548E+02  0.00000000000E+00 0.  1.
          2   -1    0    0  502    0 -0.00000000000E+00 -0.00000000000E+00 -0.74834786309E+03  0.74834786309E+03  0.00000000000E+00 0. -1.
         23    2    1    2    0    0  0.11931015030E+02 -0.19947511878E+02 -0.24860347629E+03  0.26553582130E+03  0.90362224506E+02 0.  0.
         24    2    1    2    0    0  0.41158318068E+02  0.37798932384E+02 -0.72964364853E+02  0.12261194016E+03  0.81161092252E+02 0.  0.
        -11    1    4    4    0    0  0.64888397908E+01  0.32009869565E+02  0.86187682562E+01  0.33778986925E+02  0.00000000000E+00 0.  1.
         12    1    4    4    0    0  0.34669478277E+02  0.57890628184E+01 -0.81583133109E+02  0.88832953234E+02  0.00000000000E+00 0. -1.
        -13    1    3    3    0    0 -0.10325792094E+02 -0.52700922619E+02 -0.14252803715E+03  0.15230971932E+03  0.00000000000E+00 0. -1.
         13    1    3    3    0    0  0.22256807124E+02  0.32753410741E+02 -0.10607543915E+03  0.11322610198E+03  0.00000000000E+00 0.  1.
          1    1    1    2  501    0 -0.53089333097E+02 -0.17851420506E+02 -0.39149690439E+03  0.39548321918E+03  0.00000000000E+00 0. -1.
<scales pt_clust_5="13000.00000" pt_clust_6="13000.00000" pt_clust_7="13000.00000" pt_clust_8="13000.00000" pt_clust_9="56.01030"></scales>
<clustering>
<clus scale="   56.010">  1  9  2 -1</clus>
<clus scale="   81.161">  5  6 -1 -1</clus>
<clus scale="   84.789">  1  5  2 -1</clus>
<clus scale="   90.362">  7  8 -1 -1</clus>
<clus scale="   56.010">  1  5  2 -1</clus>
</clustering>
</event>
<event>
 9    2  0.3764910E-005  0.2030709E+03  0.7546771E-02  0.1166606E+00
         21   -1    0    0  501  502  0.00000000000E+00  0.00000000000E+00  0.13171188505E+03  0.13171188505E+03  0.00000000000E+00 0.  1.
         -1   -1    0    0    0  501 -0.00000000000E+00 -0.00000000000E+00 -0.62168109868E+03  0.62168109868E+03  0.00000000000E+00 0.  1.
         23    2    1    2    0    0 -0.57633299472E+02  0.69498005945E+02 -0.24617372118E+03  0.27785773812E+03  0.91933952373E+02 0.  0.
         24    2    1    2    0    0 -0.72144140231E+02 -0.18608078892E+03 -0.66623541321E+02  0.22689166654E+03  0.84913456600E+02 0.  0.
        -11    1    4    4    0    0 -0.17286005853E+02 -0.11093583825E+03  0.31532576338E+00  0.11227495552E+03  0.00000000000E+00 0.  1.
         12    1    4    4    0    0 -0.54858134378E+02 -0.75144950676E+02 -0.66938867085E+02  0.11461671102E+03  0.00000000000E+00 0. -1.
        -13    1    3    3    0    0 -0.77394075734E+02  0.73196934918E+02 -0.22328187512E+03  0.24739124883E+03  0.00000000000E+00 0.  1.
         13    1    3    3    0    0  0.19760776262E+02 -0.36989289726E+01 -0.22891846050E+02  0.30466489289E+02  0.00000000000E+00 0. -1.
         -2    1    1    2    0  502  0.12977743970E+03  0.11658278298E+03 -0.17717195114E+03  0.24864357907E+03  0.00000000000E+00 0.  1.
<scales pt_clust_5="13000.00000" pt_clust_6="13000.00000" pt_clust_7="13000.00000" pt_clust_8="13000.00000" pt_clust_9="184.46551"></scales>
<clustering>
<clus scale="   84.913">  5  6 -1 -1</clus>
<clus scale="   91.934">  7  8 -1 -1</clus>
<clus scale="  128.854">  2  7  1 -1</clus>
<clus scale="  184.466">  1  9  2 -1</clus>
<clus scale="  184.466">  1  5  2 -1</clus>
</clustering>
</event>
<event>
 9    2  0.3764910E-005  0.1462125E+03  0.7546771E-02  0.1226357E+00
         21   -1    0    0  501  502  0.00000000000E+00  0.00000000000E+00  0.11220847935E+03  0.11220847935E+03  0.00000000000E+00 0.  1.
          2   -1    0    0  502    0 -0.00000000000E+00 -0.00000000000E+00 -0.49181991137E+03  0.49181991137E+03  0.00000000000E+00 0. -1.
         24    2    1    2    0    0  0.36286188873E+02  0.17598145463E+02  0.46856422654E+02  0.10456690903E+03  0.84334642306E+02 0.  0.
         23    2    1    2    0    0  0.40121756785E+02  0.83041416753E+02 -0.23087886858E+03  0.26660627535E+03  0.96271604511E+02 0.  0.
        -13    1    3    3    0    0  0.24721291099E+02  0.10387153207E+02  0.71523677590E+02  0.76385022363E+02  0.00000000000E+00 0.  1.
         14    1    3    3    0    0  0.11564897773E+02  0.72109922563E+01 -0.24667254937E+02  0.28181886664E+02  0.00000000000E+00 0. -1.
        -13    1    4    4    0    0  0.15834735230E+01 -0.21134642687E+02 -0.25898372926E+02  0.33465000077E+02  0.00000000000E+00 0.  1.
         13    1    4    4    0    0  0.38538283262E+02  0.10417605944E+03 -0.20498049565E+03  0.23314127527E+03  0.00000000000E+00 0. -1.
          1    1    1    2  501    0 -0.76407945658E+02 -0.10063956222E+03 -0.19558898609E+03  0.23285520635E+03  0.00000000000E+00 0. -1.
<scales pt_clust_5="13000.00000" pt_clust_6="13000.00000" pt_clust_7="13000.00000" pt_clust_8="13000.00000" pt_clust_9="110.04498"></scales>
<clustering>
<clus scale="   84.335">  5  6 -1 -1</clus>
<clus scale="   93.481">  2  5  1 -1</clus>
<clus scale="   96.272">  7  8 -1 -1</clus>
<clus scale="  110.045">  1  9  2 -1</clus>
<clus scale="  110.045">  1  5  2 -1</clus>
</clustering>
</event>
<event>
 9    2  0.3764910E-005  0.9702359E+02  0.7546771E-02  0.1299870E+00
         -1   -1    0    0    0  501 -0.00000000000E+00  0.00000000000E+00  0.29317044001E+03  0.29317044001E+03  0.00000000000E+00 0.  1.
         21   -1    0    0  501  502  0.00000000000E+00 -0.00000000000E+00 -0.10108300469E+03  0.10108300469E+03  0.00000000000E+00 0.  1.
         23    2    1    2    0    0 -0.15747618889E+02  0.22544062880E+01  0.19837264550E+03  0.22022818934E+03  0.94316907545E+02 0.  0.
         24    2    1    2    0    0  0.15557299457E+02 -0.53757173842E+02  0.44452527037E+02  0.10172802675E+03  0.72392685822E+02 0.  0.
        -13    1    4    4    0    0 -0.17362359150E+02 -0.55466537645E+02  0.32973959398E+02  0.66822678127E+02  0.00000000000E+00 0.  1.
         14    1    4    4    0    0  0.32919658608E+02  0.17093638037E+01  0.11478567639E+02  0.34905348623E+02  0.00000000000E+00 0. -1.
        -11    1    3    3    0    0 -0.37645343583E+02 -0.35444908653E+02  0.98247299771E+02  0.11102272450E+03  0.00000000000E+00 0.  1.
         11    1    3    3    0    0  0.21897724693E+02  0.37699314941E+02  0.10012534573E+03  0.10920546484E+03  0.00000000000E+00 0. -1.
         -2    1    1    2    0  502  0.19031943181E+00  0.51502767554E+02 -0.50737737220E+02  0.72297228615E+02  0.00000000000E+00 0.  1.
<scales pt_clust_5="13000.00000" pt_clust_6="13000.00000" pt_clust_7="13000.00000" pt_clust_8="13000.00000" pt_clust_9="51.50312"></scales>
<clustering>
<clus scale="   51.503">  2  9  1 -1</clus>
<clus scale="   72.393">  5  6 -1 -1</clus>
<clus scale="   75.885">  2  5  1 -1</clus>
<clus scale="   94.317">  7  8 -1 -1</clus>
<clus scale="   51.503">  2  5  1 -1</clus>
</clustering>
</event>
<event>
 9    2  0.3764910E-005  0.1192466E+03  0.7546771E-02  0.1246796E+00
         21   -1    0    0  501  502  0.00000000000E+00  0.00000000000E+00  0.31487346946E+03  0.31487346946E+03  0.00000000000E+00 0.  1.
          2   -1    0    0  502    0 -0.00000000000E+00 -0.00000000000E+00 -0.14580112778E+03  0.14580112778E+03  0.00000000000E+00 0. -1.
         24    2    1    2    0    0  0.66545288872E+02 -0.52747172729E+02 -0.93022713291E+02  0.15019073488E+03  0.81813763842E+02 0.  0.
         23    2    1    2    0    0 -0.56195944822E+02 -0.60899542085E+01  0.15295644958E+03  0.18606460495E+03  0.89606305538E+02 0.  0.
        -11    1    3    3    0    0  0.34572260886E+02  0.12978796691E+02 -0.74851034658E+01  0.37679134281E+02  0.00000000000E+00 0.  1.
         12    1    3    3    0    0  0.31973027986E+02 -0.65725969419E+02 -0.85537609825E+02  0.11251160060E+03  0.00000000000E+00 0. -1.
        -13    1    4    4    0    0 -0.72741810066E+02  0.19495577015E+02  0.11352144898E+03  0.13622983459E+03  0.00000000000E+00 0.  1.
         13    1    4    4    0    0  0.16545865243E+02 -0.25585531223E+02  0.39435000594E+02  0.49834770357E+02  0.00000000000E+00 0. -1.
          1    1    1    2  501    0 -0.10349344049E+02  0.58837126937E+02  0.10913860539E+03  0.12441925741E+03  0.00000000000E+00 0. -1.
<scales pt_clust_5="13000.00000" pt_clust_6="13000.00000" pt_clust_7="13000.00000" pt_clust_8="13000.00000" pt_clust_9="59.74041"></scales>
<clustering>
<clus scale="   59.740">  1  9  2 -1</clus>
<clus scale="   81.814">  5  6 -1 -1</clus>
<clus scale="   89.606">  7  8 -1 -1</clus>
<clus scale="  113.508">  2  5  1 -1</clus>
<clus scale="   59.740">  1  5  2 -1</clus>
</clustering>
</event>
<event>
 9    2  0.3764910E-005  0.3460395E+03  0.7546771E-02  0.1110876E+00
          4   -1    0    0  502    0 -0.00000000000E+00  0.00000000000E+00  0.79088208234E+03  0.79088208234E+03  0.00000000000E+00 0. -1.
         21   -1    0    0  501  502  0.00000000000E+00 -0.00000000000E+00 -0.26144975852E+03  0.26144975852E+03  0.00000000000E+00 0. -1.
         23    2    1    2    0    0  0.17295044153E+02  0.36611035647E+02  0.98190885367E+01  0.10074520663E+03  0.91726199511E+02 0.  0.
         24    2    1    2    0    0 -0.33154824446E+03  0.70078136011E+02  0.16083778951E+02  0.34852812410E+03  0.79862267636E+02 0.  0.
        -11    1    4    4    0    0 -0.18885258700E+03  0.76087199421E+02  0.26526874809E+02  0.20532471020E+03  0.00000000000E+00 0.  1.
         12    1    4    4    0    0 -0.14269565746E+03 -0.60090634103E+01 -0.10443095859E+02  0.14320341389E+03  0.00000000000E+00 0. -1.
        -11    1    3    3    0    0 -0.32607348548E+02  0.19445523354E+02  0.25450509806E+02  0.45706629795E+02  0.00000000000E+00 0.  1.
         11    1    3    3    0    0  0.49902392701E+02  0.17165512293E+02 -0.15631421270E+02  0.55038576839E+02  0.00000000000E+00 0. -1.
          3    1    1    2  501    0  0.31425320030E+03 -0.10668917166E+03  0.50352945633E+03  0.60305851013E+03  0.00000000000E+00 0. -1.
<scales pt_clust_5="13000.00000" pt_clust_6="13000.00000" pt_clust_7="13000.00000" pt_clust_8="13000.00000" pt_clust_9="336.69790"></scales>
<clustering>
<clus scale="   79.862">  5  6 -1 -1</clus>
<clus scale="   91.726">  7  8 -1 -1</clus>
<clus scale="  100.266">  1  7  2 -1</clus>
<clus scale="  336.698">  2  9  1 -1</clus>
<clus scale="  336.698">  2  5  1 -1</clus>
</clustering>
</event>
<event>
 9    2  0.3764910E-005  0.1000480E+03  0.7546771E-02  0.1289760E+00
          2   -1    0    0  502    0 -0.00000000000E+00  0.00000000000E+00  0.13272359931E+03  0.13272359931E+03  0.00000000000E+00 0. -1.
         21   -1    0    0  501  502  0.00000000000E+00 -0.00000000000E+00 -0.23619010973E+03  0.23619010973E+03  0.00000000000E+00 0.  1.
         23    2    1    2    0    0 -0.16593231151E+01 -0.35387555685E+02  0.67459385088E+02  0.10759879403E+03  0.75971701244E+02 0.  0.
         24    2    1    2    0    0  0.39612661782E+02  0.23486256335E+02 -0.19026356804E+03  0.21708774665E+03  0.93840807815E+02 0.  0.
        -11    1    4    4    0    0  0.49262031787E+02  0.12500807005E+02 -0.19515918834E+03  0.20166835831E+03  0.00000000000E+00 0.  1.
         12    1    4    4    0    0 -0.96493700046E+01  0.10985449330E+02  0.48956203005E+01  0.15419388334E+02  0.00000000000E+00 0. -1.
        -11    1    3    3    0    0  0.30391472556E+02 -0.37003149066E+02  0.55621273510E+02  0.73393465048E+02  0.00000000000E+00 0. -1.
         11    1    3    3    0    0 -0.32050795671E+02  0.16155933811E+01  0.11838111578E+02  0.34205328983E+02  0.00000000000E+00 0.  1.
          1    1    1    2  501    0 -0.37953338667E+02  0.11901299349E+02  0.19337672536E+02  0.44227168362E+02  0.00000000000E+00 0. -1.
<scales pt_clust_5="13000.00000" pt_clust_6="13000.00000" pt_clust_7="13000.00000" pt_clust_8="13000.00000" pt_clust_9="39.77560"></scales>
<clustering>
<clus scale="   39.776">  2  9  1 -1</clus>
<clus scale="   75.972">  7  8 -1 -1</clus>
<clus scale="   83.518">  1  7  2 -1</clus>
<clus scale="   93.841">  5  6 -1 -1</clus>
<clus scale="   39.776">  2  5  1 -1</clus>
</clustering>
</event>
<event>
 9    2  0.3764910E-005  0.1069826E+03  0.7546771E-02  0.1276831E+00
          2   -1    0    0  502    0 -0.00000000000E+00  0.00000000000E+00  0.49584457015E+03  0.49584457015E+03  0.00000000000E+00 0. -1.
         21   -1    0    0  501  502  0.00000000000E+00 -0.00000000000E+00 -0.53815167246E+02  0.53815167246E+02  0.00000000000E+00 0. -1.
         24    2    1    2    0    0  0.34581016239E+02  0.84776409604E+01  0.30648393918E+03  0.31866135492E+03  0.79655113259E+02 0.  0.
         23    2    1    2    0    0  0.16718458144E+02  0.62627870550E+02  0.79337589744E+02  0.12684966699E+03  0.74797244974E+02 0.  0.
        -11    1    3    3    0    0  0.10714618417E+02 -0.35321616956E+02  0.11442838715E+03  0.12023425243E+03  0.00000000000E+00 0.  1.
         12    1    3    3    0    0  0.23866397823E+02  0.43799257916E+02  0.19205555203E+03  0.19842710249E+03  0.00000000000E+00 0. -1.
        -13    1    4    4    0    0  0.31358387642E+02  0.24160281543E+02  0.24785922221E+01  0.39663725231E+02  0.00000000000E+00 0. -1.
         13    1    4    4    0    0 -0.14639929498E+02  0.38467589007E+02  0.76858997522E+02  0.87185941755E+02  0.00000000000E+00 0.  1.
          1    1    1    2  501    0 -0.51299474383E+02 -0.71105511511E+02  0.56207873979E+02  0.10414871548E+03  0.00000000000E+00 0. -1.
<scales pt_clust_5="13000.00000" pt_clust_6="13000.00000" pt_clust_7="13000.00000" pt_clust_8="13000.00000" pt_clust_9="76.48956"></scales>
<clustering>
<clus scale="   74.797">  7  8 -1 -1</clus>
<clus scale="   79.655">  5  6 -1 -1</clus>
<clus scale="   87.251">  1  5  2 -1</clus>
<clus scale="   76.490">  2  9  1 -1</clus>
<clus scale="   76.490">  2  5  1 -1</clus>
</clustering>
</event>
<event>
 9    2  0.3764910E-005  0.8140397E+02  0.7546771E-02  0.1328095E+00
         21   -1    0    0  501  502  0.00000000000E+00  0.00000000000E+00  0.13459478681E+03  0.13459478681E+03  0.00000000000E+00 0. -1.
         -3   -1    0    0    0  501 -0.00000000000E+00 -0.00000000000E+00 -0.11223138192E+03  0.11223138192E+03  0.00000000000E+00 0.  1.
         24    2    1    2    0    0 -0.14758372699E+02 -0.97584000504E+01 -0.67587712223E+02  0.10656525263E+03  0.80467498338E+02 0.  0.
         23    2    1    2    0    0 -0.20637672252E+01 -0.13343684076E+02  0.54278140811E+02  0.94552580736E+02  0.76234906139E+02 0.  0.
        -11    1    3    3    0    0  0.22644537231E+02  0.14798747449E+02 -0.19420293304E+01  0.27121015290E+02  0.00000000000E+00 0.  1.
         12    1    3    3    0    0 -0.37402909930E+02 -0.24557147499E+02 -0.65645682892E+02  0.79444237342E+02  0.00000000000E+00 0. -1.
        -13    1    4    4    0    0  0.29183944085E+02  0.14003316605E+02  0.10067801776E+02  0.33899205018E+02  0.00000000000E+00 0.  1.
         13    1    4    4    0    0 -0.31247711310E+02 -0.27347000681E+02  0.44210339035E+02  0.60653375717E+02  0.00000000000E+00 0. -1.
         -4    1    1    2    0  502  0.16822139924E+02  0.23102084126E+02  0.35672976302E+02  0.45708335354E+02  0.00000000000E+00 0.  1.
<scales pt_clust_5="13000.00000" pt_clust_6="13000.00000" pt_clust_7="13000.00000" pt_clust_8="13000.00000" pt_clust_9="28.57780"></scales>
<clustering>
<clus scale="   28.578">  1  9  2 -1</clus>
<clus scale="   76.235">  7  8 -1 -1</clus>
<clus scale="   77.223">  1  7  2 -1</clus>
<clus scale="   80.467">  5  6 -1 -1</clus>
<clus scale="   28.578">  1  5  2 -1</clus>
</clustering>
</event>
<event>
 9    2  0.3764910E-005  0.1426015E+03  0.7546771E-02  0.1235886E+00
         21   -1    0    0  501  502  0.00000000000E+00  0.00000000000E+00  0.24731133780E+03  0.24731133780E+03  0.00000000000E+00 0.  1.
         -3   -1    0    0    0  501 -0.00000000000E+00 -0.00000000000E+00 -0.15993258571E+03  0.15993258571E+03  0.00000000000E+00 0.  1.
         24    2    1    2    0    0 -0.91528937330E+01 -0.41857530533E+01 -0.19873985672E+02  0.85147543227E+02  0.82181706108E+02 0.  0.
         23    2    1    2    0    0  0.25409936437E+02  0.10882612812E+03  0.15005134121E+03  0.20787895609E+03  0.90606094452E+02 0.  0.
        -13    1    3    3    0    0 -0.31433377439E+02  0.28967495877E+02 -0.12423345622E+02  0.44514183706E+02  0.00000000000E+00 0.  1.
         14    1    3    3    0    0  0.22280483706E+02 -0.33153248930E+02 -0.74506400509E+01  0.40633359521E+02  0.00000000000E+00 0. -1.
        -11    1    4    4    0    0  0.34871873946E+02  0.40190336402E+02  0.13717447520E+02  0.54949787071E+02  0.00000000000E+00 0. -1.
         11    1    4    4    0    0 -0.94619375093E+01  0.68635791722E+02  0.13633389369E+03  0.15292916902E+03  0.00000000000E+00 0.  1.
         -4    1    1    2    0  502 -0.16257042704E+02 -0.10464037507E+03 -0.42798603456E+02  0.11421742420E+03  0.00000000000E+00 0.  1.
<scales pt_clust_5="13000.00000" pt_clust_6="13000.00000" pt_clust_7="13000.00000" pt_clust_8="13000.00000" pt_clust_9="110.11687"></scales>
<clustering>
<clus scale="   82.182">  5  6 -1 -1</clus>
<clus scale="   82.796">  2  5  1 -1</clus>
<clus scale="   90.606">  7  8 -1 -1</clus>
<clus scale="  110.117">  1  9  2 -1</clus>
<clus scale="  110.117">  1  5  2 -1</clus>
</clustering>
</event>
<event>
 9    2  0.3764910E-005  0.1144082E+03  0.7546771E-02  0.1255905E+00
         21   -1    0    0  501  502  0.00000000000E+00  0.00000000000E+00  0.26307891143E+03  0.26307891143E+03  0.00000000000E+00 0.  1.
         -3   -1    0    0    0  501 -0.00000000000E+00 -0.00000000000E+00 -0.11931929588E+03  0.11931929588E+03  0.00000000000E+00 0.  1.
         24    2    1    2    0    0  0.52027889673E+02 -0.39872689140E+02 -0.23718164816E+02  0.10707953570E+03  0.81281873626E+02 0.  0.
         23    2    1    2    0    0 -0.47554986123E+02  0.62432383006E+02  0.14630691054E+02  0.12075095388E+03  0.90595014154E+02 0.  0.
        -13    1    3    3    0    0  0.56630395832E+02 -0.38301838945E+02 -0.47214142109E+02  0.83085545155E+02  0.00000000000E+00 0.  1.
         14    1    3    3    0    0 -0.46025061584E+01 -0.15708501945E+01  0.23495977293E+02  0.23993990544E+02  0.00000000000E+00 0. -1.
        -11    1    4    4    0    0 -0.14403562554E+02  0.78299165078E+02 -0.36625566965E+01  0.79697152946E+02  0.00000000000E+00 0.  1.
         11    1    4    4    0    0 -0.33151423569E+02 -0.15866782072E+02  0.18293247751E+02  0.41053800935E+02  0.00000000000E+00 0. -1.
         -4    1    1    2    0  502 -0.44729035506E+01 -0.22559693867E+02  0.15284708931E+03  0.15456771773E+03  0.00000000000E+00 0.  1.
<scales pt_clust_5="13000.00000" pt_clust_6="13000.00000" pt_clust_7="13000.00000" pt_clust_8="13000.00000" pt_clust_9="22.99884"></scales>
<clustering>
<clus scale="   22.999">  1  9  2 -1</clus>
<clus scale="   81.282">  5  6 -1 -1</clus>
<clus scale="   90.595">  7  8 -1 -1</clus>
<clus scale="  107.185">  2  5  1 -1</clus>
<clus scale="   22.999">  1  5  2 -1</clus>
</clustering>
</event>
<event>
 9    2  0.3764910E-005  0.9342850E+02  0.7546771E-02  0.1300408E+00
         -3   -1    0    0    0  501 -0.00000000000E+00  0.00000000000E+00  0.37324928600E+03  0.37324928600E+03  0.00000000000E+00 0.  1.
         21   -1    0    0  501  502  0.00000000000E+00 -0.00000000000E+00 -0.94496439555E+02  0.94496439555E+02  0.00000000000E+00 0. -1.
         23    2    1    2    0    0 -0.22940446583E+02 -0.53792144980E+01  0.32410560182E+03  0.33730568981E+03  0.90418400841E+02 0.  0.
         24    2    1    2    0    0  0.26323276860E+02 -0.15571853062E+02 -0.70818571842E+01  0.86678723826E+02  0.80793879412E+02 0.  0.
        -11    1    4    4    0    0 -0.33016764450E+01 -0.28974434422E+02  0.26880310549E+02  0.39660685983E+02  0.00000000000E+00 0.  1.
         12    1    4    4    0    0  0.29624953305E+02  0.13402581360E+02 -0.33962167734E+02  0.47018037843E+02  0.00000000000E+00 0. -1.
        -11    1    3    3    0    0 -0.57221910550E+02 -0.91441581125E+01  0.17845309608E+03  0.18762587822E+03  0.00000000000E+00 0.  1.
         11    1    3    3    0    0  0.34281463967E+02  0.37649436145E+01  0.14565250574E+03  0.14967981160E+03  0.00000000000E+00 0. -1.
         -4    1    1    2    0  502 -0.33828302769E+01  0.20951067560E+02 -0.38270898190E+02  0.43761311918E+02  0.00000000000E+00 0.  1.
<scales pt_clust_5="13000.00000" pt_clust_6="13000.00000" pt_clust_7="13000.00000" pt_clust_8="13000.00000" pt_clust_9="21.22241"></scales>
<clustering>
<clus scale="   21.222">  2  9  1 -1</clus>
<clus scale="   80.794">  5  6 -1 -1</clus>
<clus scale="   84.149">  2  5  1 -1</clus>
<clus scale="   90.418">  7  8 -1 -1</clus>
<clus scale="   21.222">  2  5  1 -1</clus>
</clustering>
</event>
<event>
 9    2  0.3764910E-005  0.1186130E+03  0.7546771E-02  0.1256467E+00
         21   -1    0    0  501  502  0.00000000000E+00  0.00000000000E+00  0.35173502542E+02  0.35173502542E+02  0.00000000000E+00 0. -1.
          2   -1    0    0  502    0 -0.00000000000E+00 -0.00000000000E+00 -0.98835860319E+03  0.98835860319E+03  0.00000000000E+00 0. -1.
         24    2    1    2    0    0 -0.54426936290E+02 -0.28180448340E+02 -0.62507362705E+03  0.63294628872E+03  0.78406224884E+02 0.  0.
         23    2    1    2    0    0  0.24897702356E+02  0.30279529995E+02 -0.34036725971E+03  0.35854543478E+03  0.10567976058E+03 0.  0.
        -13    1    3    3    0    0 -0.27763859188E+02  0.92828695724E+01 -0.68720188784E+02  0.74695835835E+02  0.00000000000E+00 0.  1.
         14    1    3    3    0    0 -0.26663077102E+02 -0.37463317913E+02 -0.55635343827E+03  0.55825045288E+03  0.00000000000E+00 0. -1.
        -13    1    4    4    0    0  0.41857681649E+02  0.62821046940E+02 -0.24480664671E+03  0.25618127122E+03  0.00000000000E+00 0.  1.
         13    1    4    4    0    0 -0.16959979293E+02 -0.32541516945E+02 -0.95560613001E+02  0.10236416355E+03  0.00000000000E+00 0. -1.
          1    1    1    2  501    0  0.29529233933E+02 -0.20990816542E+01  0.12255786120E+02  0.32040382237E+02  0.00000000000E+00 0. -1.
<scales pt_clust_5="13000.00000" pt_clust_6="13000.00000" pt_clust_7="13000.00000" pt_clust_8="13000.00000" pt_clust_9="29.60375"></scales>
<clustering>
<clus scale="   29.604">  1  9  2 -1</clus>
<clus scale="   78.406">  5  6 -1 -1</clus>
<clus scale="   95.123">  2  5  1 -1</clus>
<clus scale="  105.680">  7  8 -1 -1</clus>
<clus scale="   29.604">  1  5  2 -1</clus>
</clustering>
</event>
<event>
 9    2  0.3764910E-005  0.8522734E+02  0.7546771E-02  0.1319498E+00
         21   -1    0    0  501  502  0.00000000000E+00  0.00000000000E+00  0.45506415183E+02  0.45506415183E+02  0.00000000000E+00 0. -1.
         -1   -1    0    0    0  501 -0.00000000000E+00 -0.00000000000E+00 -0.24704052203E+03  0.24704052203E+03  0.00000000000E+00 0.  1.
         23    2    1    2    0    0  0.80523091613E+01  0.15320357706E+02 -0.10811489301E+03  0.13252797901E+03  0.74667811582E+02 0.  0.
         24    2    1    2    0    0 -0.42495772723E+02 -0.63232723372E+01 -0.79124577802E+02  0.12165704549E+03  0.81816034086E+02 0.  0.
        -13    1    4    4    0    0  0.44928009320E+01 -0.25202869032E+02 -0.63807796783E+02  0.68751762145E+02  0.00000000000E+00 0.  1.
         14    1    4    4    0    0 -0.46988573655E+02  0.18879596695E+02 -0.15316781019E+02  0.52905283349E+02  0.00000000000E+00 0. -1.
        -13    1    3    3    0    0  0.35023026902E+02  0.29844286356E+02 -0.65179286288E+02  0.79784918390E+02  0.00000000000E+00 0.  1.
         13    1    3    3    0    0 -0.26970717740E+02 -0.14523928650E+02 -0.42935606721E+02  0.52743060618E+02  0.00000000000E+00 0. -1.
         -2    1    1    2    0  502  0.34443463562E+02 -0.89970853692E+01 -0.14294636031E+02  0.38361912707E+02  0.00000000000E+00 0.  1.
<scales pt_clust_5="13000.00000" pt_clust_6="13000.00000" pt_clust_7="13000.00000" pt_clust_8="13000.00000" pt_clust_9="35.59915"></scales>
<clustering>
<clus scale="   35.599">  1  9  2 -1</clus>
<clus scale="   74.668">  7  8 -1 -1</clus>
<clus scale="   78.391">  2  7  1 -1</clus>
<clus scale="   81.816">  5  6 -1 -1</clus>
<clus scale="   35.599">  1  5  2 -1</clus>
</clustering>
</event>
<event>
 9    2  0.3764910E-005  0.9618001E+02  0.7546771E-02  0.1294287E+00
         21   -1    0    0  501  502  0.00000000000E+00  0.00000000000E+00  0.66292617803E+03  0.66292617803E+03  0.00000000000E+00 0. -1.
          2   -1    0    0  502    0 -0.00000000000E+00 -0.00000000000E+00 -0.27019223868E+02  0.27019223868E+02  0.00000000000E+00 0. -1.
         24    2    1    2    0    0  0.29341644838E+02 -0.73220082726E+01  0.88615020930E+02  0.12343996683E+03  0.80437923571E+02 0.  0.
         23    2    1    2    0    0 -0.40522055641E+02 -0.30896172077E+02  0.43691057967E+03  0.44916118038E+03  0.90875194039E+02 0.  0.
        -13    1    3    3    0    0 -0.85736651079E+01  0.25548701748E+02  0.73546749643E+01  0.27934479380E+02  0.00000000000E+00 0.  1.
         14    1    3    3    0    0  0.37915309946E+02 -0.32870710021E+02  0.81260345966E+02  0.95505487445E+02  0.00000000000E+00 0. -1.
        -13    1    4    4    0    0 -0.68808022957E+02 -0.29298920573E+02  0.28612879249E+03  0.29574086066E+03  0.00000000000E+00 0. -1.
         13    1    4    4    0    0  0.28285967315E+02 -0.15972515035E+01  0.15078178718E+03  0.15342031972E+03  0.00000000000E+00 0.  1.
          1    1    1    2  501    0  0.11180410803E+02  0.38218180349E+02  0.11038135356E+03  0.11734425469E+03  0.00000000000E+00 0. -1.
<scales pt_clust_5="13000.00000" pt_clust_6="13000.00000" pt_clust_7="13000.00000" pt_clust_8="13000.00000" pt_clust_9="39.81998"></scales>
<clustering>
<clus scale="   39.820">  1  9  2 -1</clus>
<clus scale="   80.438">  5  6 -1 -1</clus>
<clus scale="   86.386">  2  5  1 -1</clus>
<clus scale="   90.875">  7  8 -1 -1</clus>
<clus scale="   39.820">  1  5  2 -1</clus>
</clustering>
</event>
<event>
 9    2  0.3764910E-005  0.2130274E+03  0.7546771E-02  0.1162834E+00
          2   -1    0    0  502    0 -0.00000000000E+00  0.00000000000E+00  0.10484806346E+04  0.10484806346E+04  0.00000000000E+00 0. -1.
         21   -1    0    0  501  502  0.00000000000E+00 -0.00000000000E+00 -0.13592609384E+03  0.13592609384E+03  0.00000000000E+00 0. -1.
         24    2    1    2    0    0  0.91814567336E+02 -0.38960703198E+01  0.62873231227E+03  0.64041653401E+03  0.79899451833E+02 0.  0.
         23    2    1    2    0    0  0.11141689325E+03  0.70589126776E+02  0.28833277416E+03  0.33004782980E+03  0.91647326097E+02 0.  0.
        -13    1    3    3    0    0  0.35372034655E+02  0.21761034435E+02  0.10324958129E+03  0.11128881117E+03  0.00000000000E+00 0.  1.
         14    1    3    3    0    0  0.56442532681E+02 -0.25657104755E+02  0.52548273098E+03  0.52912772284E+03  0.00000000000E+00 0. -1.
        -11    1    4    4    0    0  0.14434033419E+02 -0.21117631144E+02  0.65226931908E+02  0.70063173722E+02  0.00000000000E+00 0.  1.
         11    1    4    4    0    0  0.96982859835E+02  0.91706757920E+02  0.22310584225E+03  0.25998465608E+03  0.00000000000E+00 0. -1.
          1    1    1    2  501    0 -0.20323146059E+03 -0.66693056457E+02 -0.45105456853E+01  0.21394236461E+03  0.00000000000E+00 0. -1.
<scales pt_clust_5="13000.00000" pt_clust_6="13000.00000" pt_clust_7="13000.00000" pt_clust_8="13000.00000" pt_clust_9="192.30563"></scales>
<clustering>
<clus scale="   79.899">  5  6 -1 -1</clus>
<clus scale="   91.647">  7  8 -1 -1</clus>
<clus scale="  121.774">  1  5  2 -1</clus>
<clus scale="  192.306">  2  9  1 -1</clus>
<clus scale="  192.306">  2  5  1 -1</clus>
</clustering>
</event>
<event>
 9    2  0.3764910E-005  0.1143627E+03  0.7546771E-02  0.1260121E+00
         21   -1    0    0  501  502  0.00000000000E+00  0.00000000000E+00  0.66444266838E+02  0.66444266838E+02  0.00000000000E+00 0. -1.
         -1   -1    0    0    0  501 -0.00000000000E+00 -0.00000000000E+00 -0.30508469883E+03  0.30508469883E+03  0.00000000000E+00 0.  1.
         23    2    1    2    0    0  0.10806883227E+02 -0.73305962589E+02 -0.18323266495E+03  0.22157888904E+03  0.10016207710E+03 0.  0.
         24    2    1    2    0    0 -0.19231368533E+02  0.27024175921E+02 -0.52602641996E+02  0.10282424022E+03  0.81887940584E+02 0.  0.
        -13    1    4    4    0    0  0.26323413172E+02  0.15376208483E+02 -0.46226375286E+02  0.55373528336E+02  0.00000000000E+00 0.  1.
         14    1    4    4    0    0 -0.45554781705E+02  0.11647967438E+02 -0.63762667102E+01  0.47450711889E+02  0.00000000000E+00 0. -1.
        -13    1    3    3    0    0  0.45472193070E+02 -0.69881333827E+02 -0.15772276359E+03  0.17840289043E+03  0.00000000000E+00 0.  1.
         13    1    3    3    0    0 -0.34665309844E+02 -0.34246287623E+01 -0.25509901359E+02  0.43175998611E+02  0.00000000000E+00 0. -1.
         -2    1    1    2    0  502  0.84244853061E+01  0.46281786668E+02 -0.28051250487E+01  0.47125836400E+02  0.00000000000E+00 0.  1.
<scales pt_clust_5="13000.00000" pt_clust_6="13000.00000" pt_clust_7="13000.00000" pt_clust_8="13000.00000" pt_clust_9="47.04228"></scales>
<clustering>
<clus scale="   47.042">  1  9  2 -1</clus>
<clus scale="   81.888">  5  6 -1 -1</clus>
<clus scale="   98.752">  1  5  2 -1</clus>
<clus scale="  100.162">  7  8 -1 -1</clus>
<clus scale="   47.042">  1  5  2 -1</clus>
</clustering>
</event>
<event>
 9    2  0.3764910E-005  0.1966990E+03  0.7546771E-02  0.1190528E+00
         21   -1    0    0  501  502  0.00000000000E+00  0.00000000000E+00  0.47220092387E+03  0.47220092387E+03  0.00000000000E+00 0. -1.
          2   -1    0    0  502    0 -0.00000000000E+00 -0.00000000000E+00 -0.15888287653E+03  0.15888287653E+03  0.00000000000E+00 0. -1.
         24    2    1    2    0    0  0.50258750631E+01 -0.14663725288E+01 -0.47983579760E+02  0.95609197513E+02  0.82530509837E+02 0.  0.
         23    2    1    2    0    0 -0.98985902212E+02  0.13954441307E+03  0.29616055572E+03  0.35620555602E+03  0.99501112166E+02 0.  0.
        -13    1    3    3    0    0  0.17808819207E+02  0.29364140191E+02 -0.51658155621E+02  0.62032022479E+02  0.00000000000E+00 0.  1.
         14    1    3    3    0    0 -0.12782944144E+02 -0.30830512719E+02  0.36745758603E+01  0.33577175034E+02  0.00000000000E+00 0. -1.
        -11    1    4    4    0    0  0.17882763179E+02  0.39118335971E+02  0.78683423949E+02  0.89672284639E+02  0.00000000000E+00 0.  1.
         11    1    4    4    0    0 -0.11686866539E+03  0.10042607710E+03  0.21747713177E+03  0.26653327138E+03  0.00000000000E+00 0. -1.
          1    1    1    2  501    0  0.93960027149E+02 -0.13807804054E+03  0.65141071392E+02  0.17926904687E+03  0.00000000000E+00 0. -1.
<scales pt_clust_5="13000.00000" pt_clust_6="13000.00000" pt_clust_7="13000.00000" pt_clust_8="13000.00000" pt_clust_9="169.67628"></scales>
<clustering>
<clus scale="   82.531">  5  6 -1 -1</clus>
<clus scale="   82.696">  2  5  1 -1</clus>
<clus scale="   99.501">  7  8 -1 -1</clus>
<clus scale="  169.676">  1  9  2 -1</clus>
<clus scale="  169.676">  1  5  2 -1</clus>
</clustering>
</event>
<event>
 9    2  0.3764910E-005  0.1255979E+03  0.7546771E-02  0.1239770E+00
         21   -1    0    0  501  502  0.00000000000E+00  0.00000000000E+00  0.30203643300E+03  0.30203643300E+03  0.00000000000E+00 0.  1.
         -1   -1    0    0    0  501 -0.00000000000E+00 -0.00000000000E+00 -0.89965260976E+02  0.89965260976E+02  0.00000000000E+00 0.  1.
         23    2    1    2    0    0 -0.39414595694E+02  0.19883721183E+02  0.77731623785E+02  0.13431528073E+03  0.10024727717E+03 0.  0.
         24    2    1    2    0    0  0.11431574099E+03  0.14208260857E+01  0.74413897524E+02  0.15942579593E+03  0.82516961165E+02 0.  0.
        -13    1    4    4    0    0  0.65945903993E+02  0.92820563025E+01 -0.42665509965E+01  0.66732467960E+02  0.00000000000E+00 0.  1.
         14    1    4    4    0    0  0.48369836996E+02 -0.78612302168E+01  0.78680448520E+02  0.92693327974E+02  0.00000000000E+00 0. -1.
        -11    1    3    3    0    0 -0.40585325106E+02  0.58175462781E+02  0.45715614778E+02  0.84388805646E+02  0.00000000000E+00 0. -1.
         11    1    3    3    0    0  0.11707294113E+01 -0.38291741598E+02  0.32016009006E+02  0.49926475087E+02  0.00000000000E+00 0.  1.
         -2    1    1    2    0  502 -0.74901145294E+02 -0.21304547269E+02  0.59925650719E+02  0.98260617313E+02  0.00000000000E+00 0.  1.
<scales pt_clust_5="13000.00000" pt_clust_6="13000.00000" pt_clust_7="13000.00000" pt_clust_8="13000.00000" pt_clust_9="77.87211"></scales>
<clustering>
<clus scale="   77.872">  1  9  2 -1</clus>
<clus scale="   82.517">  5  6 -1 -1</clus>
<clus scale="  100.247">  7  8 -1 -1</clus>
<clus scale="  111.957">  1  5  2 -1</clus>
<clus scale="   77.872">  1  5  2 -1</clus>
</clustering>
</event>
<event>
 9    2  0.3764910E-005  0.1786611E+03  0.7546771E-02  0.1191660E+00
         -3   -1    0    0    0  501 -0.00000000000E+00  0.00000000000E+00  0.15680142681E+04  0.15680142681E+04  0.00000000000E+00 0.  1.
         21   -1    0    0  501  502  0.00000000000E+00 -0.00000000000E+00 -0.43118824751E+02  0.43118824751E+02  0.00000000000E+00 0. -1.
         24    2    1    2    0    0  0.24627646598E+02  0.66782971243E+02  0.50482734316E+03  0.51617490809E+03  0.80742820822E+02 0.  0.
         23    2    1    2    0    0 -0.15612430432E+03  0.16916853660E+02  0.24857308524E+03  0.30787395180E+03  0.91306150697E+02 0.  0.
        -13    1    3    3    0    0  0.43001062757E+02  0.70695103853E+02  0.46281750404E+03  0.47015628376E+03  0.00000000000E+00 0.  1.
         14    1    3    3    0    0 -0.18373416159E+02 -0.39121326101E+01  0.42009839119E+02  0.46018624335E+02  0.00000000000E+00 0. -1.
        -13    1    4    4    0    0 -0.28599299822E+02  0.38258400083E+02  0.39189727461E+02  0.61785595940E+02  0.00000000000E+00 0.  1.
         13    1    4    4    0    0 -0.12752500450E+03 -0.21341546423E+02  0.20938335778E+03  0.24608835586E+03  0.00000000000E+00 0. -1.
         -4    1    1    2    0  502  0.13149665772E+03 -0.83699824903E+02  0.77149501498E+03  0.78708423299E+03  0.00000000000E+00 0.  1.
<scales pt_clust_5="13000.00000" pt_clust_6="13000.00000" pt_clust_7="13000.00000" pt_clust_8="13000.00000" pt_clust_9="153.56753"></scales>
<clustering>
<clus scale="   80.743">  5  6 -1 -1</clus>
<clus scale="   91.306">  7  8 -1 -1</clus>
<clus scale="  107.638">  1  5  2 -1</clus>
<clus scale="  153.568">  2  9  1 -1</clus>
<clus scale="  153.568">  2  5  1 -1</clus>
</clustering>
</event>
<event>
 9    2  0.3764910E-005  0.9332512E+02  0.7546771E-02  0.1300508E+00
         21   -1    0    0  501  502  0.00000000000E+00  0.00000000000E+00  0.59146071923E+02  0.59146071923E+02  0.00000000000E+00 0. -1.
          4   -1    0    0  502    0 -0.00000000000E+00 -0.00000000000E+00 -0.41542534856E+03  0.41542534856E+03  0.00000000000E+00 0. -1.
         23    2    1    2    0    0 -0.25510351772E+01 -0.37991343988E+02 -0.24561320426E+03  0.26432519569E+03  0.89956172499E+02 0.  0.
         24    2    1    2    0    0 -0.34256657634E+02 -0.25604017039E+01 -0.12594959408E+03  0.15338818786E+03  0.80526776147E+02 0.  0.
        -13    1    4    4    0    0 -0.47629494118E+02 -0.66141516468E+01 -0.13018878383E+03  0.13878557255E+03  0.00000000000E+00 0.  1.
         14    1    4    4    0    0  0.13372836484E+02  0.40537499428E+01  0.42391897506E+01  0.14602615312E+02  0.00000000000E+00 0. -1.
        -11    1    3    3    0    0  0.18139803995E+02  0.24830805791E+02 -0.94310598195E+02  0.99197330292E+02  0.00000000000E+00 0.  1.
         11    1    3    3    0    0 -0.20690839172E+02 -0.62822149779E+02 -0.15130260607E+03  0.16512786540E+03  0.00000000000E+00 0. -1.
          3    1    1    2  501    0  0.36807692811E+02  0.40551745692E+02  0.15283521701E+02  0.56858036937E+02  0.00000000000E+00 0. -1.
<scales pt_clust_5="13000.00000" pt_clust_6="13000.00000" pt_clust_7="13000.00000" pt_clust_8="13000.00000" pt_clust_9="54.76541"></scales>
<clustering>
<clus scale="   54.765">  1  9  2 -1</clus>
<clus scale="   80.527">  5  6 -1 -1</clus>
<clus scale="   84.274">  1  5  2 -1</clus>
<clus scale="   89.956">  7  8 -1 -1</clus>
<clus scale="   54.765">  1  5  2 -1</clus>
</clustering>
</event>
<event>
 9    2  0.3764910E-005  0.1005163E+03  0.7546771E-02  0.1282521E+00
         21   -1    0    0  501  502  0.00000000000E+00  0.00000000000E+00  0.83162551027E+02  0.83162551027E+02  0.00000000000E+00 0.  1.
          2   -1    0    0  502    0 -0.00000000000E+00 -0.00000000000E+00 -0.25140018071E+03  0.25140018071E+03  0.00000000000E+00 0. -1.
         24    2    1    2    0    0 -0.30052479396E+02  0.50494555638E+02 -0.94529253789E+02  0.13848545979E+03  0.82398975029E+02 0.  0.
         23    2    1    2    0    0 -0.42889197499E+02 -0.37435221013E+02 -0.30269363893E+02  0.11018209039E+03  0.89347521616E+02 0.  0.
        -13    1    3    3    0    0 -0.16260951717E+02 -0.16451581568E+02 -0.54665814454E+02  0.59358439643E+02  0.00000000000E+00 0.  1.
         14    1    3    3    0    0 -0.13791527679E+02  0.66946137206E+02 -0.39863439334E+02  0.79127020152E+02  0.00000000000E+00 0. -1.
        -11    1    4    4    0    0 -0.54721176800E+02 -0.58953327539E+02 -0.16790364021E+02  0.82169448959E+02  0.00000000000E+00 0. -1.
         11    1    4    4    0    0  0.11831979302E+02  0.21518106526E+02 -0.13478999872E+02  0.28012641436E+02  0.00000000000E+00 0.  1.
          1    1    1    2  501    0  0.72941676894E+02 -0.13059334625E+02 -0.43439011996E+02  0.85895181543E+02  0.00000000000E+00 0. -1.
<scales pt_clust_5="13000.00000" pt_clust_6="13000.00000" pt_clust_7="13000.00000" pt_clust_8="13000.00000" pt_clust_9="74.10155"></scales>
<clustering>
<clus scale="   74.102">  1  9  2 -1</clus>
<clus scale="   82.399">  5  6 -1 -1</clus>
<clus scale="   89.348">  7  8 -1 -1</clus>
<clus scale="   94.394">  2  5  1 -1</clus>
<clus scale="   74.102">  1  5  2 -1</clus>
</clustering>
</event>
<event>
 9    2  0.3764910E-005  0.1196521E+03  0.7546771E-02  0.1254724E+00
         21   -1    0    0  501  502  0.00000000000E+00  0.00000000000E+00  0.20060021651E+02  0.20060021651E+02  0.00000000000E+00 0. -1.
          2   -1    0    0  502    0 -0.00000000000E+00 -0.00000000000E+00 -0.13869187026E+04  0.13869187026E+04  0.00000000000E+00 0. -1.
         24    2    1    2    0    0  0.46608833663E+02 -0.24837996489E+02 -0.46461492935E+03  0.47441269337E+03  0.80069105196E+02 0.  0.
         23    2    1    2    0    0  0.55032461784E+02 -0.20384074244E+02 -0.28553344297E+03  0.30590217092E+03  0.92750788594E+02 0.  0.
        -13    1    3    3    0    0 -0.25339773040E+01  0.25201405219E+02 -0.14470338791E+03  0.14690337756E+03  0.00000000000E+00 0.  1.
         14    1    3    3    0    0  0.49142810967E+02 -0.50039401708E+02 -0.31991154144E+03  0.32750931580E+03  0.00000000000E+00 0. -1.
        -13    1    4    4    0    0  0.57852470629E+02  0.23978745261E+02 -0.19896000551E+03  0.20858325047E+03  0.00000000000E+00 0. -1.
         13    1    4    4    0    0 -0.28200088445E+01 -0.44362819505E+02 -0.86573437463E+02  0.97318920455E+02  0.00000000000E+00 0.  1.
          1    1    1    2  501    0 -0.10164129545E+03  0.45222070733E+02 -0.61671030867E+03  0.62666386001E+03  0.00000000000E+00 0. -1.
<scales pt_clust_5="13000.00000" pt_clust_6="13000.00000" pt_clust_7="13000.00000" pt_clust_8="13000.00000" pt_clust_9="75.59050"></scales>
<clustering>
<clus scale="   80.069">  5  6 -1 -1</clus>
<clus scale="   92.751">  7  8 -1 -1</clus>
<clus scale="   95.919">  2  5  1 -1</clus>
<clus scale="   75.590">  1  9  2 -1</clus>
<clus scale="   75.590">  1  5  2 -1</clus>
</clustering>
</event>
<event>
 9    2  0.3764910E-005  0.1074251E+03  0.7546771E-02  0.1270573E+00
         21   -1    0    0  501  502  0.00000000000E+00  0.00000000000E+00  0.47222336247E+03  0.47222336247E+03  0.00000000000E+00 0. -1.
          2   -1    0    0  502    0 -0.00000000000E+00 -0.00000000000E+00 -0.28719658373E+03  0.28719658373E+03  0.00000000000E+00 0. -1.
         23    2    1    2    0    0 -0.58575146049E+02  0.96647585916E+01 -0.26208471497E+03  0.28379738495E+03  0.91258438461E+02 0.  0.
         24    2    1    2    0    0 -0.15768946786E+02 -0.26098649026E+02  0.26649945526E+03  0.27961790486E+03  0.78958304832E+02 0.  0.
        -11    1    4    4    0    0  0.18180855855E+02 -0.32712278310E+02  0.21047675842E+03  0.21377816190E+03  0.00000000000E+00 0.  1.
         12    1    4    4    0    0 -0.33949802641E+02  0.66136292844E+01  0.56022696841E+02  0.65839742960E+02  0.00000000000E+00 0. -1.
        -13    1    3    3    0    0  0.19460444634E+02 -0.11701637356E+02 -0.10117363857E+03  0.10369060885E+03  0.00000000000E+00 0.  1.
         13    1    3    3    0    0 -0.78035590683E+02  0.21366395947E+02 -0.16091107640E+03  0.18010677610E+03  0.00000000000E+00 0. -1.
          1    1    1    2  501    0  0.74344092835E+02  0.16433890434E+02  0.18061203845E+03  0.19600465639E+03  0.00000000000E+00 0. -1.
<scales pt_clust_5="13000.00000" pt_clust_6="13000.00000" pt_clust_7="13000.00000" pt_clust_8="13000.00000" pt_clust_9="76.13880"></scales>
<clustering>
<clus scale="   76.139">  1  9  2 -1</clus>
<clus scale="   78.958">  5  6 -1 -1</clus>
<clus scale="   91.258">  7  8 -1 -1</clus>
<clus scale="   97.193">  1  5  2 -1</clus>
<clus scale="   76.139">  1  5  2 -1</clus>
</clustering>
</event>
<event>
 9    2  0.3764910E-005  0.1005790E+03  0.7546771E-02  0.1285034E+00
          2   -1    0    0  502    0 -0.00000000000E+00  0.00000000000E+00  0.39838214561E+03  0.39838214561E+03  0.00000000000E+00 0. -1.
         21   -1    0    0  501  502  0.00000000000E+00 -0.00000000000E+00 -0.48590446435E+02  0.48590446435E+02  0.00000000000E+00 0.  1.
         24    2    1    2    0    0  0.40379383032E+02  0.28193517264E+02  0.19970194480E+03  0.22070350066E+03  0.80023743090E+02 0.  0.
         23    2    1    2    0    0 -0.13934306194E+02 -0.30238710832E+02  0.16792420644E+03  0.19430672936E+03  0.91913118995E+02 0.  0.
        -13    1    3    3    0    0  0.33988501338E+02 -0.31574268769E+01  0.23076190585E+02  0.41203132643E+02  0.00000000000E+00 0.  1.
         14    1    3    3    0    0  0.63908816938E+01  0.31350944141E+02  0.17662575421E+03  0.17950036802E+03  0.00000000000E+00 0. -1.
        -11    1    4    4    0    0 -0.47826038002E+02  0.19765899441E+01  0.10927241515E+03  0.11929667863E+03  0.00000000000E+00 0. -1.
         11    1    4    4    0    0  0.33891731808E+02 -0.32215300776E+02  0.58651791287E+02  0.75010050728E+02  0.00000000000E+00 0.  1.
          1    1    1    2  501    0 -0.26445076838E+02  0.20451935674E+01 -0.17834452065E+02  0.31962362024E+02  0.00000000000E+00 0. -1.
<scales pt_clust_5="13000.00000" pt_clust_6="13000.00000" pt_clust_7="13000.00000" pt_clust_8="13000.00000" pt_clust_9="26.52404"></scales>
<clustering>
<clus scale="   26.524">  2  9  1 -1</clus>
<clus scale="   80.024">  5  6 -1 -1</clus>
<clus scale="   89.844">  1  5  2 -1</clus>
<clus scale="   91.913">  7  8 -1 -1</clus>
<clus scale="   26.524">  2  5  1 -1</clus>
</clustering>
</event>
<event>
 9    2  0.3764910E-005  0.9317931E+02  0.7546771E-02  0.1296196E+00
         21   -1    0    0  501  502  0.00000000000E+00  0.00000000000E+00  0.22724249648E+03  0.22724249648E+03  0.00000000000E+00 0.  1.
         -1   -1    0    0    0  501 -0.00000000000E+00 -0.00000000000E+00 -0.17033541989E+03  0.17033541989E+03  0.00000000000E+00 0.  1.
         23    2    1    2    0    0 -0.15748388078E+01  0.16285626521E+02 -0.11265997052E+03  0.14574162929E+03  0.90998086797E+02 0.  0.
         24    2    1    2    0    0 -0.21629373303E+02  0.88886460920E+01  0.18810318921E+02  0.97240780819E+02  0.92493802698E+02 0.  0.
        -11    1    4    4    0    0 -0.24311318757E+02  0.42532771146E+02  0.34602113845E+02  0.59978188732E+02  0.00000000000E+00 0.  1.
         12    1    4    4    0    0  0.26819454538E+01 -0.33644125054E+02 -0.15791794924E+02  0.37262592086E+02  0.00000000000E+00 0. -1.
        -13    1    3    3    0    0  0.39563536073E+02  0.74588804676E+01 -0.22200079250E+02  0.45975556584E+02  0.00000000000E+00 0. -1.
         13    1    3    3    0    0 -0.41138374881E+02  0.88267460534E+01 -0.90459891270E+02  0.99766072702E+02  0.00000000000E+00 0.  1.
         -2    1    1    2    0  502  0.23204212111E+02 -0.25174272613E+02  0.15075672820E+03  0.15459550627E+03  0.00000000000E+00 0.  1.
<scales pt_clust_5="13000.00000" pt_clust_6="13000.00000" pt_clust_7="13000.00000" pt_clust_8="13000.00000" pt_clust_9="34.23711"></scales>
<clustering>
<clus scale="   34.237">  1  9  2 -1</clus>
<clus scale="   90.998">  7  8 -1 -1</clus>
<clus scale="   91.695">  2  7  1 -1</clus>
<clus scale="   92.494">  5  6 -1 -1</clus>
<clus scale="   34.237">  1  5  2 -1</clus>
</clustering>
</event>
<event>
 9    2  0.3764910E-005  0.1324321E+03  0.7546771E-02  0.1226604E+00
         -3   -1    0    0    0  501 -0.00000000000E+00  0.00000000000E+00  0.14986056301E+03  0.14986056301E+03  0.00000000000E+00 0.  1.
         21   -1    0    0  501  502  0.00000000000E+00 -0.00000000000E+00 -0.30515581414E+03  0.30515581414E+03  0.00000000000E+00 0.  1.
         23    2    1    2    0    0  0.42047443979E+02 -0.60407564491E+02  0.27209491162E+02  0.12142910047E+03  0.92669351132E+02 0.  0.
         24    2    1    2    0    0 -0.11947845681E+03  0.90462929789E+02 -0.51367857888E+02  0.17835915686E+03  0.81943204131E+02 0.  0.
        -13    1    4    4    0    0 -0.92489534229E+02  0.82659387250E+02 -0.72070342822E+02  0.14346087466E+03  0.00000000000E+00 0.  1.
         14    1    4    4    0    0 -0.26988922580E+02  0.78035425391E+01  0.20702484934E+02  0.34898282202E+02  0.00000000000E+00 0. -1.
        -11    1    3    3    0    0  0.67278975018E+02 -0.29204304651E+02  0.72261284872E+00  0.73347624767E+02  0.00000000000E+00 0. -1.
         11    1    3    3    0    0 -0.25231531039E+02 -0.31203259840E+02  0.26486878313E+02  0.48081475705E+02  0.00000000000E+00 0.  1.
         -4    1    1    2    0  502  0.77431012830E+02 -0.30055365298E+02 -0.13113688440E+03  0.15522811982E+03  0.00000000000E+00 0.  1.
<scales pt_clust_5="13000.00000" pt_clust_6="13000.00000" pt_clust_7="13000.00000" pt_clust_8="13000.00000" pt_clust_9="83.05954"></scales>
<clustering>
<clus scale="   81.943">  5  6 -1 -1</clus>
<clus scale="   83.060">  2  9  1 -1</clus>
<clus scale="   92.669">  7  8 -1 -1</clus>
<clus scale="  125.161">  2  5  1 -1</clus>
<clus scale="   83.060">  2  5  1 -1</clus>
</clustering>
</event>
<event>
 9    2  0.3764910E-005  0.2545705E+03  0.7546771E-02  0.1116195E+00
         21   -1    0    0  501  502  0.00000000000E+00  0.00000000000E+00  0.34039345973E+03  0.34039345973E+03  0.00000000000E+00 0. -1.
         -3   -1    0    0    0  501 -0.00000000000E+00 -0.00000000000E+00 -0.54206690246E+03  0.54206690246E+03  0.00000000000E+00 0.  1.
         24    2    1    2    0    0  0.20347708291E+03  0.70873983425E+01  0.11863147068E+03  0.25004241860E+03  0.83633909262E+02 0.  0.
         23    2    1    2    0    0 -0.13622641926E+02 -0.23068168767E+03 -0.11059217643E+03  0.27183709685E+03  0.90912927212E+02 0.  0.
        -13    1    3    3    0    0  0.75041993588E+02 -0.30772048306E+02  0.19434264686E+02  0.83402100708E+02  0.00000000000E+00 0.  1.
         14    1    3    3    0    0  0.12843508932E+03  0.37859446649E+02  0.99197205998E+02  0.16664031789E+03  0.00000000000E+00 0. -1.
        -13    1    4    4    0    0  0.24949122182E+02 -0.18993151703E+03 -0.93619908375E+02  0.21321615113E+03  0.00000000000E+00 0. -1.
         13    1    4    4    0    0 -0.38571764108E+02 -0.40750170643E+02 -0.16972268058E+02  0.58620945717E+02  0.00000000000E+00 0.  1.
         -4    1    1    2    0  502 -0.18985444098E+03  0.22359428933E+03 -0.20971273698E+03  0.36058084674E+03  0.00000000000E+00 0.  1.
<scales pt_clust_5="13000.00000" pt_clust_6="13000.00000" pt_clust_7="13000.00000" pt_clust_8="13000.00000" pt_clust_9="237.78362"></scales>
<clustering>
<clus scale="   83.634">  5  6 -1 -1</clus>
<clus scale="   90.913">  7  8 -1 -1</clus>
<clus scale="  220.109">  2  5  1 -1</clus>
<clus scale="  237.784">  1  9  2 -1</clus>
<clus scale="  237.784">  1  5  2 -1</clus>
</clustering>
</event>
<event>
 9    2  0.3764910E-005  0.1434499E+03  0.7546771E-02  0.1213561E+00
          2   -1    0    0  502    0 -0.00000000000E+00  0.00000000000E+00  0.11842013099E+04  0.11842013099E+04  0.00000000000E+00 0. -1.
         21   -1    0    0  501  502  0.00000000000E+00 -0.00000000000E+00 -0.36604713224E+02  0.36604713224E+02  0.00000000000E+00 0.  1.
         24    2    1    2    0    0 -0.89185571122E+02  0.30519846691E+02  0.64079971858E+03  0.65270081327E+03  0.80675554998E+02 0.  0.
         23    2    1    2    0    0  0.85680971498E+02 -0.11233998034E+03  0.36509697141E+03  0.40444189679E+03  0.10156746174E+03 0.  0.
        -11    1    3    3    0    0 -0.30744595334E+02 -0.22784653333E+02  0.12071057565E+03  0.12663101375E+03  0.00000000000E+00 0.  1.
         12    1    3    3    0    0 -0.58440975787E+02  0.53304500024E+02  0.52008914293E+03  0.52606979952E+03  0.00000000000E+00 0. -1.
        -13    1    4    4    0    0  0.35752280692E+02 -0.11618126899E+03  0.22619229058E+03  0.25678641933E+03  0.00000000000E+00 0.  1.
         13    1    4    4    0    0  0.49928690806E+02  0.38412886503E+01  0.13890468084E+03  0.14765547746E+03  0.00000000000E+00 0. -1.
          1    1    1    2  501    0  0.35045996239E+01  0.81820133650E+02  0.14169990670E+03  0.16366331307E+03  0.00000000000E+00 0. -1.
<scales pt_clust_5="13000.00000" pt_clust_6="13000.00000" pt_clust_7="13000.00000" pt_clust_8="13000.00000" pt_clust_9="81.89516"></scales>
<clustering>
<clus scale="   80.676">  5  6 -1 -1</clus>
<clus scale="   81.895">  2  9  1 -1</clus>
<clus scale="  101.567">  7  8 -1 -1</clus>
<clus scale="  129.501">  1  5  2 -1</clus>
<clus scale="   81.895">  2  5  1 -1</clus>
</clustering>
</event>
<event>
 9    2  0.3764910E-005  0.2173008E+03  0.7546771E-02  0.1161982E+00
          2   -1    0    0  502    0 -0.00000000000E+00  0.00000000000E+00  0.25328445471E+03  0.25328445471E+03  0.00000000000E+00 0. -1.
         21   -1    0    0  501  502  0.00000000000E+00 -0.00000000000E+00 -0.38580762965E+03  0.38580762965E+03  0.00000000000E+00 0. -1.
         23    2    1    2    0    0  0.54842820443E+02  0.47296836317E+02  0.48000872281E+02  0.12648023697E+03  0.91915400915E+02 0.  0.
         24    2    1    2    0    0  0.14108933981E+03 -0.12236260977E+03  0.41022404460E+02  0.20747726721E+03  0.80530544917E+02 0.  0.
        -11    1    4    4    0    0  0.48146204902E+02  0.16237750626E+01  0.53549226317E+01  0.48470288717E+02  0.00000000000E+00 0.  1.
         12    1    4    4    0    0  0.92943134909E+02 -0.12398638483E+03  0.35667481828E+02  0.15900697850E+03  0.00000000000E+00 0. -1.
        -13    1    3    3    0    0  0.31944733930E+02  0.49811357288E+02  0.72011928536E+02  0.93205982599E+02  0.00000000000E+00 0. -1.
         13    1    3    3    0    0  0.22898086513E+02 -0.25145209709E+01 -0.24011056255E+02  0.33274254374E+02  0.00000000000E+00 0.  1.
          1    1    1    2  501    0 -0.19593216025E+03  0.75065773453E+02 -0.22154645168E+03  0.30513458017E+03  0.00000000000E+00 0. -1.
<scales pt_clust_5="13000.00000" pt_clust_6="13000.00000" pt_clust_7="13000.00000" pt_clust_8="13000.00000" pt_clust_9="201.82785"></scales>
<clustering>
<clus scale="   80.531">  5  6 -1 -1</clus>
<clus scale="   91.915">  7  8 -1 -1</clus>
<clus scale="  117.018">  1  7  2 -1</clus>
<clus scale="  201.828">  2  9  1 -1</clus>
<clus scale="  201.828">  2  5  1 -1</clus>
</clustering>
</event>
<event>
 9    2  0.3764910E-005  0.2195056E+03  0.7546771E-02  0.1171168E+00
         21   -1    0    0  501  502  0.00000000000E+00  0.00000000000E+00  0.80661237136E+03  0.80661237136E+03  0.00000000000E+00 0.  1.
         -1   -1    0    0    0  501 -0.00000000000E+00 -0.00000000000E+00 -0.18918982198E+03  0.18918982198E+03  0.00000000000E+00 0.  1.
         24    2    1    2    0    0 -0.38071055707E+01  0.43544587172E+02 -0.39021143480E+02  0.99837573980E+02  0.80834809426E+02 0.  0.
         23    2    1    2    0    0  0.19036795993E+03  0.34318311646E+02  0.41702035996E+01  0.21308228090E+03  0.89269038054E+02 0.  0.
        -13    1    3    3    0    0 -0.26315521628E+02  0.13449133314E+02 -0.52222597821E+02  0.60004879707E+02  0.00000000000E+00 0.  1.
         14    1    3    3    0    0  0.22508416057E+02  0.30095453858E+02  0.13201454342E+02  0.39832694273E+02  0.00000000000E+00 0. -1.
        -11    1    4    4    0    0  0.63043403971E+02  0.27496934091E+02 -0.38255469851E+02  0.78702180034E+02  0.00000000000E+00 0. -1.
         11    1    4    4    0    0  0.12732455596E+03  0.68213775544E+01  0.42425673451E+02  0.13438010087E+03  0.00000000000E+00 0.  1.
         -2    1    1    2    0  502 -0.18656085436E+03 -0.77862898817E+02  0.65227348926E+03  0.68288233846E+03  0.00000000000E+00 0.  1.
<scales pt_clust_5="13000.00000" pt_clust_6="13000.00000" pt_clust_7="13000.00000" pt_clust_8="13000.00000" pt_clust_9="200.53368"></scales>
<clustering>
<clus scale="   80.835">  5  6 -1 -1</clus>
<clus scale="   89.269">  7  8 -1 -1</clus>
<clus scale="   91.896">  2  5  1 -1</clus>
<clus scale="  200.534">  1  9  2 -1</clus>
<clus scale="  200.534">  1  5  2 -1</clus>
</clustering>
</event>
<event>
 9    2  0.3764910E-005  0.9919758E+02  0.7546771E-02  0.1285290E+00
         21   -1    0    0  501  502  0.00000000000E+00  0.00000000000E+00  0.28320793526E+03  0.28320793526E+03  0.00000000000E+00 0.  1.
          2   -1    0    0  502    0 -0.00000000000E+00 -0.00000000000E+00 -0.96884663532E+02  0.96884663532E+02  0.00000000000E+00 0. -1.
         24    2    1    2    0    0 -0.56847176207E+02  0.18374384992E+02  0.11036635385E+03  0.14893158425E+03  0.80191428829E+02 0.  0.
         23    2    1    2    0    0  0.36497795933E+02  0.32657289377E+02  0.12325424764E+03  0.15866710811E+03  0.87092215364E+02 0.  0.
        -13    1    3    3    0    0 -0.20980958398E+02  0.45010720274E+02  0.82452579496E+02  0.96252757989E+02  0.00000000000E+00 0.  1.
         14    1    3    3    0    0 -0.35866217809E+02 -0.26636335282E+02  0.27913774351E+02  0.52678826256E+02  0.00000000000E+00 0. -1.
        -11    1    4    4    0    0  0.28825347758E+02  0.62231544616E+02  0.75741366094E+02  0.10217837519E+03  0.00000000000E+00 0. -1.
         11    1    4    4    0    0  0.76724481749E+01 -0.29574255240E+02  0.47512881550E+02  0.56488732922E+02  0.00000000000E+00 0.  1.
          1    1    1    2  501    0  0.20349380275E+02 -0.51031674369E+02 -0.47297329768E+02  0.72493906431E+02  0.00000000000E+00 0. -1.
<scales pt_clust_5="13000.00000" pt_clust_6="13000.00000" pt_clust_7="13000.00000" pt_clust_8="13000.00000" pt_clust_9="54.93935"></scales>
<clustering>
<clus scale="   54.939">  1  9  2 -1</clus>
<clus scale="   80.191">  5  6 -1 -1</clus>
<clus scale="   87.092">  7  8 -1 -1</clus>
<clus scale="   93.197">  2  5  1 -1</clus>
<clus scale="   54.939">  1  5  2 -1</clus>
</clustering>
</event>
<event>
 9    2  0.3764910E-005  0.9073778E+02  0.7546771E-02  0.1307525E+00
         21   -1    0    0  501  502  0.00000000000E+00  0.00000000000E+00  0.15564782313E+03  0.15564782313E+03  0.00000000000E+00 0. -1.
          2   -1    0    0  502    0 -0.00000000000E+00 -0.00000000000E+00 -0.15690622964E+03  0.15690622964E+03  0.00000000000E+00 0. -1.
         23    2    1    2    0    0 -0.12629353338E+02  0.24069331260E+02 -0.83710224781E+02  0.12602296209E+03  0.90197294686E+02 0.  0.
         24    2    1    2    0    0 -0.31446451964E+02  0.24118122505E+02  0.11391604199E+02  0.90020669798E+02  0.80021179511E+02 0.  0.
        -13    1    4    4    0    0  0.21245933447E+02  0.14423619920E+02  0.23814724826E+02  0.35022444492E+02  0.00000000000E+00 0.  1.
         14    1    4    4    0    0 -0.52692385411E+02  0.96945025851E+01 -0.12423120628E+02  0.54998225306E+02  0.00000000000E+00 0. -1.
        -11    1    3    3    0    0  0.21723314348E+02  0.12752272333E+02  0.88086915442E+01  0.26685499483E+02  0.00000000000E+00 0.  1.
         11    1    3    3    0    0 -0.34352667686E+02  0.11317058926E+02 -0.92518916325E+02  0.99337462610E+02  0.00000000000E+00 0. -1.
          1    1    1    2  501    0  0.44075805302E+02 -0.48187453765E+02  0.71060214080E+02  0.96510420880E+02  0.00000000000E+00 0. -1.
<scales pt_clust_5="13000.00000" pt_clust_6="13000.00000" pt_clust_7="13000.00000" pt_clust_8="13000.00000" pt_clust_9="65.30473"></scales>
<clustering>
<clus scale="   65.305">  1  9  2 -1</clus>
<clus scale="   80.021">  5  6 -1 -1</clus>
<clus scale="   80.630">  1  5  2 -1</clus>
<clus scale="   90.197">  7  8 -1 -1</clus>
<clus scale="   65.305">  1  5  2 -1</clus>
</clustering>
</event>
<event>
 9    2  0.3764910E-005  0.9862573E+02  0.7546771E-02  0.1289798E+00
          2   -1    0    0  502    0 -0.00000000000E+00  0.00000000000E+00  0.30030342594E+03  0.30030342594E+03  0.00000000000E+00 0. -1.
         21   -1    0    0  501  502  0.00000000000E+00 -0.00000000000E+00 -0.20364441252E+03  0.20364441252E+03  0.00000000000E+00 0. -1.
         23    2    1    2    0    0 -0.75755471176E+00  0.38968351604E+02  0.27316759121E+03  0.29058846645E+03  0.91115408304E+02 0.  0.
         24    2    1    2    0    0  0.27407989610E+02 -0.16490466970E+02 -0.13074192742E+03  0.15582601417E+03  0.78518543748E+02 0.  0.
        -11    1    4    4    0    0 -0.13618544507E+02 -0.17984074079E+02 -0.10494020585E+03  0.10733749801E+03  0.00000000000E+00 0.  1.
         12    1    4    4    0    0  0.41026534117E+02  0.14936071090E+01 -0.25801721570E+02  0.48488516164E+02  0.00000000000E+00 0. -1.
        -13    1    3    3    0    0  0.40404630386E+02  0.39985650404E+02  0.13680778541E+03  0.14814775241E+03  0.00000000000E+00 0.  1.
         13    1    3    3    0    0 -0.41162185098E+02 -0.10172988005E+01  0.13635980580E+03  0.14244071404E+03  0.00000000000E+00 0. -1.
          1    1    1    2  501    0 -0.26650434898E+02 -0.22477884634E+02 -0.45766650372E+02  0.57533357838E+02  0.00000000000E+00 0. -1.
<scales pt_clust_5="13000.00000" pt_clust_6="13000.00000" pt_clust_7="13000.00000" pt_clust_8="13000.00000" pt_clust_9="34.86404"></scales>
<clustering>
<clus scale="   34.864">  2  9  1 -1</clus>
<clus scale="   78.519">  5  6 -1 -1</clus>
<clus scale="   87.122">  2  5  1 -1</clus>
<clus scale="   91.115">  7  8 -1 -1</clus>
<clus scale="   34.864">  2  5  1 -1</clus>
</clustering>
</event>
<event>
 9    2  0.3764910E-005  0.2081009E+03  0.7546771E-02  0.1164908E+00
          2   -1    0    0  502    0 -0.00000000000E+00  0.00000000000E+00  0.13130465471E+04  0.13130465471E+04  0.00000000000E+00 0. -1.
         21   -1    0    0  501  502  0.00000000000E+00 -0.00000000000E+00 -0.78609781678E+02  0.78609781678E+02  0.00000000000E+00 0.  1.
         23    2    1    2    0    0 -0.43315928442E+02  0.73153000233E+02  0.54537959998E+03  0.55941255744E+03  0.90971810178E+02 0.  0.
         24    2    1    2    0    0  0.16046382073E+03  0.87432359490E+02  0.56158817462E+03  0.59610900041E+03  0.81065450415E+02 0.  0.
        -13    1    4    4    0    0  0.76269861897E+02  0.84075981434E+02  0.36442170640E+03  0.38169234022E+03  0.00000000000E+00 0.  1.
         14    1    4    4    0    0  0.84193958830E+02  0.33563780562E+01  0.19716646822E+03  0.21441666019E+03  0.00000000000E+00 0. -1.
        -11    1    3    3    0    0 -0.54302617471E+02  0.44587856856E+01  0.26363717051E+03  0.26920849301E+03  0.00000000000E+00 0.  1.
         11    1    3    3    0    0  0.10986689029E+02  0.68694214547E+02  0.28174242947E+03  0.29020406443E+03  0.00000000000E+00 0. -1.
          1    1    1    2  501    0 -0.11714789228E+03 -0.16058535972E+03  0.12746899084E+03  0.23613477095E+03  0.00000000000E+00 0. -1.
<scales pt_clust_5="13000.00000" pt_clust_6="13000.00000" pt_clust_7="13000.00000" pt_clust_8="13000.00000" pt_clust_9="191.66218"></scales>
<clustering>
<clus scale="   81.065">  5  6 -1 -1</clus>
<clus scale="   90.972">  7  8 -1 -1</clus>
<clus scale="  124.513">  1  7  2 -1</clus>
<clus scale="  191.662">  2  9  1 -1</clus>
<clus scale="  191.662">  2  5  1 -1</clus>
</clustering>
</event>
<event>
 9    2  0.3764910E-005  0.1005162E+03  0.7546771E-02  0.1283871E+00
         21   -1    0    0  501  502  0.00000000000E+00  0.00000000000E+00  0.33798882022E+02  0.33798882022E+02  0.00000000000E+00 0.  1.
          2   -1    0    0  502    0 -0.00000000000E+00 -0.00000000000E+00 -0.67129177488E+03  0.67129177488E+03  0.00000000000E+00 0. -1.
         24    2    1    2    0    0 -0.35015461870E+02 -0.43176534931E+02 -0.46111180968E+03  0.47149421000E+03  0.81193554509E+02 0.  0.
         23    2    1    2    0    0 -0.17723781120E+02  0.16863919067E+02 -0.11493332746E+03  0.14845181591E+03  0.90717956889E+02 0.  0.
        -11    1    3    3    0    0 -0.57683250524E+02 -0.32241169253E+02 -0.39969265670E+03  0.40511858783E+03  0.00000000000E+00 0.  1.
         12    1    3    3    0    0  0.22667788654E+02 -0.10935365678E+02 -0.61419152985E+02  0.66375622170E+02  0.00000000000E+00 0. -1.
        -13    1    4    4    0    0 -0.11538592541E+02  0.54178637372E+02 -0.58986482156E+02  0.80918903493E+02  0.00000000000E+00 0.  1.
         13    1    4    4    0    0 -0.61851885786E+01 -0.37314718305E+02 -0.55946845303E+02  0.67532912415E+02  0.00000000000E+00 0. -1.
          1    1    1    2  501    0  0.52739242989E+02  0.26312615864E+02 -0.61447755713E+02  0.85144630993E+02  0.00000000000E+00 0. -1.
<scales pt_clust_5="13000.00000" pt_clust_6="13000.00000" pt_clust_7="13000.00000" pt_clust_8="13000.00000" pt_clust_9="58.93879"></scales>
<clustering>
<clus scale="   58.939">  1  9  2 -1</clus>
<clus scale="   81.194">  5  6 -1 -1</clus>
<clus scale="   90.718">  7  8 -1 -1</clus>
<clus scale="   92.012">  2  5  1 -1</clus>
<clus scale="   58.939">  1  5  2 -1</clus>
</clustering>
</event>
<event>
 9    2  0.3764910E-005  0.1065888E+03  0.7546771E-02  0.1268868E+00
          2   -1    0    0  502    0 -0.00000000000E+00  0.00000000000E+00  0.65169911377E+03  0.65169911377E+03  0.00000000000E+00 0. -1.
         21   -1    0    0  501  502  0.00000000000E+00 -0.00000000000E+00 -0.26047836686E+02  0.26047836686E+02  0.00000000000E+00 0. -1.
         24    2    1    2    0    0  0.33534839097E+02  0.35669305153E+02  0.33445586545E+03  0.34889146649E+03  0.86415535002E+02 0.  0.
         23    2    1    2    0    0 -0.57239059796E+02 -0.35293269594E+02  0.28131306223E+03  0.30317100789E+03  0.90849855262E+02 0.  0.
        -13    1    3    3    0    0  0.46090153479E+02  0.35246226335E+02  0.11250926737E+03  0.12658962818E+03  0.00000000000E+00 0.  1.
         14    1    3    3    0    0 -0.12555314382E+02  0.42307881770E+00  0.22194659808E+03  0.22230183831E+03  0.00000000000E+00 0. -1.
        -11    1    4    4    0    0 -0.19195188028E+02  0.98717044228E+01  0.71770895114E+01  0.22746788905E+02  0.00000000000E+00 0. -1.
         11    1    4    4    0    0 -0.38043871768E+02 -0.45164974017E+02  0.27413597272E+03  0.28042421899E+03  0.00000000000E+00 0.  1.
          1    1    1    2  501    0  0.23704220699E+02 -0.37603555880E+00  0.98823494087E+01  0.25684476081E+02  0.00000000000E+00 0. -1.
<scales pt_clust_5="13000.00000" pt_clust_6="13000.00000" pt_clust_7="13000.00000" pt_clust_8="13000.00000" pt_clust_9="23.70720"></scales>
<clustering>
<clus scale="   23.707">  2  9  1 -1</clus>
<clus scale="   86.416">  5  6 -1 -1</clus>
<clus scale="   90.850">  7  8 -1 -1</clus>
<clus scale="  102.835">  1  5  2 -1</clus>
<clus scale="   23.707">  2  5  1 -1</clus>
</clustering>
</event>
<event>
 9    2  0.3764910E-005  0.9518518E+02  0.7546771E-02  0.1298313E+00
         21   -1    0    0  501  502  0.00000000000E+00  0.00000000000E+00  0.13530066221E+03  0.13530066221E+03  0.00000000000E+00 0.  1.
         -3   -1    0    0    0  501 -0.00000000000E+00 -0.00000000000E+00 -0.91362494874E+02  0.91362494874E+02  0.00000000000E+00 0.  1.
         24    2    1    2    0    0 -0.24107285882E+02 -0.24999451646E+02 -0.23114807098E+02  0.88810674043E+02  0.78402217453E+02 0.  0.
         23    2    1    2    0    0  0.28886117754E+01  0.83745743553E+01  0.41941281627E+02  0.10101207328E+03  0.91465240774E+02 0.  0.
        -13    1    3    3    0    0  0.71910212282E+01 -0.43559778554E+02 -0.27723640737E+02  0.52132191108E+02  0.00000000000E+00 0.  1.
         14    1    3    3    0    0 -0.31298307111E+02  0.18560326908E+02  0.46088336394E+01  0.36678482935E+02  0.00000000000E+00 0. -1.
        -13    1    4    4    0    0 -0.82901049423E+00 -0.34844525116E+02  0.45695843969E+02  0.57471195785E+02  0.00000000000E+00 0.  1.
         13    1    4    4    0    0  0.37176222697E+01  0.43219099471E+02 -0.37545623422E+01  0.43540877493E+02  0.00000000000E+00 0. -1.
         -4    1    1    2    0  502  0.21218674107E+02  0.16624877290E+02  0.25111692808E+02  0.36840409763E+02  0.00000000000E+00 0.  1.
<scales pt_clust_5="13000.00000" pt_clust_6="13000.00000" pt_clust_7="13000.00000" pt_clust_8="13000.00000" pt_clust_9="26.95587"></scales>
<clustering>
<clus scale="   26.956">  1  9  2 -1</clus>
<clus scale="   78.402">  5  6 -1 -1</clus>
<clus scale="   82.712">  2  5  1 -1</clus>
<clus scale="   91.465">  7  8 -1 -1</clus>
<clus scale="   26.956">  1  5  2 -1</clus>
</clustering>
</event>
<event>
 9    2  0.3764910E-005  0.1341958E+03  0.7546771E-02  0.1224646E+00
         21   -1    0    0  501  502  0.00000000000E+00  0.00000000000E+00  0.29968602207E+02  0.29968602207E+02  0.00000000000E+00 0.  1.
         -1   -1    0    0    0  501 -0.00000000000E+00 -0.00000000000E+00 -0.78810667308E+03  0.78810667308E+03  0.00000000000E+00 0.  1.
         23    2    1    2    0    0 -0.70158659125E+02 -0.73339118452E+02 -0.40726060888E+03  0.43011498779E+03  0.94004443686E+02 0.  0.
         24    2    1    2    0    0  0.39358690896E+02  0.83835620842E+02 -0.32124192371E+03  0.34394801949E+03  0.80785819887E+02 0.  0.
        -13    1    4    4    0    0  0.13188555012E+02  0.74666513312E+02 -0.29881334831E+03  0.30828305714E+03  0.00000000000E+00 0.  1.
         14    1    4    4    0    0  0.26170135884E+02  0.91691075293E+01 -0.22428575399E+02  0.35664962351E+02  0.00000000000E+00 0. -1.
        -13    1    3    3    0    0 -0.31227781948E+01 -0.70959895147E+02 -0.22189109820E+03  0.23298222662E+03  0.00000000000E+00 0.  1.
         13    1    3    3    0    0 -0.67035880931E+02 -0.23792233057E+01 -0.18536951068E+03  0.19713276117E+03  0.00000000000E+00 0. -1.
         -2    1    1    2    0  502  0.30799968230E+02 -0.10496502389E+02 -0.29635538295E+02  0.44012268010E+02  0.00000000000E+00 0.  1.
<scales pt_clust_5="13000.00000" pt_clust_6="13000.00000" pt_clust_7="13000.00000" pt_clust_8="13000.00000" pt_clust_9="32.53943"></scales>
<clustering>
<clus scale="   32.539">  1  9  2 -1</clus>
<clus scale="   80.786">  5  6 -1 -1</clus>
<clus scale="   94.004">  7  8 -1 -1</clus>
<clus scale="  125.292">  1  5  2 -1</clus>
<clus scale="   32.539">  1  5  2 -1</clus>
</clustering>
</event>
<event>
 9    2  0.3764910E-005  0.1456391E+03  0.7546771E-02  0.1225824E+00
         21   -1    0    0  501  502  0.00000000000E+00  0.00000000000E+00  0.77459457027E+03  0.77459457027E+03  0.00000000000E+00 0. -1.
          2   -1    0    0  502    0 -0.00000000000E+00 -0.00000000000E+00 -0.16172539803E+03  0.16172539803E+03  0.00000000000E+00 0. -1.
         24    2    1    2    0    0  0.28513566594E+02 -0.44373590792E+02 -0.48874527651E+02  0.10740689901E+03  0.79783979979E+02 0.  0.
         23    2    1    2    0    0 -0.16870223955E+02 -0.71294382913E+02 -0.35342170413E+02  0.12220000294E+03  0.91193630353E+02 0.  0.
        -13    1    3    3    0    0  0.15752063166E+02 -0.47777610702E+02  0.62756391126E+01  0.50697250662E+02  0.00000000000E+00 0.  1.
         14    1    3    3    0    0  0.12761503428E+02  0.34040199104E+01 -0.55150166763E+02  0.56709648344E+02  0.00000000000E+00 0. -1.
        -13    1    4    4    0    0 -0.25854528975E+02  0.41997449251E+01  0.15783901383E+02  0.30581466100E+02  0.00000000000E+00 0.  1.
         13    1    4    4    0    0  0.89843050206E+01 -0.75494127838E+02 -0.51126071796E+02  0.91618536836E+02  0.00000000000E+00 0. -1.
          1    1    1    2  501    0 -0.11643342640E+02  0.11566797370E+03  0.69708587031E+03  0.70671306636E+03  0.00000000000E+00 0. -1.
<scales pt_clust_5="13000.00000" pt_clust_6="13000.00000" pt_clust_7="13000.00000" pt_clust_8="13000.00000" pt_clust_9="113.55381"></scales>
<clustering>
<clus scale="   79.784">  5  6 -1 -1</clus>
<clus scale="   91.194">  7  8 -1 -1</clus>
<clus scale="   95.643">  2  5  1 -1</clus>
<clus scale="  113.554">  1  9  2 -1</clus>
<clus scale="  113.554">  1  5  2 -1</clus>
</clustering>
</event>
<event>
 9    2  0.3764910E-005  0.1361469E+03  0.7546771E-02  0.1227838E+00
         21   -1    0    0  501  502  0.00000000000E+00  0.00000000000E+00  0.40030174796E+02  0.40030174796E+02  0.00000000000E+00 0. -1.
          2   -1    0    0  502    0 -0.00000000000E+00 -0.00000000000E+00 -0.14072745696E+04  0.14072745696E+04  0.00000000000E+00 0. -1.
         23    2    1    2    0    0 -0.18687083495E+01  0.71436940167E+02 -0.28188483137E+03  0.30342379340E+03  0.86603762944E+02 0.  0.
         24    2    1    2    0    0 -0.10337657992E+03  0.23807903812E+02 -0.16245021502E+03  0.21011983785E+03  0.80664368472E+02 0.  0.
        -13    1    4    4    0    0 -0.52899908539E+02  0.28898159719E+01 -0.18446026324E+02  0.56098192903E+02  0.00000000000E+00 0.  1.
         14    1    4    4    0    0 -0.50476671383E+02  0.20918087840E+02 -0.14400418869E+03  0.15402164495E+03  0.00000000000E+00 0. -1.
        -11    1    3    3    0    0  0.38240964050E+02  0.41600889565E+02 -0.10071662928E+03  0.11548525775E+03  0.00000000000E+00 0. -1.
         11    1    3    3    0    0 -0.40109672399E+02  0.29836050602E+02 -0.18116820209E+03  0.18793853565E+03  0.00000000000E+00 0.  1.
          1    1    1    2  501    0  0.10524528827E+03 -0.95244843979E+02 -0.92290934843E+03  0.93376111315E+03  0.00000000000E+00 0. -1.
<scales pt_clust_5="13000.00000" pt_clust_6="13000.00000" pt_clust_7="13000.00000" pt_clust_8="13000.00000" pt_clust_9="109.67795"></scales>
<clustering>
<clus scale="   80.664">  5  6 -1 -1</clus>
<clus scale="   86.604">  7  8 -1 -1</clus>
<clus scale="  112.281">  2  7  1 -1</clus>
<clus scale="  109.678">  1  9  2 -1</clus>
<clus scale="  109.678">  1  5  2 -1</clus>
</clustering>
</event>
<event>
 9    2  0.3764910E-005  0.9260210E+02  0.7546771E-02  0.1304464E+00
          2   -1    0    0  502    0 -0.00000000000E+00  0.00000000000E+00  0.12275327759E+03  0.12275327759E+03  0.00000000000E+00 0. -1.
         21   -1    0    0  501  502  0.00000000000E+00 -0.00000000000E+00 -0.11753092620E+03  0.11753092620E+03  0.00000000000E+00 0.  1.
         23    2    1    2    0    0  0.25622911173E+02 -0.10622577092E+02  0.42907539948E+02  0.10395436575E+03  0.90532206714E+02 0.  0.
         24    2    1    2    0    0 -0.43934614382E+01 -0.20749675203E+02 -0.51851646162E+02  0.95887332300E+02  0.77819893096E+02 0.  0.
        -13    1    4    4    0    0 -0.21432960478E+02  0.90578117263E+01 -0.56628456402E+02  0.61222527084E+02  0.00000000000E+00 0.  1.
         14    1    4    4    0    0  0.17039499040E+02 -0.29807486929E+02  0.47768102402E+01  0.34664805216E+02  0.00000000000E+00 0. -1.
        -11    1    3    3    0    0 -0.64623983648E+01 -0.36524849665E+02 -0.84983336939E+01  0.38053237855E+02  0.00000000000E+00 0.  1.
         11    1    3    3    0    0  0.32085309537E+02  0.25902272573E+02  0.51405873642E+02  0.65901127892E+02  0.00000000000E+00 0. -1.
          1    1    1    2  501    0 -0.21229449734E+02  0.31372252295E+02  0.14166457603E+02  0.40442505747E+02  0.00000000000E+00 0. -1.
<scales pt_clust_5="13000.00000" pt_clust_6="13000.00000" pt_clust_7="13000.00000" pt_clust_8="13000.00000" pt_clust_9="37.88020"></scales>
<clustering>
<clus scale="   37.880">  2  9  1 -1</clus>
<clus scale="   77.820">  5  6 -1 -1</clus>
<clus scale="   80.218">  2  5  1 -1</clus>
<clus scale="   90.532">  7  8 -1 -1</clus>
<clus scale="   37.880">  2  5  1 -1</clus>
</clustering>
</event>
<event>
 9    2  0.3764910E-005  0.1117404E+03  0.7546771E-02  0.1261522E+00
         21   -1    0    0  501  502  0.00000000000E+00  0.00000000000E+00  0.54390246028E+03  0.54390246028E+03  0.00000000000E+00 0. -1.
          4   -1    0    0  502    0 -0.00000000000E+00 -0.00000000000E+00 -0.50716382471E+02  0.50716382471E+02  0.00000000000E+00 0. -1.
         23    2    1    2    0    0  0.43044283748E+02 -0.55641269506E+02  0.54930764634E+02  0.12772309965E+03  0.91362136820E+02 0.  0.
         24    2    1    2    0    0 -0.64163714965E+02  0.15226986306E+01  0.28308191365E+03  0.30120436129E+03  0.80432558668E+02 0.  0.
        -11    1    4    4    0    0 -0.11095908524E+02  0.37289655209E+02  0.10719126607E+03  0.11403335080E+03  0.00000000000E+00 0.  1.
         12    1    4    4    0    0 -0.53067806441E+02 -0.35766956578E+02  0.17589064758E+03  0.18717101049E+03  0.00000000000E+00 0. -1.
        -11    1    3    3    0    0  0.69548931321E+02 -0.47877178014E+02  0.27508301098E+02  0.88803066680E+02  0.00000000000E+00 0. -1.
         11    1    3    3    0    0 -0.26504647573E+02 -0.77640914923E+01  0.27422463536E+02  0.38920032966E+02  0.00000000000E+00 0.  1.
          3    1    1    2  501    0  0.21119431217E+02  0.54118570875E+02  0.15517339952E+03  0.16569138182E+03  0.00000000000E+00 0. -1.
<scales pt_clust_5="13000.00000" pt_clust_6="13000.00000" pt_clust_7="13000.00000" pt_clust_8="13000.00000" pt_clust_9="58.09346"></scales>
<clustering>
<clus scale="   58.093">  1  9  2 -1</clus>
<clus scale="   80.433">  5  6 -1 -1</clus>
<clus scale="   91.362">  7  8 -1 -1</clus>
<clus scale="  102.997">  1  5  2 -1</clus>
<clus scale="   58.093">  1  5  2 -1</clus>
</clustering>
</event>
<event>
 9    2  0.3764910E-005  0.1533090E+03  0.7546771E-02  0.1198162E+00
         21   -1    0    0  501  502  0.00000000000E+00  0.00000000000E+00  0.41066860727E+02  0.41066860727E+02  0.00000000000E+00 0. -1.
          2   -1    0    0  502    0 -0.00000000000E+00 -0.00000000000E+00 -0.13419913667E+04  0.13419913667E+04  0.00000000000E+00 0. -1.
         24    2    1    2    0    0  0.12759667565E+03  0.13954289062E+02 -0.92904690213E+03  0.94125296875E+03  0.79708035937E+02 0.  0.
         23    2    1    2    0    0 -0.10136535400E+03 -0.74800804644E+02 -0.32721337359E+03  0.36189734820E+03  0.89615865833E+02 0.  0.
        -11    1    3    3    0    0  0.57265300856E+02 -0.27241715247E+02 -0.27901241706E+03  0.28612821357E+03  0.00000000000E+00 0.  1.
         12    1    3    3    0    0  0.70331374791E+02  0.41196004309E+02 -0.65003448508E+03  0.65512475517E+03  0.00000000000E+00 0. -1.
        -13    1    4    4    0    0 -0.30595001508E+02 -0.77252075613E+02 -0.19365018398E+03  0.21072335195E+03  0.00000000000E+00 0. -1.
         13    1    4    4    0    0 -0.70770352487E+02  0.24512709690E+01 -0.13356318961E+03  0.15117399624E+03  0.00000000000E+00 0.  1.
          1    1    1    2  501    0 -0.26231321652E+02  0.60846515582E+02 -0.44664230247E+02  0.79907910482E+02  0.00000000000E+00 0. -1.
<scales pt_clust_5="13000.00000" pt_clust_6="13000.00000" pt_clust_7="13000.00000" pt_clust_8="13000.00000" pt_clust_9="66.25995"></scales>
<clustering>
<clus scale="   66.260">  1  9  2 -1</clus>
<clus scale="   79.708">  5  6 -1 -1</clus>
<clus scale="   89.616">  7  8 -1 -1</clus>
<clus scale="  147.736">  2  5  1 -1</clus>
<clus scale="   66.260">  1  5  2 -1</clus>
</clustering>
</event>
<event>
 9    2  0.3764910E-005  0.1666587E+03  0.7546771E-02  0.1187568E+00
         21   -1    0    0  501  502  0.00000000000E+00  0.00000000000E+00  0.38418651511E+03  0.38418651511E+03  0.00000000000E+00 0. -1.
         -3   -1    0    0    0  501 -0.00000000000E+00 -0.00000000000E+00 -0.87433418602E+02  0.87433418602E+02  0.00000000000E+00 0.  1.
         23    2    1    2    0    0 -0.11715448466E+03  0.36292926942E+02  0.65899004856E+02  0.17246734592E+03  0.10178387273E+03 0.  0.
         24    2    1    2    0    0  0.14011968008E+03 -0.46792149912E+02  0.16963558111E+03  0.23293068872E+03  0.60476816447E+02 0.  0.
        -11    1    4    4    0    0  0.22996325944E+02 -0.33544099754E+02  0.32205707831E+02  0.51877213226E+02  0.00000000000E+00 0.  1.
         12    1    4    4    0    0  0.11712335414E+03 -0.13248050158E+02  0.13742987328E+03  0.18105347549E+03  0.00000000000E+00 0. -1.
        -13    1    3    3    0    0 -0.47090048464E+02  0.65197085815E+02  0.16798185878E+02  0.82160280622E+02  0.00000000000E+00 0.  1.
         13    1    3    3    0    0 -0.70064436192E+02 -0.28904158873E+02  0.49100818978E+02  0.90307065302E+02  0.00000000000E+00 0. -1.
         -4    1    1    2    0  502 -0.22965195425E+02  0.10499222970E+02  0.61218510542E+02  0.66221899073E+02  0.00000000000E+00 0.  1.
<scales pt_clust_5="13000.00000" pt_clust_6="13000.00000" pt_clust_7="13000.00000" pt_clust_8="13000.00000" pt_clust_9="25.25141"></scales>
<clustering>
<clus scale="   25.251">  1  9  2 -1</clus>
<clus scale="   60.477">  5  6 -1 -1</clus>
<clus scale="  101.784">  7  8 -1 -1</clus>
<clus scale="  145.164">  1  5  2 -1</clus>
<clus scale="   25.251">  1  5  2 -1</clus>
</clustering>
</event>
<event>
 9    2  0.3764910E-005  0.1040821E+03  0.7546771E-02  0.1277022E+00
          2   -1    0    0  502    0 -0.00000000000E+00  0.00000000000E+00  0.46714317988E+03  0.46714317988E+03  0.00000000000E+00 0. -1.
         21   -1    0    0  501  502  0.00000000000E+00 -0.00000000000E+00 -0.93428000876E+02  0.93428000876E+02  0.00000000000E+00 0.  1.
         23    2    1    2    0    0 -0.60192922694E+02  0.10095206142E+02  0.22395286380E+03  0.24934410500E+03  0.91063144939E+02 0.  0.
         24    2    1    2    0    0 -0.39400531160E+01  0.53212944997E+02 -0.37762371423E+02  0.10317307151E+03  0.79821954721E+02 0.  0.
        -13    1    4    4    0    0  0.28540043268E+02 -0.34040760056E+01 -0.21616049527E+01  0.28823503242E+02  0.00000000000E+00 0.  1.
         14    1    4    4    0    0 -0.32480096384E+02  0.56617021003E+02 -0.35600766470E+02  0.74349568268E+02  0.00000000000E+00 0. -1.
        -13    1    3    3    0    0  0.20554305889E+02  0.76230200286E+01  0.18875803095E+02  0.28928979716E+02  0.00000000000E+00 0.  1.
         13    1    3    3    0    0 -0.80747228583E+02  0.24721861134E+01  0.20507706070E+03  0.22041512529E+03  0.00000000000E+00 0. -1.
          1    1    1    2  501    0  0.64132975810E+02 -0.63308151139E+02  0.18752468663E+03  0.20805400424E+03  0.00000000000E+00 0. -1.
<scales pt_clust_5="13000.00000" pt_clust_6="13000.00000" pt_clust_7="13000.00000" pt_clust_8="13000.00000" pt_clust_9="90.11642"></scales>
<clustering>
<clus scale="   79.822">  5  6 -1 -1</clus>
<clus scale="   90.116">  2  9  1 -1</clus>
<clus scale="   91.063">  7  8 -1 -1</clus>
<clus scale="   94.404">  2  5  1 -1</clus>
<clus scale="   90.116">  2  5  1 -1</clus>
</clustering>
</event>
<event>
 9    2  0.3764910E-005  0.1837721E+03  0.7546771E-02  0.1165445E+00
         21   -1    0    0  501  502  0.00000000000E+00  0.00000000000E+00  0.41806394746E+02  0.41806394746E+02  0.00000000000E+00 0. -1.
          2   -1    0    0  502    0 -0.00000000000E+00 -0.00000000000E+00 -0.12208161343E+04  0.12208161343E+04  0.00000000000E+00 0. -1.
         23    2    1    2    0    0  0.69383947683E+02  0.10373203352E+03 -0.40530361580E+03  0.43424336939E+03  0.93390662854E+02 0.  0.
         24    2    1    2    0    0 -0.11011619890E+03 -0.16664664788E+03 -0.63391360171E+03  0.66976228095E+03  0.82694474078E+02 0.  0.
        -13    1    4    4    0    0 -0.21639135862E+02 -0.79389923639E+02 -0.35511178984E+03  0.36452077508E+03  0.00000000000E+00 0.  1.
         14    1    4    4    0    0 -0.88477063039E+02 -0.87256724236E+02 -0.27880181186E+03  0.30524150587E+03  0.00000000000E+00 0. -1.
        -11    1    3    3    0    0 -0.39186353180E+01  0.48862004578E+02 -0.62544634397E+02  0.79464976474E+02  0.00000000000E+00 0. -1.
         11    1    3    3    0    0  0.73302583001E+02  0.54870028938E+02 -0.34275898140E+03  0.35477839292E+03  0.00000000000E+00 0.  1.
          1    1    1    2  501    0  0.40732251219E+02  0.62914614359E+02 -0.13979252205E+03  0.15861687870E+03  0.00000000000E+00 0. -1.
<scales pt_clust_5="13000.00000" pt_clust_6="13000.00000" pt_clust_7="13000.00000" pt_clust_8="13000.00000" pt_clust_9="74.94908"></scales>
<clustering>
<clus scale="   74.949">  1  9  2 -1</clus>
<clus scale="   82.694">  5  6 -1 -1</clus>
<clus scale="   93.391">  7  8 -1 -1</clus>
<clus scale="  178.574">  1  5  2 -1</clus>
<clus scale="   74.949">  1  5  2 -1</clus>
</clustering>
</event>
<event>
 9    2  0.3764910E-005  0.2762158E+03  0.7546771E-02  0.1122848E+00
          2   -1    0    0  502    0 -0.00000000000E+00  0.00000000000E+00  0.84402834735E+03  0.84402834735E+03  0.00000000000E+00 0. -1.
         21   -1    0    0  501  502  0.00000000000E+00 -0.00000000000E+00 -0.15572774597E+03  0.15572774597E+03  0.00000000000E+00 0. -1.
         24    2    1    2    0    0  0.86085830524E+02 -0.40173938498E+02  0.46003556373E+02  0.15296141631E+03  0.11070750711E+03 0.  0.
         23    2    1    2    0    0  0.19356287424E+03  0.13870307499E+03  0.27616311681E+03  0.37566259129E+03  0.90283919442E+02 0.  0.
        -11    1    3    3    0    0  0.88775173591E+01  0.32037140095E+02  0.32318843590E+02  0.46364817598E+02  0.00000000000E+00 0.  1.
         12    1    3    3    0    0  0.77208313165E+02 -0.72211078592E+02  0.13684712783E+02  0.10659659871E+03  0.00000000000E+00 0. -1.
        -11    1    4    4    0    0  0.30600718144E+02  0.24085292324E+02  0.51273116849E+01  0.39278423879E+02  0.00000000000E+00 0.  1.
         11    1    4    4    0    0  0.16296215610E+03  0.11461778267E+03  0.27103580513E+03  0.33638416741E+03  0.00000000000E+00 0. -1.
          1    1    1    2  501    0 -0.27964870477E+03 -0.98529136496E+02  0.36613392819E+03  0.47113208572E+03  0.00000000000E+00 0. -1.
<scales pt_clust_5="13000.00000" pt_clust_6="13000.00000" pt_clust_7="13000.00000" pt_clust_8="13000.00000" pt_clust_9="261.04414"></scales>
<clustering>
<clus scale="   90.284">  7  8 -1 -1</clus>
<clus scale="  110.708">  5  6 -1 -1</clus>
<clus scale="  145.880">  1  5  2 -1</clus>
<clus scale="  261.044">  2  9  1 -1</clus>
<clus scale="  261.044">  2  5  1 -1</clus>
</clustering>
</event>
<event>
 9    2  0.3764910E-005  0.1243687E+03  0.7546771E-02  0.1241253E+00
         21   -1    0    0  501  502  0.00000000000E+00  0.00000000000E+00  0.47683953271E+03  0.47683953271E+03  0.00000000000E+00 0.  1.
          2   -1    0    0  502    0 -0.00000000000E+00 -0.00000000000E+00 -0.46522637767E+02  0.46522637767E+02  0.00000000000E+00 0. -1.
         23    2    1    2    0    0 -0.24511459765E+02  0.92212673703E+02  0.19597279528E+03  0.23791469152E+03  0.95362860183E+02 0.  0.
         24    2    1    2    0    0  0.13271568407E+01 -0.63913279136E+02  0.22645651288E+03  0.24802313313E+03  0.78398046832E+02 0.  0.
        -13    1    4    4    0    0 -0.25432395768E+02 -0.67421054044E+02  0.14005986682E+03  0.15750927457E+03  0.00000000000E+00 0.  1.
         14    1    4    4    0    0  0.26759552609E+02  0.35077749077E+01  0.86396646062E+02  0.90513858560E+02  0.00000000000E+00 0. -1.
        -13    1    3    3    0    0  0.14865676855E+02  0.94079951621E+02  0.13212308963E+03  0.16287583141E+03  0.00000000000E+00 0.  1.
         13    1    3    3    0    0 -0.39377136620E+02 -0.18672779175E+01  0.63849705652E+02  0.75038860113E+02  0.00000000000E+00 0. -1.
          1    1    1    2  501    0  0.23184302924E+02 -0.28299394568E+02  0.78875867857E+01  0.37424345823E+02  0.00000000000E+00 0. -1.
<scales pt_clust_5="13000.00000" pt_clust_6="13000.00000" pt_clust_7="13000.00000" pt_clust_8="13000.00000" pt_clust_9="36.58373"></scales>
<clustering>
<clus scale="   36.584">  1  9  2 -1</clus>
<clus scale="   78.398">  5  6 -1 -1</clus>
<clus scale="   95.363">  7  8 -1 -1</clus>
<clus scale="  111.892">  1  5  2 -1</clus>
<clus scale="   36.584">  1  5  2 -1</clus>
</clustering>
</event>
<event>
 9    2  0.3764910E-005  0.1515839E+03  0.7546771E-02  0.1222775E+00
         21   -1    0    0  501  502  0.00000000000E+00  0.00000000000E+00  0.66665688952E+02  0.66665688952E+02  0.00000000000E+00 0. -1.
          2   -1    0    0  502    0 -0.00000000000E+00 -0.00000000000E+00 -0.86037070336E+03  0.86037070336E+03  0.00000000000E+00 0. -1.
         24    2    1    2    0    0 -0.32593943583E+02  0.25068559239E+02 -0.49839157512E+03  0.50652233444E+03  0.80497921186E+02 0.  0.
         23    2    1    2    0    0  0.11122591287E+03 -0.77549925825E+02 -0.72998927887E+02  0.17893379706E+03  0.91122256179E+02 0.  0.
        -13    1    3    3    0    0 -0.41961858856E+02 -0.18424807259E+02 -0.24274175376E+03  0.24703001870E+03  0.00000000000E+00 0.  1.
         14    1    3    3    0    0  0.93679152726E+01  0.43493366498E+02 -0.25564982137E+03  0.25949231574E+03  0.00000000000E+00 0. -1.
        -13    1    4    4    0    0  0.88470751076E+02 -0.24496419959E+02 -0.82223448020E+01  0.92166997026E+02  0.00000000000E+00 0. -1.
         13    1    4    4    0    0  0.22755161789E+02 -0.53053505866E+02 -0.64776583085E+02  0.86766800038E+02  0.00000000000E+00 0.  1.
          1    1    1    2  501    0 -0.78631969282E+02  0.52481366586E+02 -0.22231451140E+03  0.24158026080E+03  0.00000000000E+00 0. -1.
<scales pt_clust_5="13000.00000" pt_clust_6="13000.00000" pt_clust_7="13000.00000" pt_clust_8="13000.00000" pt_clust_9="121.13800"></scales>
<clustering>
<clus scale="   80.498">  5  6 -1 -1</clus>
<clus scale="   90.392">  2  5  1 -1</clus>
<clus scale="   91.122">  7  8 -1 -1</clus>
<clus scale="  121.138">  1  9  2 -1</clus>
<clus scale="  121.138">  1  5  2 -1</clus>
</clustering>
</event>
<event>
 9    2  0.3764910E-005  0.1013998E+03  0.7546771E-02  0.1281094E+00
         21   -1    0    0  501  502  0.00000000000E+00  0.00000000000E+00  0.26256542990E+02  0.26256542990E+02  0.00000000000E+00 0.  1.
          2   -1    0    0  502    0 -0.00000000000E+00 -0.00000000000E+00 -0.73072196181E+03  0.73072196181E+03  0.00000000000E+00 0. -1.
         23    2    1    2    0    0 -0.28152147568E+02 -0.48495990963E+02 -0.57118427459E+03  0.58066471149E+03  0.88179516156E+02 0.  0.
         24    2    1    2    0    0  0.78810396735E+01  0.27771885915E+02 -0.87286950871E+02  0.12194586005E+03  0.80114871009E+02 0.  0.
        -13    1    4    4    0    0  0.41101051229E+02  0.17531235943E+02 -0.26583802908E+02  0.51993645985E+02  0.00000000000E+00 0.  1.
         14    1    4    4    0    0 -0.33220011555E+02  0.10240649972E+02 -0.60703147963E+02  0.69952214062E+02  0.00000000000E+00 0. -1.
        -11    1    3    3    0    0 -0.43656435122E+02  0.90221976756E+01 -0.26821262854E+03  0.27189207139E+03  0.00000000000E+00 0.  1.
         11    1    3    3    0    0  0.15504287555E+02 -0.57518188638E+02 -0.30297164606E+03  0.30877264009E+03  0.00000000000E+00 0. -1.
          1    1    1    2  501    0  0.20271107894E+02  0.20724105048E+02 -0.45994193353E+02  0.54367933265E+02  0.00000000000E+00 0. -1.
<scales pt_clust_5="13000.00000" pt_clust_6="13000.00000" pt_clust_7="13000.00000" pt_clust_8="13000.00000" pt_clust_9="28.98976"></scales>
<clustering>
<clus scale="   28.990">  1  9  2 -1</clus>
<clus scale="   80.115">  5  6 -1 -1</clus>
<clus scale="   88.180">  7  8 -1 -1</clus>
<clus scale="   94.471">  1  5  2 -1</clus>
<clus scale="   28.990">  1  5  2 -1</clus>
</clustering>
</event>
<event>
 9    2  0.3764910E-005  0.1274100E+03  0.7546771E-02  0.1247018E+00
         21   -1    0    0  501  502  0.00000000000E+00  0.00000000000E+00  0.15644551180E+03  0.15644551180E+03  0.00000000000E+00 0. -1.
         -1   -1    0    0    0  501 -0.00000000000E+00 -0.00000000000E+00 -0.16613768080E+03  0.16613768080E+03  0.00000000000E+00 0.  1.
         23    2    1    2    0    0 -0.13319473819E+02 -0.19480210574E+02 -0.14444970379E+02  0.93763781026E+02  0.89588517547E+02 0.  0.
         24    2    1    2    0    0  0.45636348422E+02 -0.81228146671E+02 -0.73561955962E+01  0.12236199562E+03  0.78978834192E+02 0.  0.
        -11    1    4    4    0    0  0.25818683530E+02 -0.95641386626E+01 -0.33665661013E+02  0.43490848452E+02  0.00000000000E+00 0.  1.
         12    1    4    4    0    0  0.19817664892E+02 -0.71664008008E+02  0.26309465417E+02  0.78871147171E+02  0.00000000000E+00 0. -1.
        -11    1    3    3    0    0  0.38604012154E+01  0.30196896877E+02  0.14541416085E+02  0.33737339259E+02  0.00000000000E+00 0.  1.
         11    1    3    3    0    0 -0.17179875034E+02 -0.49677107451E+02 -0.28986386464E+02  0.60026441767E+02  0.00000000000E+00 0. -1.
         -2    1    1    2    0  502 -0.32316874603E+02  0.10070835724E+03  0.12108996982E+02  0.10645741595E+03  0.00000000000E+00 0.  1.
<scales pt_clust_5="13000.00000" pt_clust_6="13000.00000" pt_clust_7="13000.00000" pt_clust_8="13000.00000" pt_clust_9="99.97824"></scales>
<clustering>
<clus scale="   78.979">  5  6 -1 -1</clus>
<clus scale="   89.589">  7  8 -1 -1</clus>
<clus scale="   92.644">  2  7  1 -1</clus>
<clus scale="   99.978">  1  9  2 -1</clus>
<clus scale="   99.978">  1  5  2 -1</clus>
</clustering>
</event>
<event>
 9    2  0.3764910E-005  0.1756359E+03  0.7546771E-02  0.1188296E+00
         21   -1    0    0  501  502  0.00000000000E+00  0.00000000000E+00  0.66871392664E+03  0.66871392664E+03  0.00000000000E+00 0.  1.
         -1   -1    0    0    0  501 -0.00000000000E+00 -0.00000000000E+00 -0.19215270365E+03  0.19215270365E+03  0.00000000000E+00 0.  1.
         23    2    1    2    0    0  0.76411294685E+02  0.23522492251E+01 -0.73017538308E+02  0.14221419794E+03  0.95126747879E+02 0.  0.
         24    2    1    2    0    0  0.29082833678E+02  0.12355798871E+03  0.43661592716E+01  0.14923239359E+03  0.78350852969E+02 0.  0.
        -13    1    4    4    0    0  0.45145225717E+02  0.40980077838E+02  0.18958802268E+02  0.63850562785E+02  0.00000000000E+00 0.  1.
         14    1    4    4    0    0 -0.16062392038E+02  0.82577910868E+02 -0.14592642996E+02  0.85381830801E+02  0.00000000000E+00 0. -1.
        -13    1    3    3    0    0  0.37389190100E+02  0.39326669683E+02 -0.69730608145E+02  0.88356642065E+02  0.00000000000E+00 0.  1.
         13    1    3    3    0    0  0.39022104585E+02 -0.36974420458E+02 -0.32869301623E+01  0.53857555870E+02  0.00000000000E+00 0. -1.
         -2    1    1    2    0  502 -0.10549412836E+03 -0.12591023793E+03  0.54521260202E+03  0.56942003876E+03  0.00000000000E+00 0.  1.
<scales pt_clust_5="13000.00000" pt_clust_6="13000.00000" pt_clust_7="13000.00000" pt_clust_8="13000.00000" pt_clust_9="157.19132"></scales>
<clustering>
<clus scale="   78.351">  5  6 -1 -1</clus>
<clus scale="   95.127">  7  8 -1 -1</clus>
<clus scale="  122.038">  2  7  1 -1</clus>
<clus scale="  157.191">  1  9  2 -1</clus>
<clus scale="  157.191">  1  5  2 -1</clus>
</clustering>
</event>
<event>
 9    2  0.3764910E-005  0.1686791E+03  0.7546771E-02  0.1191067E+00
         21   -1    0    0  501  502  0.00000000000E+00  0.00000000000E+00  0.30855870362E+02  0.30855870362E+02  0.00000000000E+00 0. -1.
          2   -1    0    0  502    0 -0.00000000000E+00 -0.00000000000E+00 -0.16994065315E+04  0.16994065315E+04  0.00000000000E+00 0. -1.
         24    2    1    2    0    0  0.53274479332E+02  0.87296258134E+02 -0.43985547652E+03  0.45854602141E+03  0.79578933696E+02 0.  0.
         23    2    1    2    0    0  0.11294217371E+03 -0.42507745115E+02 -0.68908343208E+03  0.70531119853E+03  0.89805720321E+02 0.  0.
        -13    1    3    3    0    0  0.19921284968E+02 -0.12788520942E+02 -0.67306688150E+02  0.71348399649E+02  0.00000000000E+00 0.  1.
         14    1    3    3    0    0  0.33353194364E+02  0.10008477908E+03 -0.37254878837E+03  0.38719762176E+03  0.00000000000E+00 0. -1.
        -11    1    4    4    0    0  0.55187788706E+02  0.23685189097E+02 -0.34516934960E+03  0.35035490593E+03  0.00000000000E+00 0.  1.
         11    1    4    4    0    0  0.57754385000E+02 -0.66192934212E+02 -0.34391408249E+03  0.35495629260E+03  0.00000000000E+00 0. -1.
          1    1    1    2  501    0 -0.16621665304E+03 -0.44788513019E+02 -0.53961175258E+03  0.56640518197E+03  0.00000000000E+00 0. -1.
<scales pt_clust_5="13000.00000" pt_clust_6="13000.00000" pt_clust_7="13000.00000" pt_clust_8="13000.00000" pt_clust_9="142.78510"></scales>
<clustering>
<clus scale="   79.579">  5  6 -1 -1</clus>
<clus scale="   89.806">  7  8 -1 -1</clus>
<clus scale="  129.583">  2  5  1 -1</clus>
<clus scale="  142.785">  1  9  2 -1</clus>
<clus scale="  142.785">  1  5  2 -1</clus>
</clustering>
</event>
<event>
 9    2  0.3764910E-005  0.9414784E+02  0.7546771E-02  0.1294031E+00
          2   -1    0    0  502    0 -0.00000000000E+00  0.00000000000E+00  0.39196024789E+03  0.39196024789E+03  0.00000000000E+00 0. -1.
         21   -1    0    0  501  502  0.00000000000E+00 -0.00000000000E+00 -0.15556996333E+03  0.15556996333E+03  0.00000000000E+00 0. -1.
         23    2    1    2    0    0 -0.21616574368E+02  0.18103969765E+01  0.32593382983E+03  0.33953277416E+03  0.92623374356E+02 0.  0.
         24    2    1    2    0    0 -0.12098128622E+02  0.23128412682E+02  0.14552986201E+02  0.95771266820E+02  0.90989328779E+02 0.  0.
        -13    1    4    4    0    0  0.20450622489E+02  0.37732323501E+02 -0.18872382807E+02  0.46884144759E+02  0.00000000000E+00 0.  1.
         14    1    4    4    0    0 -0.32548751111E+02 -0.14603910819E+02  0.33425369008E+02  0.48887122061E+02  0.00000000000E+00 0. -1.
        -13    1    3    3    0    0  0.29089650000E+02 -0.24036237444E+02  0.11358377918E+03  0.11968802505E+03  0.00000000000E+00 0.  1.
         13    1    3    3    0    0 -0.50706224368E+02  0.25846634421E+02  0.21235005065E+03  0.21984474911E+03  0.00000000000E+00 0. -1.
          1    1    1    2  501    0  0.33714702990E+02 -0.24938809659E+02 -0.10409653147E+03  0.11222617025E+03  0.00000000000E+00 0. -1.
<scales pt_clust_5="13000.00000" pt_clust_6="13000.00000" pt_clust_7="13000.00000" pt_clust_8="13000.00000" pt_clust_9="41.93597"></scales>
<clustering>
<clus scale="   41.936">  2  9  1 -1</clus>
<clus scale="   90.989">  5  6 -1 -1</clus>
<clus scale="   92.541">  2  5  1 -1</clus>
<clus scale="   92.623">  7  8 -1 -1</clus>
<clus scale="   41.936">  2  5  1 -1</clus>
</clustering>
</event>
<event>
 9    2  0.3764910E-005  0.1250793E+03  0.7546771E-02  0.1234993E+00
         21   -1    0    0  501  502  0.00000000000E+00  0.00000000000E+00  0.28743070259E+03  0.28743070259E+03  0.00000000000E+00 0.  1.
         -1   -1    0    0    0  501 -0.00000000000E+00 -0.00000000000E+00 -0.24775189636E+03  0.24775189636E+03  0.00000000000E+00 0.  1.
         23    2    1    2    0    0  0.39474977449E+02 -0.88508324240E+02 -0.16327929144E+03  0.20953356429E+03  0.88612585162E+02 0.  0.
         24    2    1    2    0    0 -0.52070504125E+02  0.48980298809E+02 -0.45060089193E+01  0.11407761029E+03  0.88786203787E+02 0.  0.
        -13    1    4    4    0    0 -0.31240439630E+02 -0.12749607665E+02 -0.28983967922E+02  0.44481321478E+02  0.00000000000E+00 0.  1.
         14    1    4    4    0    0 -0.20830064495E+02  0.61729906474E+02  0.24477959003E+02  0.69596288817E+02  0.00000000000E+00 0. -1.
        -11    1    3    3    0    0 -0.24656846723E+02 -0.40793454358E+02 -0.38157872279E+02  0.61058080756E+02  0.00000000000E+00 0.  1.
         11    1    3    3    0    0  0.64131824173E+02 -0.47714869882E+02 -0.12512141916E+03  0.14847548354E+03  0.00000000000E+00 0. -1.
         -2    1    1    2    0  502  0.12595526675E+02  0.39528025431E+02  0.20746410658E+03  0.21157142436E+03  0.00000000000E+00 0.  1.
<scales pt_clust_5="13000.00000" pt_clust_6="13000.00000" pt_clust_7="13000.00000" pt_clust_8="13000.00000" pt_clust_9="41.48629"></scales>
<clustering>
<clus scale="   41.486">  1  9  2 -1</clus>
<clus scale="   88.613">  7  8 -1 -1</clus>
<clus scale="   88.786">  5  6 -1 -1</clus>
<clus scale="  124.956">  2  7  1 -1</clus>
<clus scale="   41.486">  1  5  2 -1</clus>
</clustering>
</event>
<event>
 9    2  0.3764910E-005  0.1064448E+03  0.7546771E-02  0.1268730E+00
         21   -1    0    0  501  502  0.00000000000E+00  0.00000000000E+00  0.19744333565E+03  0.19744333565E+03  0.00000000000E+00 0.  1.
          2   -1    0    0  502    0 -0.00000000000E+00 -0.00000000000E+00 -0.24028640775E+03  0.24028640775E+03  0.00000000000E+00 0. -1.
         24    2    1    2    0    0  0.29064200123E+02 -0.47828870778E+02 -0.17625857372E+03  0.20506422844E+03  0.88611084903E+02 0.  0.
         23    2    1    2    0    0  0.39630234078E+02  0.55749003822E+02  0.11201459514E+03  0.16028007033E+03  0.91999589887E+02 0.  0.
        -13    1    3    3    0    0 -0.31208427043E+02 -0.14979426435E+02 -0.43346447208E+02  0.55473089155E+02  0.00000000000E+00 0.  1.
         14    1    3    3    0    0  0.60272627166E+02 -0.32849444342E+02 -0.13291212651E+03  0.14959113928E+03  0.00000000000E+00 0. -1.
        -11    1    4    4    0    0  0.31985077536E+02 -0.20509996914E+02  0.36576725198E+02  0.52740515590E+02  0.00000000000E+00 0.  1.
         11    1    4    4    0    0  0.76451565418E+01  0.76259000736E+02  0.75437869943E+02  0.10753955474E+03  0.00000000000E+00 0. -1.
          1    1    1    2  501    0 -0.68694434201E+02 -0.79201330449E+01  0.21400906467E+02  0.72385444637E+02  0.00000000000E+00 0. -1.
<scales pt_clust_5="13000.00000" pt_clust_6="13000.00000" pt_clust_7="13000.00000" pt_clust_8="13000.00000" pt_clust_9="69.14950"></scales>
<clustering>
<clus scale="   69.150">  1  9  2 -1</clus>
<clus scale="   88.611">  5  6 -1 -1</clus>
<clus scale="   92.000">  7  8 -1 -1</clus>
<clus scale="  103.530">  2  5  1 -1</clus>
<clus scale="   69.150">  1  5  2 -1</clus>
</clustering>
</event>
<event>
 9    2  0.3764910E-005  0.9694853E+02  0.7546771E-02  0.1292255E+00
         21   -1    0    0  501  502  0.00000000000E+00  0.00000000000E+00  0.26398555705E+03  0.26398555705E+03  0.00000000000E+00 0.  1.
         -3   -1    0    0    0  501 -0.00000000000E+00 -0.00000000000E+00 -0.21857453314E+03  0.21857453314E+03  0.00000000000E+00 0.  1.
         23    2    1    2    0    0 -0.33274512578E+02 -0.11831650881E+02 -0.12956100113E+03  0.16153586230E+03  0.89780847874E+02 0.  0.
         24    2    1    2    0    0  0.43044304848E+02 -0.35010160393E+02 -0.36906040093E+02  0.10381023523E+03  0.79598904718E+02 0.  0.
        -11    1    4    4    0    0  0.59346364251E+02 -0.15711978328E+01 -0.17733122205E+02  0.61959044825E+02  0.00000000000E+00 0.  1.
         12    1    4    4    0    0 -0.16302059403E+02 -0.33438962560E+02 -0.19172917888E+02  0.41851190404E+02  0.00000000000E+00 0. -1.
        -13    1    3    3    0    0  0.51635496076E+01 -0.41043166232E+02 -0.30692311135E+02  0.51509433134E+02  0.00000000000E+00 0.  1.
         13    1    3    3    0    0 -0.38438062186E+02  0.29211515352E+02 -0.98868689990E+02  0.11002642916E+03  0.00000000000E+00 0. -1.
         -4    1    1    2    0  502 -0.97697922699E+01  0.46841811274E+02  0.21187806513E+03  0.21721399266E+03  0.00000000000E+00 0.  1.
<scales pt_clust_5="13000.00000" pt_clust_6="13000.00000" pt_clust_7="13000.00000" pt_clust_8="13000.00000" pt_clust_9="47.84981"></scales>
<clustering>
<clus scale="   47.850">  1  9  2 -1</clus>
<clus scale="   79.599">  5  6 -1 -1</clus>
<clus scale="   87.604">  1  5  2 -1</clus>
<clus scale="   89.781">  7  8 -1 -1</clus>
<clus scale="   47.850">  1  5  2 -1</clus>
</clustering>
</event>
<event>
 9    2  0.3764910E-005  0.1117501E+03  0.7546771E-02  0.1261406E+00
          2   -1    0    0  502    0 -0.00000000000E+00  0.00000000000E+00  0.44185630816E+03  0.44185630816E+03  0.00000000000E+00 0. -1.
         21   -1    0    0  501  502  0.00000000000E+00 -0.00000000000E+00 -0.11916097302E+03  0.11916097302E+03  0.00000000000E+00 0.  1.
         23    2    1    2    0    0  0.63213700728E+02  0.18502593996E+02  0.39204003956E+03  0.40804926565E+03  0.92035279303E+02 0.  0.
         24    2    1    2    0    0 -0.32715982598E+02 -0.38183709836E+02 -0.32086803265E+02  0.10095255313E+03  0.81446447588E+02 0.  0.
        -13    1    4    4    0    0 -0.52188426602E+02 -0.43555656043E+02 -0.40437817651E+02  0.79094526618E+02  0.00000000000E+00 0.  1.
         14    1    4    4    0    0  0.19472444004E+02  0.53719462067E+01  0.83510143867E+01  0.21858026508E+02  0.00000000000E+00 0. -1.
        -11    1    3    3    0    0  0.15452818115E+02 -0.26330493852E+02  0.41950146786E+02  0.51883516742E+02  0.00000000000E+00 0.  1.
         11    1    3    3    0    0  0.47760882613E+02  0.44833087848E+02  0.35008989277E+03  0.35616574891E+03  0.00000000000E+00 0. -1.
          1    1    1    2  501    0 -0.30497718130E+02  0.19681115840E+02 -0.37257901147E+02  0.52015462410E+02  0.00000000000E+00 0. -1.
<scales pt_clust_5="13000.00000" pt_clust_6="13000.00000" pt_clust_7="13000.00000" pt_clust_8="13000.00000" pt_clust_9="36.29679"></scales>
<clustering>
<clus scale="   36.297">  2  9  1 -1</clus>
<clus scale="   81.446">  5  6 -1 -1</clus>
<clus scale="   92.035">  7  8 -1 -1</clus>
<clus scale="  103.204">  2  5  1 -1</clus>
<clus scale="   36.297">  2  5  1 -1</clus>
</clustering>
</event>
<event>
 9    2  0.3764910E-005  0.1216452E+03  0.7546771E-02  0.1244262E+00
         21   -1    0    0  501  502  0.00000000000E+00  0.00000000000E+00  0.14766662851E+03  0.14766662851E+03  0.00000000000E+00 0. -1.
          2   -1    0    0  502    0 -0.00000000000E+00 -0.00000000000E+00 -0.13907968855E+03  0.13907968855E+03  0.00000000000E+00 0. -1.
         23    2    1    2    0    0 -0.77840928910E+02 -0.16944853178E+02 -0.18633514812E+02  0.12216693614E+03  0.90726038984E+02 0.  0.
         24    2    1    2    0    0  0.85248137463E+02 -0.26164575213E+02  0.17963030692E+02  0.11986932103E+03  0.78065060792E+02 0.  0.
        -13    1    4    4    0    0  0.35386650911E+02  0.10375753868E+02  0.39847521303E+02  0.54292690899E+02  0.00000000000E+00 0.  1.
         14    1    4    4    0    0  0.49861486553E+02 -0.36540329080E+02 -0.21884490611E+02  0.65576630135E+02  0.00000000000E+00 0. -1.
        -13    1    3    3    0    0 -0.37220374289E+02 -0.53903082006E+02 -0.57390270037E+01  0.65755873828E+02  0.00000000000E+00 0.  1.
         13    1    3    3    0    0 -0.40620554621E+02  0.36958228828E+02 -0.12894487808E+02  0.56411062316E+02  0.00000000000E+00 0. -1.
          1    1    1    2  501    0 -0.74072085533E+01  0.43109428391E+02  0.92574240795E+01  0.44710059889E+02  0.00000000000E+00 0. -1.
<scales pt_clust_5="13000.00000" pt_clust_6="13000.00000" pt_clust_7="13000.00000" pt_clust_8="13000.00000" pt_clust_9="43.74117"></scales>
<clustering>
<clus scale="   43.741">  1  9  2 -1</clus>
<clus scale="   78.065">  5  6 -1 -1</clus>
<clus scale="   90.726">  7  8 -1 -1</clus>
<clus scale="  112.519">  1  5  2 -1</clus>
<clus scale="   43.741">  1  5  2 -1</clus>
</clustering>
</event>
<event>
 9    2  0.3764910E-005  0.1364452E+03  0.7546771E-02  0.1227296E+00
         21   -1    0    0  501  502  0.00000000000E+00  0.00000000000E+00  0.13245370002E+03  0.13245370002E+03  0.00000000000E+00 0. -1.
          2   -1    0    0  502    0 -0.00000000000E+00 -0.00000000000E+00 -0.28842474433E+03  0.28842474433E+03  0.00000000000E+00 0. -1.
         23    2    1    2    0    0  0.61779874508E+02  0.22669826276E+02  0.11050723720E+02  0.11334781266E+03  0.91623873650E+02 0.  0.
         24    2    1    2    0    0 -0.20757204319E+02  0.95726041159E+02 -0.11906905486E+03  0.17336691231E+03  0.79273639835E+02 0.  0.
        -13    1    4    4    0    0 -0.17888284382E+02  0.12094451190E+02 -0.76483740406E+02  0.79473448485E+02  0.00000000000E+00 0.  1.
         14    1    4    4    0    0 -0.28689199362E+01  0.83631589969E+02 -0.42585314453E+02  0.93893463827E+02  0.00000000000E+00 0. -1.
        -13    1    3    3    0    0  0.39948012402E+02  0.27031592168E+02 -0.36735156829E+02  0.60630210434E+02  0.00000000000E+00 0.  1.
         13    1    3    3    0    0  0.21831862106E+02 -0.43617658919E+01  0.47785880549E+02  0.52717602227E+02  0.00000000000E+00 0. -1.
          1    1    1    2  501    0 -0.41022670189E+02 -0.11839586743E+03 -0.47952713175E+02  0.13416371937E+03  0.00000000000E+00 0. -1.
<scales pt_clust_5="13000.00000" pt_clust_6="13000.00000" pt_clust_7="13000.00000" pt_clust_8="13000.00000" pt_clust_9="111.05393"></scales>
<clustering>
<clus scale="   79.274">  5  6 -1 -1</clus>
<clus scale="   91.624">  7  8 -1 -1</clus>
<clus scale="  112.808">  2  7  1 -1</clus>
<clus scale="  111.054">  1  9  2 -1</clus>
<clus scale="  111.054">  1  5  2 -1</clus>
</clustering>
</event>
<event>
 9    2  0.3764910E-005  0.1081510E+03  0.7546771E-02  0.1269393E+00
         -3   -1    0    0    0  501 -0.00000000000E+00  0.00000000000E+00  0.59831538549E+03  0.59831538549E+03  0.00000000000E+00 0.  1.
         21   -1    0    0  501  502  0.00000000000E+00 -0.00000000000E+00 -0.80910737342E+02  0.80910737342E+02  0.00000000000E+00 0.  1.
         23    2    1    2    0    0  0.24270828745E+02  0.50562032525E+02  0.55261271652E+03  0.56326220507E+03  0.93476761475E+02 0.  0.
         24    2    1    2    0    0 -0.11583002845E+02 -0.32518381171E+02 -0.32546585485E+02  0.93745957207E+02  0.80854271360E+02 0.  0.
        -13    1    4    4    0    0 -0.23290815794E+02  0.21549029004E+02 -0.56350706549E+01  0.32226957235E+02  0.00000000000E+00 0.  1.
         14    1    4    4    0    0  0.11707812949E+02 -0.54067410175E+02 -0.26911514830E+02  0.61518999972E+02  0.00000000000E+00 0. -1.
        -13    1    3    3    0    0  0.11354082403E+02  0.76939674632E+02  0.44340415836E+03  0.45017316265E+03  0.00000000000E+00 0.  1.
         13    1    3    3    0    0  0.12916746342E+02 -0.26377642108E+02  0.10920855817E+03  0.11308904242E+03  0.00000000000E+00 0. -1.
         -4    1    1    2    0  502 -0.12687825900E+02 -0.18043651354E+02 -0.26614828864E+01  0.22217960559E+02  0.00000000000E+00 0.  1.
<scales pt_clust_5="13000.00000" pt_clust_6="13000.00000" pt_clust_7="13000.00000" pt_clust_8="13000.00000" pt_clust_9="22.05798"></scales>
<clustering>
<clus scale="   22.058">  2  9  1 -1</clus>
<clus scale="   80.854">  5  6 -1 -1</clus>
<clus scale="   93.477">  7  8 -1 -1</clus>
<clus scale="   97.448">  2  5  1 -1</clus>
<clus scale="   22.058">  2  5  1 -1</clus>
</clustering>
</event>
<event>
 9    2  0.3764910E-005  0.2745649E+03  0.7546771E-02  0.1119953E+00
         21   -1    0    0  501  502  0.00000000000E+00  0.00000000000E+00  0.42946186136E+03  0.42946186136E+03  0.00000000000E+00 0.  1.
         -3   -1    0    0    0  501 -0.00000000000E+00 -0.00000000000E+00 -0.31327231470E+03  0.31327231470E+03  0.00000000000E+00 0.  1.
         24    2    1    2    0    0 -0.13610539357E+03 -0.26885912673E+02 -0.48228065565E+02  0.16677477687E+03  0.78995882376E+02 0.  0.
         23    2    1    2    0    0  0.26692996166E+02  0.26879577742E+03  0.10409157013E+03  0.30368988800E+03  0.91808535004E+02 0.  0.
        -11    1    3    3    0    0 -0.10079423530E+03 -0.51770683401E+02 -0.19715273788E+02  0.11501466667E+03  0.00000000000E+00 0.  1.
         12    1    3    3    0    0 -0.35311158272E+02  0.24884770728E+02 -0.28512791777E+02  0.51760110197E+02  0.00000000000E+00 0. -1.
        -13    1    4    4    0    0  0.49136291031E+02  0.14464408793E+03  0.25026675698E+02  0.15479864911E+03  0.00000000000E+00 0.  1.
         13    1    4    4    0    0 -0.22443294866E+02  0.12415168949E+03  0.79064894434E+02  0.14889123890E+03  0.00000000000E+00 0. -1.
         -4    1    1    2    0  502  0.10941239741E+03 -0.24190986475E+03  0.60326042088E+02  0.27226951119E+03  0.00000000000E+00 0.  1.
<scales pt_clust_5="13000.00000" pt_clust_6="13000.00000" pt_clust_7="13000.00000" pt_clust_8="13000.00000" pt_clust_9="258.76083"></scales>
<clustering>
<clus scale="   78.996">  5  6 -1 -1</clus>
<clus scale="   91.809">  7  8 -1 -1</clus>
<clus scale="  159.649">  2  5  1 -1</clus>
<clus scale="  258.761">  1  9  2 -1</clus>
<clus scale="  258.761">  1  5  2 -1</clus>
</clustering>
</event>
<event>
 9    2  0.3764910E-005  0.9289819E+02  0.7546771E-02  0.1302401E+00
         21   -1    0    0  501  502  0.00000000000E+00  0.00000000000E+00  0.50995998971E+02  0.50995998971E+02  0.00000000000E+00 0.  1.
          2   -1    0    0  502    0 -0.00000000000E+00 -0.00000000000E+00 -0.37687368007E+03  0.37687368007E+03  0.00000000000E+00 0. -1.
         23    2    1    2    0    0  0.12511847203E+02  0.25482516555E+02 -0.14404032153E+03  0.17244328445E+03  0.90460859787E+02 0.  0.
         24    2    1    2    0    0 -0.19616905905E+02  0.96533511732E+01 -0.14095397224E+02  0.83896872380E+02  0.79762113726E+02 0.  0.
        -11    1    4    4    0    0  0.39914642858E+01  0.33643322302E+02  0.17148837336E+02  0.37972194362E+02  0.00000000000E+00 0.  1.
         12    1    4    4    0    0 -0.23608370191E+02 -0.23989971129E+02 -0.31244234560E+02  0.45924678018E+02  0.00000000000E+00 0. -1.
        -13    1    3    3    0    0  0.10476766318E+02  0.58164999973E+02 -0.11196144411E+03  0.12660290210E+03  0.00000000000E+00 0.  1.
         13    1    3    3    0    0  0.20350808854E+01 -0.32682483418E+02 -0.32078877424E+02  0.45840382343E+02  0.00000000000E+00 0. -1.
          1    1    1    2  501    0  0.71050587021E+01 -0.35135867729E+02 -0.16774196235E+03  0.17152952222E+03  0.00000000000E+00 0. -1.
<scales pt_clust_5="13000.00000" pt_clust_6="13000.00000" pt_clust_7="13000.00000" pt_clust_8="13000.00000" pt_clust_9="35.84707"></scales>
<clustering>
<clus scale="   35.847">  1  9  2 -1</clus>
<clus scale="   79.762">  5  6 -1 -1</clus>
<clus scale="   82.516">  1  5  2 -1</clus>
<clus scale="   90.461">  7  8 -1 -1</clus>
<clus scale="   35.847">  1  5  2 -1</clus>
</clustering>
</event>
<event>
 9    2  0.3764910E-005  0.1263557E+03  0.7546771E-02  0.1237257E+00
         21   -1    0    0  501  502  0.00000000000E+00  0.00000000000E+00  0.61531443846E+02  0.61531443846E+02  0.00000000000E+00 0.  1.
          2   -1    0    0  502    0 -0.00000000000E+00 -0.00000000000E+00 -0.66326643895E+03  0.66326643895E+03  0.00000000000E+00 0. -1.
         23    2    1    2    0    0  0.63128850202E+02 -0.10141980005E+03 -0.23574963495E+03  0.27981142486E+03  0.91898397876E+02 0.  0.
         24    2    1    2    0    0 -0.39465032754E+01  0.38970589269E+02 -0.19856359021E+02  0.88324517805E+02  0.76633306961E+02 0.  0.
        -13    1    4    4    0    0 -0.99689800586E+01  0.17749121127E+02  0.28587261406E+02  0.35094777088E+02  0.00000000000E+00 0.  1.
         14    1    4    4    0    0  0.60224767832E+01  0.21221468142E+02 -0.48443620427E+02  0.53229740717E+02  0.00000000000E+00 0. -1.
        -11    1    3    3    0    0  0.22429421294E+01 -0.48126821888E+02 -0.16643088620E+03  0.17326413840E+03  0.00000000000E+00 0.  1.
         11    1    3    3    0    0  0.60885908073E+02 -0.53292978158E+02 -0.69318748749E+02  0.10654728646E+03  0.00000000000E+00 0. -1.
          1    1    1    2  501    0 -0.59182346927E+02  0.62449210778E+02 -0.34612900113E+03  0.35666194013E+03  0.00000000000E+00 0. -1.
<scales pt_clust_5="13000.00000" pt_clust_6="13000.00000" pt_clust_7="13000.00000" pt_clust_8="13000.00000" pt_clust_9="86.03756"></scales>
<clustering>
<clus scale="   76.633">  5  6 -1 -1</clus>
<clus scale="   86.038">  1  9  2 -1</clus>
<clus scale="   91.898">  7  8 -1 -1</clus>
<clus scale="  115.729">  1  5  2 -1</clus>
<clus scale="   86.038">  1  5  2 -1</clus>
</clustering>
</event>
<event>
 9    2  0.3764910E-005  0.1079428E+03  0.7546771E-02  0.1266017E+00
          2   -1    0    0  502    0 -0.00000000000E+00  0.00000000000E+00  0.16679153336E+03  0.16679153336E+03  0.00000000000E+00 0. -1.
         21   -1    0    0  501  502  0.00000000000E+00 -0.00000000000E+00 -0.15909126139E+03  0.15909126139E+03  0.00000000000E+00 0. -1.
         23    2    1    2    0    0  0.64444648221E+02 -0.39766985140E+02  0.10104194059E+03  0.15118606276E+03  0.83145811822E+02 0.  0.
         24    2    1    2    0    0 -0.57364581001E+02 -0.72620536573E+01 -0.47681174888E+02  0.10876693198E+03  0.78824605788E+02 0.  0.
        -13    1    4    4    0    0  0.16289489069E+02 -0.16433922683E+02 -0.72611942716E+01  0.24251725941E+02  0.00000000000E+00 0.  1.
         14    1    4    4    0    0 -0.73654070070E+02  0.91718690258E+01 -0.40419980616E+02  0.84515206042E+02  0.00000000000E+00 0. -1.
        -13    1    3    3    0    0  0.67007735566E+02 -0.18676726218E+02  0.27776695247E+02  0.74902613618E+02  0.00000000000E+00 0.  1.
         13    1    3    3    0    0 -0.25630873449E+01 -0.21090258922E+02  0.73265245342E+02  0.76283449143E+02  0.00000000000E+00 0. -1.
          1    1    1    2  501    0 -0.70800672206E+01  0.47029038798E+02 -0.45660493725E+02  0.65929800010E+02  0.00000000000E+00 0. -1.
<scales pt_clust_5="13000.00000" pt_clust_6="13000.00000" pt_clust_7="13000.00000" pt_clust_8="13000.00000" pt_clust_9="47.55899"></scales>
<clustering>
<clus scale="   47.559">  2  9  1 -1</clus>
<clus scale="   78.825">  5  6 -1 -1</clus>
<clus scale="   83.146">  7  8 -1 -1</clus>
<clus scale="  104.651">  2  5  1 -1</clus>
<clus scale="   47.559">  2  5  1 -1</clus>
</clustering>
</event>
<event>
 9    2  0.3764910E-005  0.9393618E+02  0.7546771E-02  0.1301374E+00
          2   -1    0    0  502    0 -0.00000000000E+00  0.00000000000E+00  0.32337983894E+03  0.32337983894E+03  0.00000000000E+00 0. -1.
         21   -1    0    0  501  502  0.00000000000E+00 -0.00000000000E+00 -0.42092901640E+02  0.42092901640E+02  0.00000000000E+00 0. -1.
         23    2    1    2    0    0 -0.29589875640E+02  0.27278402705E+02  0.12798275346E+03  0.16294522161E+03  0.92476418992E+02 0.  0.
         24    2    1    2    0    0  0.33642749575E+01  0.16159513952E+02  0.88041926303E+02  0.11986073607E+03  0.79641490617E+02 0.  0.
        -11    1    4    4    0    0  0.23932487017E+02 -0.12641278644E+02  0.23735720425E+01  0.27169830784E+02  0.00000000000E+00 0.  1.
         12    1    4    4    0    0 -0.20568212060E+02  0.28800792597E+02  0.85668354261E+02  0.92690905289E+02  0.00000000000E+00 0. -1.
        -11    1    3    3    0    0  0.78857208886E+01  0.39186797337E+02  0.11465946221E+03  0.12142727023E+03  0.00000000000E+00 0. -1.
         11    1    3    3    0    0 -0.37475596529E+02 -0.11908394632E+02  0.13323291246E+02  0.41517951389E+02  0.00000000000E+00 0.  1.
          1    1    1    2  501    0  0.26225600683E+02 -0.43437916657E+02  0.65262257534E+02  0.82666782888E+02  0.00000000000E+00 0. -1.
<scales pt_clust_5="13000.00000" pt_clust_6="13000.00000" pt_clust_7="13000.00000" pt_clust_8="13000.00000" pt_clust_9="50.74088"></scales>
<clustering>
<clus scale="   50.741">  2  9  1 -1</clus>
<clus scale="   79.641">  5  6 -1 -1</clus>
<clus scale="   81.332">  2  5  1 -1</clus>
<clus scale="   92.476">  7  8 -1 -1</clus>
<clus scale="   50.741">  2  5  1 -1</clus>
</clustering>
</event>
<event>
 9    2  0.3764910E-005  0.9399008E+02  0.7546771E-02  0.1299562E+00
          2   -1    0    0  502    0 -0.00000000000E+00  0.00000000000E+00  0.41256583451E+03  0.41256583451E+03  0.00000000000E+00 0. -1.
         21   -1    0    0  501  502  0.00000000000E+00 -0.00000000000E+00 -0.55100317703E+02  0.55100317703E+02  0.00000000000E+00 0.  1.
         24    2    1    2    0    0  0.10970538665E+02 -0.65264787489E+01  0.26624566067E+03  0.27876707928E+03  0.81617308358E+02 0.  0.
         23    2    1    2    0    0 -0.14417175061E+02  0.59367856769E+02  0.75290615398E+02  0.13360141255E+03  0.91914434738E+02 0.  0.
        -11    1    3    3    0    0  0.26410082203E+02  0.30941176852E+02  0.10776710932E+03  0.11518940367E+03  0.00000000000E+00 0.  1.
         12    1    3    3    0    0 -0.15439543538E+02 -0.37467655601E+02  0.15847855135E+03  0.16357767561E+03  0.00000000000E+00 0. -1.
        -13    1    4    4    0    0  0.35908325385E+02  0.43979568141E+02  0.30247296657E+02  0.64331245914E+02  0.00000000000E+00 0.  1.
         13    1    4    4    0    0 -0.50325500445E+02  0.15388288628E+02  0.45043318741E+02  0.69270166632E+02  0.00000000000E+00 0. -1.
          1    1    1    2  501    0  0.34466363955E+01 -0.52841378020E+02  0.15929240741E+02  0.55297660385E+02  0.00000000000E+00 0. -1.
<scales pt_clust_5="13000.00000" pt_clust_6="13000.00000" pt_clust_7="13000.00000" pt_clust_8="13000.00000" pt_clust_9="52.95366"></scales>
<clustering>
<clus scale="   52.954">  2  9  1 -1</clus>
<clus scale="   81.617">  5  6 -1 -1</clus>
<clus scale="   83.948">  1  5  2 -1</clus>
<clus scale="   91.914">  7  8 -1 -1</clus>
<clus scale="   52.954">  2  5  1 -1</clus>
</clustering>
</event>
<event>
 9    2  0.3764910E-005  0.3461236E+03  0.7546771E-02  0.1083017E+00
         21   -1    0    0  501  502  0.00000000000E+00  0.00000000000E+00  0.16181701872E+03  0.16181701872E+03  0.00000000000E+00 0. -1.
          2   -1    0    0  502    0 -0.00000000000E+00 -0.00000000000E+00 -0.21401693061E+04  0.21401693061E+04  0.00000000000E+00 0. -1.
         23    2    1    2    0    0 -0.13293640642E+03 -0.12882506327E+03 -0.45061939857E+03  0.49601660371E+03  0.93309397798E+02 0.  0.
         24    2    1    2    0    0 -0.22251120109E+03  0.14223505856E+03 -0.14017825367E+04  0.14286286011E+04  0.79014891861E+02 0.  0.
        -11    1    4    4    0    0 -0.81005476961E+02  0.40645158412E+02 -0.30785397847E+03  0.32091741657E+03  0.00000000000E+00 0.  1.
         12    1    4    4    0    0 -0.14150572413E+03  0.10158990015E+03 -0.10939285583E+04  0.11077111845E+04  0.00000000000E+00 0. -1.
        -11    1    3    3    0    0 -0.70991911682E+02 -0.12372159609E+03 -0.27629901450E+03  0.31094698950E+03  0.00000000000E+00 0.  1.
         11    1    3    3    0    0 -0.61944494739E+02 -0.51034671808E+01 -0.17432038407E+03  0.18506961422E+03  0.00000000000E+00 0. -1.
          1    1    1    2  501    0  0.35544760751E+03 -0.13409995294E+02 -0.12595035211E+03  0.37734112002E+03  0.00000000000E+00 0. -1.
<scales pt_clust_5="13000.00000" pt_clust_6="13000.00000" pt_clust_7="13000.00000" pt_clust_8="13000.00000" pt_clust_9="336.98394"></scales>
<clustering>
<clus scale="   79.015">  5  6 -1 -1</clus>
<clus scale="   93.309">  7  8 -1 -1</clus>
<clus scale="  207.303">  2  7  1 -1</clus>
<clus scale="  336.984">  1  9  2 -1</clus>
<clus scale="  336.984">  1  5  2 -1</clus>
</clustering>
</event>
<event>
 9    2  0.3764910E-005  0.1441021E+03  0.7546771E-02  0.1208386E+00
          2   -1    0    0  502    0 -0.00000000000E+00  0.00000000000E+00  0.90118750179E+03  0.90118750179E+03  0.00000000000E+00 0. -1.
         21   -1    0    0  501  502  0.00000000000E+00 -0.00000000000E+00 -0.50850844865E+02  0.50850844865E+02  0.00000000000E+00 0.  1.
         23    2    1    2    0    0 -0.24509083961E+02 -0.11049924308E+03  0.70424353106E+03  0.71885776114E+03  0.89368628684E+02 0.  0.
         24    2    1    2    0    0  0.55565929190E+02  0.10195433709E+03  0.13737401998E+03  0.19981045124E+03  0.87007676225E+02 0.  0.
        -13    1    4    4    0    0  0.25377273731E+02  0.10623541945E+03  0.81937397711E+02  0.13654196246E+03  0.00000000000E+00 0.  1.
         14    1    4    4    0    0  0.30188655459E+02 -0.42810823595E+01  0.55436622269E+02  0.63268488785E+02  0.00000000000E+00 0. -1.
        -13    1    3    3    0    0 -0.53062786843E+02 -0.91571677549E+02  0.59595869636E+03  0.60528323886E+03  0.00000000000E+00 0.  1.
         13    1    3    3    0    0  0.28553702882E+02 -0.18927565535E+02  0.10828483469E+03  0.11357452228E+03  0.00000000000E+00 0. -1.
          1    1    1    2  501    0 -0.31056845228E+02  0.85449059891E+01  0.87191058872E+01  0.33370134273E+02  0.00000000000E+00 0. -1.
<scales pt_clust_5="13000.00000" pt_clust_6="13000.00000" pt_clust_7="13000.00000" pt_clust_8="13000.00000" pt_clust_9="32.21092"></scales>
<clustering>
<clus scale="   32.211">  2  9  1 -1</clus>
<clus scale="   87.008">  5  6 -1 -1</clus>
<clus scale="   89.369">  7  8 -1 -1</clus>
<clus scale="  142.650">  2  5  1 -1</clus>
<clus scale="   32.211">  2  5  1 -1</clus>
</clustering>
</event>
<event>
 9    2  0.3764910E-005  0.9845128E+02  0.7546771E-02  0.1291626E+00
         21   -1    0    0  501  502  0.00000000000E+00  0.00000000000E+00  0.20212500344E+03  0.20212500344E+03  0.00000000000E+00 0.  1.
          2   -1    0    0  502    0 -0.00000000000E+00 -0.00000000000E+00 -0.10116646128E+03  0.10116646128E+03  0.00000000000E+00 0. -1.
         23    2    1    2    0    0 -0.33549424701E+02 -0.33081050823E+02 -0.39729136724E+02  0.90202570976E+02  0.65864859253E+02 0.  0.
         24    2    1    2    0    0  0.73219420172E+02  0.42279769724E+02  0.94234001060E+02  0.15131293439E+03  0.82866728780E+02 0.  0.
        -13    1    4    4    0    0  0.23505381404E+02  0.29158108562E+02  0.92581208015E+02  0.99869806885E+02  0.00000000000E+00 0.  1.
         14    1    4    4    0    0  0.49714038768E+02  0.13121661162E+02  0.16527930452E+01  0.51443127501E+02  0.00000000000E+00 0. -1.
        -13    1    3    3    0    0 -0.61971655313E+01 -0.19237267044E+02  0.16545512657E+02  0.26119557673E+02  0.00000000000E+00 0.  1.
         13    1    3    3    0    0 -0.27352259170E+02 -0.13843783779E+02 -0.56274649381E+02  0.64083013303E+02  0.00000000000E+00 0. -1.
          1    1    1    2  501    0 -0.39669995471E+02 -0.91987189010E+01  0.46453677825E+02  0.61775959350E+02  0.00000000000E+00 0. -1.
<scales pt_clust_5="13000.00000" pt_clust_6="13000.00000" pt_clust_7="13000.00000" pt_clust_8="13000.00000" pt_clust_9="40.72254"></scales>
<clustering>
<clus scale="   40.723">  1  9  2 -1</clus>
<clus scale="   65.865">  7  8 -1 -1</clus>
<clus scale="   82.867">  5  6 -1 -1</clus>
<clus scale="   84.640">  2  7  1 -1</clus>
<clus scale="   40.723">  1  5  2 -1</clus>
</clustering>
</event>
<event>
 9    2  0.3764910E-005  0.9999602E+02  0.7546771E-02  0.1286666E+00
          2   -1    0    0  502    0 -0.00000000000E+00  0.00000000000E+00  0.50478108510E+03  0.50478108510E+03  0.00000000000E+00 0. -1.
         21   -1    0    0  501  502  0.00000000000E+00 -0.00000000000E+00 -0.10662533821E+03  0.10662533821E+03  0.00000000000E+00 0. -1.
         23    2    1    2    0    0 -0.80668590306E+01  0.44701802252E+02  0.31292387512E+03  0.32929782785E+03  0.91936839547E+02 0.  0.
         24    2    1    2    0    0 -0.45255002847E+02 -0.25493518713E+02  0.16135374897E+03  0.18720485846E+03  0.79452450837E+02 0.  0.
        -13    1    4    4    0    0  0.12347146283E+02 -0.21638655723E+02  0.99599611674E+02  0.10266823310E+03  0.00000000000E+00 0.  1.
         14    1    4    4    0    0 -0.57602149130E+02 -0.38548629896E+01  0.61754137295E+02  0.84536625353E+02  0.00000000000E+00 0. -1.
        -11    1    3    3    0    0  0.22805657143E+02  0.44900389355E+02  0.27867072866E+03  0.28318460052E+03  0.00000000000E+00 0. -1.
         11    1    3    3    0    0 -0.30872516174E+02 -0.19858710327E+00  0.34253146458E+02  0.46113227321E+02  0.00000000000E+00 0.  1.
          1    1    1    2  501    0  0.53321861877E+02 -0.19208283539E+02 -0.76121877194E+02  0.94903737008E+02  0.00000000000E+00 0. -1.
<scales pt_clust_5="13000.00000" pt_clust_6="13000.00000" pt_clust_7="13000.00000" pt_clust_8="13000.00000" pt_clust_9="56.67609"></scales>
<clustering>
<clus scale="   56.676">  2  9  1 -1</clus>
<clus scale="   79.452">  5  6 -1 -1</clus>
<clus scale="   88.654">  2  5  1 -1</clus>
<clus scale="   91.937">  7  8 -1 -1</clus>
<clus scale="   56.676">  2  5  1 -1</clus>
</clustering>
</event>
<event>
 9    2  0.3764910E-005  0.9788901E+02  0.7546771E-02  0.1287376E+00
         21   -1    0    0  501  502  0.00000000000E+00  0.00000000000E+00  0.14196431814E+03  0.14196431814E+03  0.00000000000E+00 0. -1.
          2   -1    0    0  502    0 -0.00000000000E+00 -0.00000000000E+00 -0.41826012835E+03  0.41826012835E+03  0.00000000000E+00 0. -1.
         24    2    1    2    0    0 -0.23517264634E+02  0.10027784450E+02 -0.27650136485E+03  0.29392838159E+03  0.96370485825E+02 0.  0.
         23    2    1    2    0    0 -0.11637496878E+02 -0.17809978526E+02 -0.11326666811E+03  0.14724832180E+03  0.91652078536E+02 0.  0.
        -13    1    3    3    0    0  0.19690669645E+02  0.40181786346E+02 -0.96423164287E+02  0.10630016480E+03  0.00000000000E+00 0.  1.
         14    1    3    3    0    0 -0.43207934279E+02 -0.30154001896E+02 -0.18007820057E+03  0.18762821679E+03  0.00000000000E+00 0. -1.
        -11    1    4    4    0    0 -0.37919291162E+02 -0.36781983106E+02 -0.98190818932E+02  0.11149988272E+03  0.00000000000E+00 0. -1.
         11    1    4    4    0    0  0.26281794284E+02  0.18972004581E+02 -0.15075849181E+02  0.35748439087E+02  0.00000000000E+00 0.  1.
          1    1    1    2  501    0  0.35154761512E+02  0.77821940759E+01  0.11347222275E+03  0.11904774310E+03  0.00000000000E+00 0. -1.
<scales pt_clust_5="13000.00000" pt_clust_6="13000.00000" pt_clust_7="13000.00000" pt_clust_8="13000.00000" pt_clust_9="36.00583"></scales>
<clustering>
<clus scale="   36.006">  1  9  2 -1</clus>
<clus scale="   91.652">  7  8 -1 -1</clus>
<clus scale="   93.247">  1  7  2 -1</clus>
<clus scale="   96.370">  5  6 -1 -1</clus>
<clus scale="   36.006">  1  5  2 -1</clus>
</clustering>
</event>
<event>
 9    2  0.3764910E-005  0.1510070E+03  0.7546771E-02  0.1200438E+00
         21   -1    0    0  501  502  0.00000000000E+00  0.00000000000E+00  0.27592292588E+03  0.27592292588E+03  0.00000000000E+00 0.  1.
         -1   -1    0    0    0  501 -0.00000000000E+00 -0.00000000000E+00 -0.28585186459E+03  0.28585186459E+03  0.00000000000E+00 0.  1.
         23    2    1    2    0    0  0.12020100130E+03  0.57910181555E+02 -0.20762376765E+03  0.26242966475E+03  0.89217880520E+02 0.  0.
         24    2    1    2    0    0 -0.55623427692E+02 -0.74900016220E+02  0.44525034036E+02  0.13225262568E+03  0.82488182212E+02 0.  0.
        -11    1    4    4    0    0  0.16763994749E+01 -0.65938010907E+02  0.30021726341E+02  0.72470239754E+02  0.00000000000E+00 0.  1.
         12    1    4    4    0    0 -0.57299827167E+02 -0.89620053135E+01  0.14503307695E+02  0.59782385923E+02  0.00000000000E+00 0. -1.
        -11    1    3    3    0    0  0.11282361482E+02  0.45768997467E+02 -0.90418421166E+02  0.10196854268E+03  0.00000000000E+00 0. -1.
         11    1    3    3    0    0  0.10891863982E+03  0.12141184088E+02 -0.11720534649E+03  0.16046112207E+03  0.00000000000E+00 0.  1.
         -2    1    1    2    0  502 -0.64577573612E+02  0.16989834665E+02  0.15316979491E+03  0.16709250004E+03  0.00000000000E+00 0.  1.
<scales pt_clust_5="13000.00000" pt_clust_6="13000.00000" pt_clust_7="13000.00000" pt_clust_8="13000.00000" pt_clust_9="66.77513"></scales>
<clustering>
<clus scale="   66.775">  1  9  2 -1</clus>
<clus scale="   82.488">  5  6 -1 -1</clus>
<clus scale="   89.218">  7  8 -1 -1</clus>
<clus scale="  147.131">  1  5  2 -1</clus>
<clus scale="   66.775">  1  5  2 -1</clus>
</clustering>
</event>
<event>
 9    2  0.3764910E-005  0.9472147E+02  0.7546771E-02  0.1298548E+00
         21   -1    0    0  501  502  0.00000000000E+00  0.00000000000E+00  0.11867639917E+03  0.11867639917E+03  0.00000000000E+00 0.  1.
          2   -1    0    0  502    0 -0.00000000000E+00 -0.00000000000E+00 -0.10031320861E+03  0.10031320861E+03  0.00000000000E+00 0. -1.
         24    2    1    2    0    0  0.90508830893E+01 -0.20906053523E+02 -0.34347734317E+02  0.90854646542E+02  0.80968008417E+02 0.  0.
         23    2    1    2    0    0  0.12089083492E+02  0.19357957867E+02  0.38987828561E+02  0.10288385908E+03  0.92434632101E+02 0.  0.
        -11    1    3    3    0    0 -0.93949835674E+01 -0.43642721584E+02  0.13788550844E+01  0.44663789638E+02  0.00000000000E+00 0.  1.
         12    1    3    3    0    0  0.18445866657E+02  0.22736668061E+02 -0.35726589401E+02  0.46190856903E+02  0.00000000000E+00 0. -1.
        -13    1    4    4    0    0 -0.51618162247E+01  0.54786741741E+02  0.29130832966E+02  0.62264250149E+02  0.00000000000E+00 0.  1.
         13    1    4    4    0    0  0.17250899717E+02 -0.35428783874E+02  0.98569955954E+01  0.40619608935E+02  0.00000000000E+00 0. -1.
          1    1    1    2  501    0 -0.21139966582E+02  0.15480956563E+01  0.13723096320E+02  0.25251102151E+02  0.00000000000E+00 0. -1.
<scales pt_clust_5="13000.00000" pt_clust_6="13000.00000" pt_clust_7="13000.00000" pt_clust_8="13000.00000" pt_clust_9="21.19657"></scales>
<clustering>
<clus scale="   21.197">  1  9  2 -1</clus>
<clus scale="   80.968">  5  6 -1 -1</clus>
<clus scale="   83.569">  2  5  1 -1</clus>
<clus scale="   92.435">  7  8 -1 -1</clus>
<clus scale="   21.197">  1  5  2 -1</clus>
</clustering>
</event>
<event>
 9    2  0.3764910E-005  0.1216596E+03  0.7546771E-02  0.1244436E+00
         21   -1    0    0  501  502  0.00000000000E+00  0.00000000000E+00  0.46472687175E+03  0.46472687175E+03  0.00000000000E+00 0. -1.
         -1   -1    0    0    0  501 -0.00000000000E+00 -0.00000000000E+00 -0.11210404834E+03  0.11210404834E+03  0.00000000000E+00 0.  1.
         23    2    1    2    0    0 -0.10753421477E+03  0.92363962618E+01  0.89689573740E+02  0.16438944848E+03  0.85619815303E+02 0.  0.
         24    2    1    2    0    0  0.33319925149E+02  0.67046664866E+01  0.31213180683E+03  0.32198498322E+03  0.71364519319E+02 0.  0.
        -13    1    4    4    0    0  0.27629132583E+02  0.26013103188E+02  0.75517137757E+02  0.84515611574E+02  0.00000000000E+00 0.  1.
         14    1    4    4    0    0  0.56907925662E+01 -0.19308436701E+02  0.23661466908E+03  0.23746937165E+03  0.00000000000E+00 0. -1.
        -13    1    3    3    0    0 -0.61003128446E+02 -0.30676921583E+02  0.74846905814E+02  0.10131394034E+03  0.00000000000E+00 0.  1.
         13    1    3    3    0    0 -0.46531086322E+02  0.39913317844E+02  0.14842667926E+02  0.63075508138E+02  0.00000000000E+00 0. -1.
         -2    1    1    2    0  502  0.74214289619E+02 -0.15941062748E+02 -0.49198557166E+02  0.90456488393E+02  0.00000000000E+00 0.  1.
<scales pt_clust_5="13000.00000" pt_clust_6="13000.00000" pt_clust_7="13000.00000" pt_clust_8="13000.00000" pt_clust_9="75.90707"></scales>
<clustering>
<clus scale="   71.365">  5  6 -1 -1</clus>
<clus scale="   75.907">  1  9  2 -1</clus>
<clus scale="   85.620">  7  8 -1 -1</clus>
<clus scale="  112.086">  1  5  2 -1</clus>
<clus scale="   75.907">  1  5  2 -1</clus>
</clustering>
</event>
<event>
 9    2  0.3764910E-005  0.9909583E+02  0.7546771E-02  0.1287607E+00
         21   -1    0    0  501  502  0.00000000000E+00  0.00000000000E+00  0.53239467406E+03  0.53239467406E+03  0.00000000000E+00 0.  1.
         -1   -1    0    0    0  501 -0.00000000000E+00 -0.00000000000E+00 -0.12642827616E+03  0.12642827616E+03  0.00000000000E+00 0.  1.
         23    2    1    2    0    0 -0.11939878787E+02  0.28683939446E+02 -0.53608734428E+02  0.11011785747E+03  0.91031406881E+02 0.  0.
         24    2    1    2    0    0 -0.33437104522E+02 -0.64689379621E+02  0.26426457842E+02  0.11170024548E+03  0.80472550425E+02 0.  0.
        -11    1    4    4    0    0 -0.20435677854E+02 -0.57334579940E+00 -0.22205715543E+02  0.30183430181E+02  0.00000000000E+00 0.  1.
         12    1    4    4    0    0 -0.13001426668E+02 -0.64116033822E+02  0.48632173385E+02  0.81516815300E+02  0.00000000000E+00 0. -1.
        -13    1    3    3    0    0  0.36493477672E+01 -0.30429524400E+02 -0.30748991774E+01  0.30801439889E+02  0.00000000000E+00 0. -1.
         13    1    3    3    0    0 -0.15589226554E+02  0.59113463845E+02 -0.50533835250E+02  0.79316417578E+02  0.00000000000E+00 0.  1.
         -2    1    1    2    0  502  0.45376983309E+02  0.36005440176E+02  0.43314867448E+03  0.43700484728E+03  0.00000000000E+00 0.  1.
<scales pt_clust_5="13000.00000" pt_clust_6="13000.00000" pt_clust_7="13000.00000" pt_clust_8="13000.00000" pt_clust_9="57.92635"></scales>
<clustering>
<clus scale="   57.926">  1  9  2 -1</clus>
<clus scale="   80.473">  5  6 -1 -1</clus>
<clus scale="   89.494">  1  5  2 -1</clus>
<clus scale="   91.031">  7  8 -1 -1</clus>
<clus scale="   57.926">  1  5  2 -1</clus>
</clustering>
</event>
<event>
 9    2  0.3764910E-005  0.9216754E+02  0.7546771E-02  0.1307325E+00
          2   -1    0    0  502    0 -0.00000000000E+00  0.00000000000E+00  0.46853206019E+03  0.46853206019E+03  0.00000000000E+00 0. -1.
         21   -1    0    0  501  502  0.00000000000E+00 -0.00000000000E+00 -0.33319201535E+02  0.33319201535E+02  0.00000000000E+00 0.  1.
         24    2    1    2    0    0 -0.26294011424E+01  0.13546981796E+02  0.18844398942E+03  0.20409380455E+03  0.77153803805E+02 0.  0.
         23    2    1    2    0    0  0.15601247835E+01  0.31162157568E+02  0.82577956749E+02  0.12758487937E+03  0.92115516872E+02 0.  0.
        -13    1    3    3    0    0  0.29163028005E+02 -0.12791169470E+02  0.47186800501E+02  0.56927061758E+02  0.00000000000E+00 0.  1.
         14    1    3    3    0    0 -0.31792429148E+02  0.26338151266E+02  0.14125718892E+03  0.14716674280E+03  0.00000000000E+00 0. -1.
        -13    1    4    4    0    0  0.17422499186E+02 -0.29541571157E+02  0.33320208655E+02  0.47817195747E+02  0.00000000000E+00 0. -1.
         13    1    4    4    0    0 -0.15862374402E+02  0.60703728725E+02  0.49257748094E+02  0.79767683620E+02  0.00000000000E+00 0.  1.
          1    1    1    2  501    0  0.10692763588E+01 -0.44709139364E+02  0.16419091249E+03  0.17017257781E+03  0.00000000000E+00 0. -1.
<scales pt_clust_5="13000.00000" pt_clust_6="13000.00000" pt_clust_7="13000.00000" pt_clust_8="13000.00000" pt_clust_9="44.72195"></scales>
<clustering>
<clus scale="   44.722">  2  9  1 -1</clus>
<clus scale="   77.154">  5  6 -1 -1</clus>
<clus scale="   77.216">  1  5  2 -1</clus>
<clus scale="   92.116">  7  8 -1 -1</clus>
<clus scale="   44.722">  2  5  1 -1</clus>
</clustering>
</event>
<event>
 9    2  0.3764910E-005  0.1077244E+03  0.7546771E-02  0.1272778E+00
         -1   -1    0    0    0  501 -0.00000000000E+00  0.00000000000E+00  0.10070839791E+03  0.10070839791E+03  0.00000000000E+00 0.  1.
         21   -1    0    0  501  502  0.00000000000E+00 -0.00000000000E+00 -0.32573277690E+03  0.32573277690E+03  0.00000000000E+00 0. -1.
         23    2    1    2    0    0 -0.32164751554E+02  0.44874005233E+02  0.54480682375E+02  0.12151938196E+03  0.93544469916E+02 0.  0.
         24    2    1    2    0    0  0.93584481277E+01 -0.47019201792E+02 -0.15999488250E+03  0.18323608212E+03  0.75357239056E+02 0.  0.
        -11    1    4    4    0    0  0.34406144712E+02 -0.20837026989E+01 -0.40788179443E+02  0.53402248952E+02  0.00000000000E+00 0.  1.
         12    1    4    4    0    0 -0.25047696584E+02 -0.44935499094E+02 -0.11920670305E+03  0.12983383317E+03  0.00000000000E+00 0. -1.
        -11    1    3    3    0    0 -0.82833208446E+01 -0.24715137616E+02 -0.54458858896E+01  0.26629102589E+02  0.00000000000E+00 0. -1.
         11    1    3    3    0    0 -0.23881430709E+02  0.69589142849E+02  0.59926568264E+02  0.94890279371E+02  0.00000000000E+00 0.  1.
         -2    1    1    2    0  502  0.22806303426E+02  0.21451965596E+01 -0.11951017886E+03  0.12168571073E+03  0.00000000000E+00 0.  1.
<scales pt_clust_5="13000.00000" pt_clust_6="13000.00000" pt_clust_7="13000.00000" pt_clust_8="13000.00000" pt_clust_9="22.90697"></scales>
<clustering>
<clus scale="   22.907">  2  9  1 -1</clus>
<clus scale="   75.357">  5  6 -1 -1</clus>
<clus scale="   92.373">  2  5  1 -1</clus>
<clus scale="   93.544">  7  8 -1 -1</clus>
<clus scale="   22.907">  2  5  1 -1</clus>
</clustering>
</event>
<event>
 9    2  0.3764910E-005  0.1240900E+03  0.7546771E-02  0.1239418E+00
          2   -1    0    0  502    0 -0.00000000000E+00  0.00000000000E+00  0.56931741364E+03  0.56931741364E+03  0.00000000000E+00 0. -1.
         21   -1    0    0  501  502  0.00000000000E+00 -0.00000000000E+00 -0.81945846168E+03  0.81945846168E+03  0.00000000000E+00 0. -1.
         23    2    1    2    0    0  0.33883140579E+02  0.77399466600E+02  0.44526864914E+03  0.46209911459E+03  0.90181357026E+02 0.  0.
         24    2    1    2    0    0  0.25027493713E+01 -0.17016936834E+03 -0.77603277489E+03  0.79849615255E+03  0.80033494614E+02 0.  0.
        -11    1    4    4    0    0  0.84776481376E+01 -0.12886500289E+03 -0.69952177275E+03  0.71134293420E+03  0.00000000000E+00 0.  1.
         12    1    4    4    0    0 -0.59748987663E+01 -0.41304365442E+02 -0.76511002135E+02  0.87153218343E+02  0.00000000000E+00 0. -1.
        -11    1    3    3    0    0 -0.26810143489E+02  0.41059950548E+02  0.24070376153E+03  0.24564813076E+03  0.00000000000E+00 0. -1.
         11    1    3    3    0    0  0.60693284068E+02  0.36339516052E+02  0.20456488762E+03  0.21645098384E+03  0.00000000000E+00 0.  1.
          1    1    1    2  501    0 -0.36385889950E+02  0.92769901735E+02  0.80623077707E+02  0.12818060818E+03  0.00000000000E+00 0. -1.
<scales pt_clust_5="13000.00000" pt_clust_6="13000.00000" pt_clust_7="13000.00000" pt_clust_8="13000.00000" pt_clust_9="99.65038"></scales>
<clustering>
<clus scale="   80.033">  5  6 -1 -1</clus>
<clus scale="   90.181">  7  8 -1 -1</clus>
<clus scale="   99.650">  2  9  1 -1</clus>
<clus scale="  116.923">  2  5  1 -1</clus>
<clus scale="   99.650">  2  5  1 -1</clus>
</clustering>
</event>
<event>
 9    2  0.3764910E-005  0.2223391E+03  0.7546771E-02  0.1148266E+00
         -1   -1    0    0    0  501 -0.00000000000E+00  0.00000000000E+00  0.91357859214E+03  0.91357859214E+03  0.00000000000E+00 0.  1.
         21   -1    0    0  501  502  0.00000000000E+00 -0.00000000000E+00 -0.37898651550E+03  0.37898651550E+03  0.00000000000E+00 0. -1.
         23    2    1    2    0    0  0.83048777662E+02 -0.82662119936E+02  0.76437488796E+03  0.77909865127E+03  0.94845208208E+02 0.  0.
         24    2    1    2    0    0  0.61043688675E+02  0.21723998696E+03 -0.20390592584E+03  0.31461109599E+03  0.80516900491E+02 0.  0.
        -13    1    4    4    0    0 -0.16254427616E+02  0.63656630667E+02 -0.39157550495E+02  0.76483245262E+02  0.00000000000E+00 0.  1.
         14    1    4    4    0    0  0.77298116292E+02  0.15358335629E+03 -0.16474837535E+03  0.23812785073E+03  0.00000000000E+00 0. -1.
        -13    1    3    3    0    0  0.83843088637E+02 -0.18992492797E+02  0.48492835478E+03  0.49248947965E+03  0.00000000000E+00 0. -1.
         13    1    3    3    0    0 -0.79431097577E+00 -0.63669627139E+02  0.27944653319E+03  0.28660917163E+03  0.00000000000E+00 0.  1.
         -2    1    1    2    0  502 -0.14409246634E+03 -0.13457786702E+03 -0.25876885480E+02  0.19885536037E+03  0.00000000000E+00 0.  1.
<scales pt_clust_5="13000.00000" pt_clust_6="13000.00000" pt_clust_7="13000.00000" pt_clust_8="13000.00000" pt_clust_9="207.24798"></scales>
<clustering>
<clus scale="   80.517">  5  6 -1 -1</clus>
<clus scale="   94.845">  7  8 -1 -1</clus>
<clus scale="  150.751">  1  7  2 -1</clus>
<clus scale="  207.248">  2  9  1 -1</clus>
<clus scale="  207.248">  2  5  1 -1</clus>
</clustering>
</event>
<event>
 9    2  0.3764910E-005  0.2277956E+03  0.7546771E-02  0.1149799E+00
         21   -1    0    0  501  502  0.00000000000E+00  0.00000000000E+00  0.38998309845E+03  0.38998309845E+03  0.00000000000E+00 0.  1.
          2   -1    0    0  502    0 -0.00000000000E+00 -0.00000000000E+00 -0.32126518680E+03  0.32126518680E+03  0.00000000000E+00 0. -1.
         23    2    1    2    0    0  0.72893955606E+02 -0.68515617794E+02  0.19752644624E+03  0.23934586274E+03  0.90894589490E+02 0.  0.
         24    2    1    2    0    0  0.17600181622E+03  0.67124675993E+02 -0.67540031583E+02  0.21557281164E+03  0.80172437977E+02 0.  0.
        -11    1    4    4    0    0  0.75665060956E+02 -0.10237306893E+02 -0.38838675406E+02  0.85664733754E+02  0.00000000000E+00 0.  1.
         12    1    4    4    0    0  0.10033675527E+03  0.77361982886E+02 -0.28701356177E+02  0.12990807788E+03  0.00000000000E+00 0. -1.
        -13    1    3    3    0    0  0.55456453339E+02 -0.86542708313E+02  0.18421693977E+03  0.21095245786E+03  0.00000000000E+00 0.  1.
         13    1    3    3    0    0  0.17437502267E+02  0.18027090520E+02  0.13309506472E+02  0.28393404876E+02  0.00000000000E+00 0. -1.
          1    1    1    2  501    0 -0.24889577183E+03  0.13909418005E+01 -0.61268503006E+02  0.25632961088E+03  0.00000000000E+00 0. -1.
<scales pt_clust_5="13000.00000" pt_clust_6="13000.00000" pt_clust_7="13000.00000" pt_clust_8="13000.00000" pt_clust_9="213.22116"></scales>
<clustering>
<clus scale="   80.172">  5  6 -1 -1</clus>
<clus scale="   90.895">  7  8 -1 -1</clus>
<clus scale="  135.166">  2  7  1 -1</clus>
<clus scale="  213.221">  1  9  2 -1</clus>
<clus scale="  213.221">  1  5  2 -1</clus>
</clustering>
</event>
<event>
 9    2  0.3764910E-005  0.9448056E+02  0.7546771E-02  0.1299084E+00
         21   -1    0    0  501  502  0.00000000000E+00  0.00000000000E+00  0.22029876054E+02  0.22029876054E+02  0.00000000000E+00 0.  1.
          2   -1    0    0  502    0 -0.00000000000E+00 -0.00000000000E+00 -0.65317119335E+03  0.65317119335E+03  0.00000000000E+00 0. -1.
         23    2    1    2    0    0 -0.32766522907E+02 -0.20665613651E+02 -0.35959952267E+03  0.37257993698E+03  0.89461053669E+02 0.  0.
         24    2    1    2    0    0  0.14271934459E+02 -0.11104315330E+01 -0.93836059767E+02  0.12263342688E+03  0.77645541432E+02 0.  0.
        -11    1    4    4    0    0  0.42969506827E+02 -0.11189012610E+02 -0.35518829182E+02  0.56860880635E+02  0.00000000000E+00 0.  1.
         12    1    4    4    0    0 -0.28697572369E+02  0.10078581077E+02 -0.58317230585E+02  0.65772546245E+02  0.00000000000E+00 0. -1.
        -11    1    3    3    0    0 -0.34854040282E+01 -0.51548020510E+02 -0.14843283154E+03  0.15716759188E+03  0.00000000000E+00 0.  1.
         11    1    3    3    0    0 -0.29281118879E+02  0.30882406859E+02 -0.21116669113E+03  0.21541234510E+03  0.00000000000E+00 0. -1.
          1    1    1    2  501    0  0.18494588449E+02  0.21776045184E+02 -0.17770573486E+03  0.17998770555E+03  0.00000000000E+00 0. -1.
<scales pt_clust_5="13000.00000" pt_clust_6="13000.00000" pt_clust_7="13000.00000" pt_clust_8="13000.00000" pt_clust_9="28.57003"></scales>
<clustering>
<clus scale="   28.570">  1  9  2 -1</clus>
<clus scale="   77.646">  5  6 -1 -1</clus>
<clus scale="   83.379">  1  5  2 -1</clus>
<clus scale="   89.461">  7  8 -1 -1</clus>
<clus scale="   28.570">  1  5  2 -1</clus>
</clustering>
</event>
<event>
 9    2  0.3764910E-005  0.9437982E+02  0.7546771E-02  0.1298456E+00
         21   -1    0    0  501  502  0.00000000000E+00  0.00000000000E+00  0.43994020457E+02  0.43994020457E+02  0.00000000000E+00 0. -1.
          2   -1    0    0  502    0 -0.00000000000E+00 -0.00000000000E+00 -0.88390854374E+03  0.88390854374E+03  0.00000000000E+00 0. -1.
         24    2    1    2    0    0  0.12955548496E+01 -0.29150718961E+02 -0.67675418666E+03  0.68212411372E+03  0.80284708867E+02 0.  0.
         23    2    1    2    0    0  0.16947354188E+02  0.16470129855E+02 -0.18949330752E+03  0.21132520060E+03  0.90510490117E+02 0.  0.
        -13    1    3    3    0    0  0.23396823166E+02 -0.34819889711E+02 -0.17911020276E+03  0.18395733415E+03  0.00000000000E+00 0.  1.
         14    1    3    3    0    0 -0.22101268316E+02  0.56691707496E+01 -0.49764398390E+03  0.49816677958E+03  0.00000000000E+00 0. -1.
        -13    1    4    4    0    0  0.50419139173E+02  0.25133224233E+02 -0.14038103517E+03  0.15126335838E+03  0.00000000000E+00 0.  1.
         13    1    4    4    0    0 -0.33471784985E+02 -0.86630943779E+01 -0.49112272355E+02  0.60061842215E+02  0.00000000000E+00 0. -1.
          1    1    1    2  501    0 -0.18242909037E+02  0.12680589106E+02  0.26332970904E+02  0.34453249873E+02  0.00000000000E+00 0. -1.
<scales pt_clust_5="13000.00000" pt_clust_6="13000.00000" pt_clust_7="13000.00000" pt_clust_8="13000.00000" pt_clust_9="22.21713"></scales>
<clustering>
<clus scale="   22.217">  1  9  2 -1</clus>
<clus scale="   80.285">  5  6 -1 -1</clus>
<clus scale="   84.623">  2  5  1 -1</clus>
<clus scale="   90.510">  7  8 -1 -1</clus>
<clus scale="   22.217">  1  5  2 -1</clus>
</clustering>
</event>
<event>
 9    2  0.3764910E-005  0.1224600E+03  0.7546771E-02  0.1241403E+00
         21   -1    0    0  501  502  0.00000000000E+00  0.00000000000E+00  0.41269491187E+03  0.41269491187E+03  0.00000000000E+00 0.  1.
          2   -1    0    0  502    0 -0.00000000000E+00 -0.00000000000E+00 -0.12384288198E+03  0.12384288198E+03  0.00000000000E+00 0. -1.
         23    2    1    2    0    0 -0.43382278266E+01 -0.58269173220E+02  0.20527734952E+02  0.11191057583E+03  0.93211975157E+02 0.  0.
         24    2    1    2    0    0 -0.65112558832E+01  0.12982127496E+03  0.30284588085E+03  0.34444520974E+03  0.10015445611E+03 0.  0.
        -11    1    4    4    0    0  0.53160150437E-01  0.14435268458E+03  0.24424260509E+03  0.28371138594E+03  0.00000000000E+00 0.  1.
         12    1    4    4    0    0 -0.65644160336E+01 -0.14531409621E+02  0.58603275755E+02  0.60733823794E+02  0.00000000000E+00 0. -1.
        -13    1    3    3    0    0  0.42924776807E+02 -0.20892889291E+02  0.19712496384E+02  0.51649121973E+02  0.00000000000E+00 0. -1.
         13    1    3    3    0    0 -0.47263004634E+02 -0.37376283930E+02  0.81523856774E+00  0.60261453860E+02  0.00000000000E+00 0.  1.
          1    1    1    2  501    0  0.10849483710E+02 -0.71552101737E+02 -0.34521585909E+02  0.80182008290E+02  0.00000000000E+00 0. -1.
<scales pt_clust_5="13000.00000" pt_clust_6="13000.00000" pt_clust_7="13000.00000" pt_clust_8="13000.00000" pt_clust_9="72.37002"></scales>
<clustering>
<clus scale="   72.370">  1  9  2 -1</clus>
<clus scale="   93.212">  7  8 -1 -1</clus>
<clus scale="  100.154">  5  6 -1 -1</clus>
<clus scale="  116.850">  2  7  1 -1</clus>
<clus scale="   72.370">  1  5  2 -1</clus>
</clustering>
</event>
<event>
 9    2  0.3764910E-005  0.1105512E+03  0.7546771E-02  0.1263227E+00
         21   -1    0    0  501  502  0.00000000000E+00  0.00000000000E+00  0.13111293536E+03  0.13111293536E+03  0.00000000000E+00 0. -1.
         -3   -1    0    0    0  501 -0.00000000000E+00 -0.00000000000E+00 -0.15559685244E+03  0.15559685244E+03  0.00000000000E+00 0.  1.
         24    2    1    2    0    0 -0.58098682471E+02  0.19281601189E+01 -0.48930944797E+02  0.11231742823E+03  0.82715129321E+02 0.  0.
         23    2    1    2    0    0  0.69544471342E+02  0.23932324687E+02  0.57294029602E+02  0.13104842932E+03  0.92097205927E+02 0.  0.
        -13    1    3    3    0    0 -0.74627598715E+02 -0.43476602670E+01 -0.55868748628E+02  0.93324689729E+02  0.00000000000E+00 0.  1.
         14    1    3    3    0    0  0.16528916244E+02  0.62758203859E+01  0.69378038307E+01  0.18992738499E+02  0.00000000000E+00 0. -1.
        -13    1    4    4    0    0  0.62908471058E+02  0.53874610416E+02  0.25007945584E+02  0.86517898267E+02  0.00000000000E+00 0.  1.
         13    1    4    4    0    0  0.66360002842E+01 -0.29942285729E+02  0.32286084018E+02  0.44530531050E+02  0.00000000000E+00 0. -1.
         -4    1    1    2    0  502 -0.11445788871E+02 -0.25860484806E+02 -0.32847001888E+02  0.43343930259E+02  0.00000000000E+00 0.  1.
<scales pt_clust_5="13000.00000" pt_clust_6="13000.00000" pt_clust_7="13000.00000" pt_clust_8="13000.00000" pt_clust_9="28.28023"></scales>
<clustering>
<clus scale="   28.280">  1  9  2 -1</clus>
<clus scale="   82.715">  5  6 -1 -1</clus>
<clus scale="   92.097">  7  8 -1 -1</clus>
<clus scale="  102.866">  2  5  1 -1</clus>
<clus scale="   28.280">  1  5  2 -1</clus>
</clustering>
</event>
<event>
 9    2  0.3764910E-005  0.9643783E+02  0.7546771E-02  0.1292011E+00
         -1   -1    0    0    0  501 -0.00000000000E+00  0.00000000000E+00  0.10778605469E+03  0.10778605469E+03  0.00000000000E+00 0.  1.
         21   -1    0    0  501  502  0.00000000000E+00 -0.00000000000E+00 -0.17059226325E+03  0.17059226325E+03  0.00000000000E+00 0. -1.
         23    2    1    2    0    0  0.87811758578E+01 -0.33281442615E+02  0.33438578816E+02  0.10228295623E+03  0.90326635664E+02 0.  0.
         24    2    1    2    0    0 -0.51716741346E+02  0.10039382126E+02 -0.71134300371E+02  0.12119369764E+03  0.82779303753E+02 0.  0.
        -11    1    4    4    0    0 -0.12564538713E+02 -0.35221176447E+02 -0.19613777618E+02  0.42226759003E+02  0.00000000000E+00 0.  1.
         12    1    4    4    0    0 -0.39152202633E+02  0.45260558573E+02 -0.51520522752E+02  0.78966938639E+02  0.00000000000E+00 0. -1.
        -11    1    3    3    0    0  0.28767296015E+02 -0.39307279294E+02  0.54179355374E+02  0.72856173893E+02  0.00000000000E+00 0.  1.
         11    1    3    3    0    0 -0.19986120157E+02  0.60258366790E+01 -0.20740776558E+02  0.29426782339E+02  0.00000000000E+00 0. -1.
         -2    1    1    2    0  502  0.42935565488E+02  0.23242060490E+02 -0.25110487012E+02  0.54901664069E+02  0.00000000000E+00 0.  1.
<scales pt_clust_5="13000.00000" pt_clust_6="13000.00000" pt_clust_7="13000.00000" pt_clust_8="13000.00000" pt_clust_9="48.82270"></scales>
<clustering>
<clus scale="   48.823">  2  9  1 -1</clus>
<clus scale="   82.779">  5  6 -1 -1</clus>
<clus scale="   89.408">  2  5  1 -1</clus>
<clus scale="   90.327">  7  8 -1 -1</clus>
<clus scale="   48.823">  2  5  1 -1</clus>
</clustering>
</event>
<event>
 9    2  0.3764910E-005  0.1030697E+03  0.7546771E-02  0.1284194E+00
         -3   -1    0    0    0  501 -0.00000000000E+00  0.00000000000E+00  0.18956558541E+03  0.18956558541E+03  0.00000000000E+00 0.  1.
         21   -1    0    0  501  502  0.00000000000E+00 -0.00000000000E+00 -0.26829755935E+03  0.26829755935E+03  0.00000000000E+00 0.  1.
         23    2    1    2    0    0  0.85796949251E+01  0.23337750270E+02  0.12820648463E+03  0.16392596784E+03  0.99078547021E+02 0.  0.
         24    2    1    2    0    0  0.53482467834E+02 -0.50430270507E+02 -0.43413910209E+02  0.11694566691E+03  0.79924557303E+02 0.  0.
        -11    1    4    4    0    0  0.51461646175E+02 -0.24582154942E+02  0.96916656221E+01  0.57849042785E+02  0.00000000000E+00 0.  1.
         12    1    4    4    0    0  0.20208216584E+01 -0.25848115565E+02 -0.53105575831E+02  0.59096624123E+02  0.00000000000E+00 0. -1.
        -11    1    3    3    0    0  0.36147548793E+02  0.51029077467E+02  0.70542026534E+02  0.94269770013E+02  0.00000000000E+00 0.  1.
         11    1    3    3    0    0 -0.27567853868E+02 -0.27691327197E+02  0.57664458092E+02  0.69656197828E+02  0.00000000000E+00 0. -1.
         -4    1    1    2    0  502 -0.62062162759E+02  0.27092520237E+02 -0.16352454836E+03  0.17699151001E+03  0.00000000000E+00 0.  1.
<scales pt_clust_5="13000.00000" pt_clust_6="13000.00000" pt_clust_7="13000.00000" pt_clust_8="13000.00000" pt_clust_9="67.71792"></scales>
<clustering>
<clus scale="   67.718">  2  9  1 -1</clus>
<clus scale="   79.925">  5  6 -1 -1</clus>
<clus scale="   84.822">  2  5  1 -1</clus>
<clus scale="   99.079">  7  8 -1 -1</clus>
<clus scale="   67.718">  2  5  1 -1</clus>
</clustering>
</event>
<event>
 9    2  0.3764910E-005  0.9900416E+02  0.7546771E-02  0.1287662E+00
         21   -1    0    0  501  502  0.00000000000E+00  0.00000000000E+00  0.19095820751E+03  0.19095820751E+03  0.00000000000E+00 0.  1.
         -3   -1    0    0    0  501 -0.00000000000E+00 -0.00000000000E+00 -0.25507445718E+03  0.25507445718E+03  0.00000000000E+00 0.  1.
         24    2    1    2    0    0  0.34076356952E+02  0.34944797377E+02 -0.15419206391E+03  0.18074702583E+03  0.80696702590E+02 0.  0.
         23    2    1    2    0    0  0.31197048265E+02 -0.38110898451E+02 -0.46848061169E+02  0.11356619620E+03  0.90977160231E+02 0.  0.
        -11    1    3    3    0    0  0.17451215549E+02  0.19240907804E+02 -0.15567720673E+03  0.15782949709E+03  0.00000000000E+00 0.  1.
         12    1    3    3    0    0  0.16625141403E+02  0.15703889573E+02  0.14851428224E+01  0.22917528741E+02  0.00000000000E+00 0. -1.
        -13    1    4    4    0    0  0.21541013691E+02 -0.67032178267E+02 -0.20670472618E+02  0.73379810795E+02  0.00000000000E+00 0. -1.
         13    1    4    4    0    0  0.96560345733E+01  0.28921279816E+02 -0.26177588550E+02  0.40186385408E+02  0.00000000000E+00 0.  1.
         -4    1    1    2    0  502 -0.65273405217E+02  0.31661010737E+01  0.13692387540E+03  0.15171944266E+03  0.00000000000E+00 0.  1.
<scales pt_clust_5="13000.00000" pt_clust_6="13000.00000" pt_clust_7="13000.00000" pt_clust_8="13000.00000" pt_clust_9="65.35015"></scales>
<clustering>
<clus scale="   65.350">  1  9  2 -1</clus>
<clus scale="   80.697">  5  6 -1 -1</clus>
<clus scale="   89.649">  2  5  1 -1</clus>
<clus scale="   90.977">  7  8 -1 -1</clus>
<clus scale="   65.350">  1  5  2 -1</clus>
</clustering>
</event>
<event>
 9    2  0.3764910E-005  0.9673855E+02  0.7546771E-02  0.1294466E+00
         21   -1    0    0  501  502  0.00000000000E+00  0.00000000000E+00  0.73549177012E+02  0.73549177012E+02  0.00000000000E+00 0.  1.
          2   -1    0    0  502    0 -0.00000000000E+00 -0.00000000000E+00 -0.38096116225E+03  0.38096116225E+03  0.00000000000E+00 0. -1.
         23    2    1    2    0    0  0.10724065037E+02 -0.43021844353E+01 -0.99455581658E+02  0.13650545462E+03  0.92783684210E+02 0.  0.
         24    2    1    2    0    0  0.58026701202E+01  0.83032375110E+02 -0.25033349343E+02  0.11817390689E+03  0.80064707541E+02 0.  0.
        -11    1    4    4    0    0 -0.24746568982E+02  0.79927502109E+02 -0.25478694195E+02  0.87464061921E+02  0.00000000000E+00 0.  1.
         12    1    4    4    0    0  0.30549239102E+02  0.31048730011E+01  0.44534485111E+00  0.30709844971E+02  0.00000000000E+00 0. -1.
        -13    1    3    3    0    0 -0.28127339491E+02  0.23607930778E+02 -0.73301581998E+02  0.81985386173E+02  0.00000000000E+00 0. -1.
         13    1    3    3    0    0  0.38851404528E+02 -0.27910115213E+02 -0.26153999660E+02  0.54520068444E+02  0.00000000000E+00 0.  1.
          1    1    1    2  501    0 -0.16526735157E+02 -0.78730190675E+02 -0.18292305424E+03  0.19983097776E+03  0.00000000000E+00 0. -1.
<scales pt_clust_5="13000.00000" pt_clust_6="13000.00000" pt_clust_7="13000.00000" pt_clust_8="13000.00000" pt_clust_9="80.44615"></scales>
<clustering>
<clus scale="   80.065">  5  6 -1 -1</clus>
<clus scale="   80.446">  1  9  2 -1</clus>
<clus scale="   84.616">  1  5  2 -1</clus>
<clus scale="   92.784">  7  8 -1 -1</clus>
<clus scale="   80.446">  1  5  2 -1</clus>
</clustering>
</event>
<event>
 9    2  0.3764910E-005  0.8467075E+02  0.7546771E-02  0.1322861E+00
         -1   -1    0    0    0  501 -0.00000000000E+00  0.00000000000E+00  0.19618397416E+03  0.19618397416E+03  0.00000000000E+00 0.  1.
         21   -1    0    0  501  502  0.00000000000E+00 -0.00000000000E+00 -0.13792192047E+03  0.13792192047E+03  0.00000000000E+00 0.  1.
         23    2    1    2    0    0  0.34279970683E+02  0.42517691216E+01  0.12480493443E+03  0.14702357873E+03  0.69616572124E+02 0.  0.
         24    2    1    2    0    0 -0.13924426586E+02 -0.22640403977E+01  0.31580657726E+02  0.86849945668E+02  0.79665297247E+02 0.  0.
        -13    1    4    4    0    0  0.20613124669E+02 -0.28044941674E+02  0.25767601979E+01  0.34900707088E+02  0.00000000000E+00 0.  1.
         14    1    4    4    0    0 -0.34537551255E+02  0.25780901276E+02  0.29003897528E+02  0.51949238581E+02  0.00000000000E+00 0. -1.
        -11    1    3    3    0    0  0.55645948873E+02  0.48601086262E+00  0.95996025373E+02  0.11095920295E+03  0.00000000000E+00 0.  1.
         11    1    3    3    0    0 -0.21365978190E+02  0.37657582590E+01  0.28808909057E+02  0.36064375779E+02  0.00000000000E+00 0. -1.
         -2    1    1    2    0  502 -0.20355544098E+02 -0.19877287239E+01 -0.98123538462E+02  0.10023237023E+03  0.00000000000E+00 0.  1.
<scales pt_clust_5="13000.00000" pt_clust_6="13000.00000" pt_clust_7="13000.00000" pt_clust_8="13000.00000" pt_clust_9="20.45237"></scales>
<clustering>
<clus scale="   20.452">  2  9  1 -1</clus>
<clus scale="   69.617">  7  8 -1 -1</clus>
<clus scale="   75.293">  1  7  2 -1</clus>
<clus scale="   79.665">  5  6 -1 -1</clus>
<clus scale="   20.452">  2  5  1 -1</clus>
</clustering>
</event>
<event>
 9    2  0.3764910E-005  0.1439154E+03  0.7546771E-02  0.1208816E+00
         21   -1    0    0  501  502  0.00000000000E+00  0.00000000000E+00  0.75550150919E+03  0.75550150919E+03  0.00000000000E+00 0. -1.
          4   -1    0    0  502    0 -0.00000000000E+00 -0.00000000000E+00 -0.49130223895E+02  0.49130223895E+02  0.00000000000E+00 0. -1.
         23    2    1    2    0    0 -0.65239501218E+02 -0.65086768380E+02  0.25247026719E+03  0.28160566159E+03  0.84071593817E+02 0.  0.
         24    2    1    2    0    0  0.10205015731E+03  0.11826997872E+03  0.40639333594E+03  0.44277360656E+03  0.80566126249E+02 0.  0.
        -11    1    4    4    0    0  0.92765638168E+02  0.47882138355E+02  0.22758991700E+03  0.25039036148E+03  0.00000000000E+00 0.  1.
         12    1    4    4    0    0  0.92845191400E+01  0.70387840361E+02  0.17880341894E+03  0.19238324509E+03  0.00000000000E+00 0. -1.
        -13    1    3    3    0    0 -0.19024987795E+02 -0.55662354478E+02  0.62337261783E+02  0.85709871504E+02  0.00000000000E+00 0. -1.
         13    1    3    3    0    0 -0.46214513423E+02 -0.94244139023E+01  0.19013300540E+03  0.19589579008E+03  0.00000000000E+00 0.  1.
          3    1    1    2  501    0 -0.36810656090E+02 -0.53183210336E+02  0.47507682168E+02  0.80252464936E+02  0.00000000000E+00 0. -1.
<scales pt_clust_5="13000.00000" pt_clust_6="13000.00000" pt_clust_7="13000.00000" pt_clust_8="13000.00000" pt_clust_9="64.67985"></scales>
<clustering>
<clus scale="   64.680">  1  9  2 -1</clus>
<clus scale="   80.566">  5  6 -1 -1</clus>
<clus scale="   84.072">  7  8 -1 -1</clus>
<clus scale="  141.896">  1  5  2 -1</clus>
<clus scale="   64.680">  1  5  2 -1</clus>
</clustering>
</event>
<event>
 9    2  0.3764910E-005  0.1072706E+03  0.7546771E-02  0.1271308E+00
         -1   -1    0    0    0  501 -0.00000000000E+00  0.00000000000E+00  0.17504705091E+03  0.17504705091E+03  0.00000000000E+00 0.  1.
         21   -1    0    0  501  502  0.00000000000E+00 -0.00000000000E+00 -0.17681714967E+03  0.17681714967E+03  0.00000000000E+00 0.  1.
         23    2    1    2    0    0 -0.16387050487E+02  0.59821696831E+02  0.12915709149E+03  0.16974995702E+03  0.91029241398E+02 0.  0.
         24    2    1    2    0    0  0.10363277256E+02 -0.21769784715E+02 -0.11392176001E+03  0.14000226763E+03  0.77724812617E+02 0.  0.
        -13    1    4    4    0    0  0.39162795143E+02 -0.30612499082E+02 -0.83580798148E+02  0.97245048422E+02  0.00000000000E+00 0.  1.
         14    1    4    4    0    0 -0.28799517887E+02  0.88427143678E+01 -0.30340961864E+02  0.42757219212E+02  0.00000000000E+00 0. -1.
        -13    1    3    3    0    0  0.27633489937E+02  0.25418299314E+02  0.11119472650E+02  0.39157915907E+02  0.00000000000E+00 0. -1.
         13    1    3    3    0    0 -0.44020540424E+02  0.34403397517E+02  0.11803761884E+03  0.13059204111E+03  0.00000000000E+00 0.  1.
         -2    1    1    2    0  502  0.60237732310E+01 -0.38051912117E+02 -0.17005430235E+02  0.42111975935E+02  0.00000000000E+00 0.  1.
<scales pt_clust_5="13000.00000" pt_clust_6="13000.00000" pt_clust_7="13000.00000" pt_clust_8="13000.00000" pt_clust_9="38.52576"></scales>
<clustering>
<clus scale="   38.526">  2  9  1 -1</clus>
<clus scale="   77.725">  5  6 -1 -1</clus>
<clus scale="   91.029">  7  8 -1 -1</clus>
<clus scale="   96.238">  2  5  1 -1</clus>
<clus scale="   38.526">  2  5  1 -1</clus>
</clustering>
</event>
<event>
 9    2  0.3764910E-005  0.1248355E+03  0.7546771E-02  0.1245652E+00
         21   -1    0    0  501  502  0.00000000000E+00  0.00000000000E+00  0.65589233245E+03  0.65589233245E+03  0.00000000000E+00 0.  1.
         -1   -1    0    0    0  501 -0.00000000000E+00 -0.00000000000E+00 -0.61831880095E+02  0.61831880095E+02  0.00000000000E+00 0.  1.
         23    2    1    2    0    0  0.27403950250E+02  0.56108003152E+02  0.24805523476E+02  0.10423188781E+03  0.79686184082E+02 0.  0.
         24    2    1    2    0    0 -0.17235074973E+02  0.62141025186E+02  0.19336081127E+03  0.21930629457E+03  0.80921521754E+02 0.  0.
        -13    1    4    4    0    0 -0.24006394209E+02  0.74891873051E+02  0.11309168442E+03  0.13774915135E+03  0.00000000000E+00 0.  1.
         14    1    4    4    0    0  0.67713192363E+01 -0.12750847866E+02  0.80269126847E+02  0.81557143221E+02  0.00000000000E+00 0. -1.
        -11    1    3    3    0    0  0.41541347692E+02  0.93428626471E+01 -0.10621219657E+02  0.43883743659E+02  0.00000000000E+00 0.  1.
         11    1    3    3    0    0 -0.14137397442E+02  0.46765140505E+02  0.35426743133E+02  0.60348144146E+02  0.00000000000E+00 0. -1.
         -2    1    1    2    0  502 -0.10168875277E+02 -0.11824902834E+03  0.37589411761E+03  0.39418603017E+03  0.00000000000E+00 0.  1.
<scales pt_clust_5="13000.00000" pt_clust_6="13000.00000" pt_clust_7="13000.00000" pt_clust_8="13000.00000" pt_clust_9="95.05580"></scales>
<clustering>
<clus scale="   79.686">  7  8 -1 -1</clus>
<clus scale="   80.922">  5  6 -1 -1</clus>
<clus scale="  101.237">  2  7  1 -1</clus>
<clus scale="   95.056">  1  9  2 -1</clus>
<clus scale="   95.056">  1  5  2 -1</clus>
</clustering>
</event>
<event>
 9    2  0.3764910E-005  0.9927054E+02  0.7546771E-02  0.1287256E+00
         -3   -1    0    0    0  501 -0.00000000000E+00  0.00000000000E+00  0.74661905085E+02  0.74661905085E+02  0.00000000000E+00 0.  1.
         21   -1    0    0  501  502  0.00000000000E+00 -0.00000000000E+00 -0.39009835416E+03  0.39009835416E+03  0.00000000000E+00 0.  1.
         23    2    1    2    0    0 -0.26082726688E+02 -0.45280307776E+02  0.89861668292E+01  0.10593496444E+03  0.91710689631E+02 0.  0.
         24    2    1    2    0    0  0.88367435016E+01 -0.26494227621E+00 -0.99563036230E+02  0.12875221009E+03  0.81155253619E+02 0.  0.
        -11    1    4    4    0    0  0.39362131572E+02 -0.11125587900E+02 -0.26260060236E+02  0.48608094713E+02  0.00000000000E+00 0.  1.
         12    1    4    4    0    0 -0.30525388071E+02  0.10860645624E+02 -0.73302975994E+02  0.80144115378E+02  0.00000000000E+00 0. -1.
        -11    1    3    3    0    0  0.28483905094E+02 -0.39923065104E+02 -0.51518325596E+01  0.49312527368E+02  0.00000000000E+00 0.  1.
         11    1    3    3    0    0 -0.54566631782E+02 -0.53572426714E+01  0.14137999389E+02  0.56622437071E+02  0.00000000000E+00 0. -1.
         -4    1    1    2    0  502  0.17245983187E+02  0.45545250052E+02 -0.22485957967E+03  0.23007308471E+03  0.00000000000E+00 0.  1.
<scales pt_clust_5="13000.00000" pt_clust_6="13000.00000" pt_clust_7="13000.00000" pt_clust_8="13000.00000" pt_clust_9="48.70107"></scales>
<clustering>
<clus scale="   48.701">  2  9  1 -1</clus>
<clus scale="   81.155">  5  6 -1 -1</clus>
<clus scale="   89.610">  2  5  1 -1</clus>
<clus scale="   91.711">  7  8 -1 -1</clus>
<clus scale="   48.701">  2  5  1 -1</clus>
</clustering>
</event>
<event>
 9    2  0.3764910E-005  0.1673120E+03  0.7546771E-02  0.1182209E+00
          2   -1    0    0  502    0 -0.00000000000E+00  0.00000000000E+00  0.21721069468E+03  0.21721069468E+03  0.00000000000E+00 0. -1.
         21   -1    0    0  501  502  0.00000000000E+00 -0.00000000000E+00 -0.46337945033E+03  0.46337945033E+03  0.00000000000E+00 0.  1.
         23    2    1    2    0    0 -0.26473511591E+02 -0.13417822803E+03  0.15098669692E+03  0.22340023960E+03  0.91684462777E+02 0.  0.
         24    2    1    2    0    0  0.44950353645E+02  0.16576721470E+03 -0.33146479035E+03  0.38199335711E+03  0.80936480488E+02 0.  0.
        -11    1    4    4    0    0  0.41531617140E+02  0.10854329799E+03 -0.28637807088E+03  0.30906135676E+03  0.00000000000E+00 0.  1.
         12    1    4    4    0    0  0.34187365052E+01  0.57223916708E+02 -0.45086719467E+02  0.72932000350E+02  0.00000000000E+00 0. -1.
        -13    1    3    3    0    0  0.21977355593E+02 -0.36412193325E+02  0.75769752123E+01  0.43200260820E+02  0.00000000000E+00 0.  1.
         13    1    3    3    0    0 -0.48450867184E+02 -0.97766034705E+02  0.14340972171E+03  0.18019997878E+03  0.00000000000E+00 0. -1.
          1    1    1    2  501    0 -0.18476842054E+02 -0.31588986668E+02 -0.65690662228E+02  0.75196548291E+02  0.00000000000E+00 0. -1.
<scales pt_clust_5="13000.00000" pt_clust_6="13000.00000" pt_clust_7="13000.00000" pt_clust_8="13000.00000" pt_clust_9="36.59587"></scales>
<clustering>
<clus scale="   36.596">  2  9  1 -1</clus>
<clus scale="   80.936">  5  6 -1 -1</clus>
<clus scale="   91.684">  7  8 -1 -1</clus>
<clus scale="  161.672">  2  5  1 -1</clus>
<clus scale="   36.596">  2  5  1 -1</clus>
</clustering>
</event>
<event>
 9    2  0.3764910E-005  0.9216105E+02  0.7546771E-02  0.1298594E+00
         21   -1    0    0  501  502  0.00000000000E+00  0.00000000000E+00  0.15166795531E+03  0.15166795531E+03  0.00000000000E+00 0.  1.
         -3   -1    0    0    0  501 -0.00000000000E+00 -0.00000000000E+00 -0.21414476685E+03  0.21414476685E+03  0.00000000000E+00 0.  1.
         23    2    1    2    0    0 -0.23931864054E+02 -0.20431211225E+02 -0.12672563166E+03  0.15895046671E+03  0.90640480119E+02 0.  0.
         24    2    1    2    0    0 -0.76531144868E+01 -0.78818953802E+01 -0.36985572436E+02  0.97100490193E+02  0.89105994137E+02 0.  0.
        -11    1    4    4    0    0 -0.25424095171E+02  0.13553241504E+02 -0.56279399829E+02  0.63225357379E+02  0.00000000000E+00 0.  1.
         12    1    4    4    0    0  0.17770980684E+02 -0.21435136885E+02  0.19293827393E+02  0.33875132814E+02  0.00000000000E+00 0. -1.
        -13    1    3    3    0    0  0.27693802499E+02  0.17785470351E+01 -0.10174789700E+02  0.29557338714E+02  0.00000000000E+00 0.  1.
         13    1    3    3    0    0 -0.51625666553E+02 -0.22209758260E+02 -0.11655084196E+03  0.12939312799E+03  0.00000000000E+00 0. -1.
         -4    1    1    2    0  502  0.31584978541E+02  0.28313106606E+02  0.10123439256E+03  0.10976176526E+03  0.00000000000E+00 0.  1.
<scales pt_clust_5="13000.00000" pt_clust_6="13000.00000" pt_clust_7="13000.00000" pt_clust_8="13000.00000" pt_clust_9="42.41748"></scales>
<clustering>
<clus scale="   42.417">  1  9  2 -1</clus>
<clus scale="   89.106">  5  6 -1 -1</clus>
<clus scale="   90.640">  7  8 -1 -1</clus>
<clus scale="   90.652">  1  5  2 -1</clus>
<clus scale="   42.417">  1  5  2 -1</clus>
</clustering>
</event>
<event>
 9    2  0.3764910E-005  0.9563709E+02  0.7546771E-02  0.1294529E+00
         21   -1    0    0  501  502  0.00000000000E+00  0.00000000000E+00  0.37035316540E+02  0.37035316540E+02  0.00000000000E+00 0.  1.
          2   -1    0    0  502    0 -0.00000000000E+00 -0.00000000000E+00 -0.52535557612E+03  0.52535557612E+03  0.00000000000E+00 0. -1.
         24    2    1    2    0    0  0.39151559755E+01  0.39230696728E+02 -0.29349868696E+03  0.30686364992E+03  0.80432856367E+02 0.  0.
         23    2    1    2    0    0  0.47070050900E+02 -0.16707690762E+02 -0.15971799940E+03  0.18965586830E+03  0.89245573707E+02 0.  0.
        -13    1    3    3    0    0  0.28537037045E+02 -0.12823151444E+02 -0.85618664020E+02  0.91155643406E+02  0.00000000000E+00 0.  1.
         14    1    3    3    0    0 -0.24621881069E+02  0.52053848172E+02 -0.20788002294E+03  0.21570800651E+03  0.00000000000E+00 0. -1.
        -13    1    4    4    0    0 -0.15007479726E+02 -0.26510313909E+02 -0.19967219543E+02  0.36424044910E+02  0.00000000000E+00 0. -1.
         13    1    4    4    0    0  0.62077530626E+02  0.98026231475E+01 -0.13975077986E+03  0.15323182339E+03  0.00000000000E+00 0.  1.
          1    1    1    2  501    0 -0.50985206875E+02 -0.22523005966E+02 -0.35103573221E+02  0.65871374441E+02  0.00000000000E+00 0. -1.
<scales pt_clust_5="13000.00000" pt_clust_6="13000.00000" pt_clust_7="13000.00000" pt_clust_8="13000.00000" pt_clust_9="55.73847"></scales>
<clustering>
<clus scale="   55.738">  1  9  2 -1</clus>
<clus scale="   80.433">  5  6 -1 -1</clus>
<clus scale="   87.471">  2  5  1 -1</clus>
<clus scale="   89.246">  7  8 -1 -1</clus>
<clus scale="   55.738">  1  5  2 -1</clus>
</clustering>
</event>
<event>
 9    2  0.3764910E-005  0.1561755E+03  0.7546771E-02  0.1194004E+00
          2   -1    0    0  502    0 -0.00000000000E+00  0.00000000000E+00  0.46942417830E+03  0.46942417830E+03  0.00000000000E+00 0. -1.
         21   -1    0    0  501  502  0.00000000000E+00 -0.00000000000E+00 -0.81472500218E+02  0.81472500218E+02  0.00000000000E+00 0.  1.
         23    2    1    2    0    0  0.13988488654E+03 -0.43940932995E+02  0.25467160528E+03  0.30673017049E+03  0.87904401932E+02 0.  0.
         24    2    1    2    0    0 -0.10607912587E+03 -0.11667133973E+02  0.64117986747E+02  0.14920082626E+03  0.82224493745E+02 0.  0.
        -13    1    4    4    0    0 -0.36989214951E+02  0.13773538676E+02  0.64449030728E+02  0.75575061708E+02  0.00000000000E+00 0.  1.
         14    1    4    4    0    0 -0.69089910920E+02 -0.25440672650E+02 -0.33104398117E+00  0.73625764552E+02  0.00000000000E+00 0. -1.
        -13    1    3    3    0    0  0.77574716020E+02 -0.37305590957E+02  0.67622291685E+02  0.10946377490E+03  0.00000000000E+00 0.  1.
         13    1    3    3    0    0  0.62310170518E+02 -0.66353420373E+01  0.18704931359E+03  0.19726639559E+03  0.00000000000E+00 0. -1.
          1    1    1    2  501    0 -0.33805760667E+02  0.55608066968E+02  0.69162086060E+02  0.94965681772E+02  0.00000000000E+00 0. -1.
<scales pt_clust_5="13000.00000" pt_clust_6="13000.00000" pt_clust_7="13000.00000" pt_clust_8="13000.00000" pt_clust_9="65.07758"></scales>
<clustering>
<clus scale="   65.078">  2  9  1 -1</clus>
<clus scale="   82.224">  5  6 -1 -1</clus>
<clus scale="   87.904">  7  8 -1 -1</clus>
<clus scale="  153.051">  2  5  1 -1</clus>
<clus scale="   65.078">  2  5  1 -1</clus>
</clustering>
</event>
<event>
 9    2  0.3764910E-005  0.1353948E+03  0.7546771E-02  0.1234402E+00
         21   -1    0    0  501  502  0.00000000000E+00  0.00000000000E+00  0.44591702388E+03  0.44591702388E+03  0.00000000000E+00 0. -1.
          2   -1    0    0  502    0 -0.00000000000E+00 -0.00000000000E+00 -0.17167847097E+03  0.17167847097E+03  0.00000000000E+00 0. -1.
         24    2    1    2    0    0  0.34646430568E+02  0.45603798625E+02  0.15125490212E+03  0.18116689022E+03  0.81629131427E+02 0.  0.
         23    2    1    2    0    0  0.54538176470E+01  0.50037350065E+02 -0.12790074333E+03  0.16495440983E+03  0.91202393878E+02 0.  0.
        -11    1    3    3    0    0 -0.27933181856E+00  0.44386062298E+02  0.13595520526E+03  0.14301754574E+03  0.00000000000E+00 0.  1.
         12    1    3    3    0    0  0.34925762387E+02  0.12177363274E+01  0.15299696852E+02  0.38149344474E+02  0.00000000000E+00 0. -1.
        -13    1    4    4    0    0  0.23206958588E-01  0.70131942489E+02 -0.12580642445E+03  0.14403383745E+03  0.00000000000E+00 0. -1.
         13    1    4    4    0    0  0.54306106884E+01 -0.20094592424E+02 -0.20943188743E+01  0.20920572380E+02  0.00000000000E+00 0.  1.
          1    1    1    2  501    0 -0.40100248215E+02 -0.95641148690E+02  0.25088439412E+03  0.27147419480E+03  0.00000000000E+00 0. -1.
<scales pt_clust_5="13000.00000" pt_clust_6="13000.00000" pt_clust_7="13000.00000" pt_clust_8="13000.00000" pt_clust_9="100.06933"></scales>
<clustering>
<clus scale="   81.629">  5  6 -1 -1</clus>
<clus scale="   91.202">  7  8 -1 -1</clus>
<clus scale="   99.717">  2  5  1 -1</clus>
<clus scale="  100.069">  1  9  2 -1</clus>
<clus scale="  100.069">  1  5  2 -1</clus>
</clustering>
</event>
<event>
 9    2  0.3764910E-005  0.1143749E+03  0.7546771E-02  0.1253742E+00
         21   -1    0    0  501  502  0.00000000000E+00  0.00000000000E+00  0.25057022578E+03  0.25057022578E+03  0.00000000000E+00 0.  1.
          2   -1    0    0  502    0 -0.00000000000E+00 -0.00000000000E+00 -0.37605748509E+03  0.37605748509E+03  0.00000000000E+00 0. -1.
         23    2    1    2    0    0 -0.22177288954E+02 -0.62585209418E+02 -0.31345517714E+03  0.33301019986E+03  0.90735354445E+02 0.  0.
         24    2    1    2    0    0  0.73510176663E+02  0.84590609020E+02  0.60838383988E+02  0.15476067341E+03  0.87694012678E+02 0.  0.
        -13    1    4    4    0    0  0.60824965890E+02  0.10092074382E+03  0.63595555372E+02  0.13389946853E+03  0.00000000000E+00 0.  1.
         14    1    4    4    0    0  0.12685210773E+02 -0.16330134801E+02 -0.27571713844E+01  0.20861204879E+02  0.00000000000E+00 0. -1.
        -11    1    3    3    0    0  0.16549292168E+02 -0.17388471208E+02 -0.14193404383E+02  0.27887106881E+02  0.00000000000E+00 0.  1.
         11    1    3    3    0    0 -0.38726581122E+02 -0.45196738209E+02 -0.29926177276E+03  0.30512309297E+03  0.00000000000E+00 0. -1.
          1    1    1    2  501    0 -0.51332887709E+02 -0.22005399602E+02  0.12712953385E+03  0.13885683760E+03  0.00000000000E+00 0. -1.
<scales pt_clust_5="13000.00000" pt_clust_6="13000.00000" pt_clust_7="13000.00000" pt_clust_8="13000.00000" pt_clust_9="55.85072"></scales>
<clustering>
<clus scale="   55.851">  1  9  2 -1</clus>
<clus scale="   87.694">  5  6 -1 -1</clus>
<clus scale="   90.735">  7  8 -1 -1</clus>
<clus scale="  111.977">  1  5  2 -1</clus>
<clus scale="   55.851">  1  5  2 -1</clus>
</clustering>
</event>
<event>
 9    2  0.3764910E-005  0.1228211E+03  0.7546771E-02  0.1241673E+00
         21   -1    0    0  501  502  0.00000000000E+00  0.00000000000E+00  0.85624140919E+02  0.85624140919E+02  0.00000000000E+00 0. -1.
          2   -1    0    0  502    0 -0.00000000000E+00 -0.00000000000E+00 -0.32425438774E+03  0.32425438774E+03  0.00000000000E+00 0. -1.
         24    2    1    2    0    0 -0.42949604447E+02  0.34150730227E+02 -0.69995947947E+02  0.11997769563E+03  0.80524988808E+02 0.  0.
         23    2    1    2    0    0  0.85091388175E+02 -0.98251979831E+02 -0.10603151769E+03  0.19088564051E+03  0.91107898277E+02 0.  0.
        -11    1    3    3    0    0 -0.15116765652E+02  0.52170485986E+02 -0.16017307955E+02  0.56628882789E+02  0.00000000000E+00 0.  1.
         12    1    3    3    0    0 -0.27832838795E+02 -0.18019755759E+02 -0.53978639992E+02  0.63348812841E+02  0.00000000000E+00 0. -1.
        -13    1    4    4    0    0  0.60437129497E+02 -0.11330402436E+03 -0.95907522622E+02  0.16027695234E+03  0.00000000000E+00 0. -1.
         13    1    4    4    0    0  0.24654258678E+02  0.15052044525E+02 -0.10123995066E+02  0.30608688169E+02  0.00000000000E+00 0.  1.
          1    1    1    2  501    0 -0.42141783728E+02  0.64101249604E+02 -0.62602781182E+02  0.99015192513E+02  0.00000000000E+00 0. -1.
<scales pt_clust_5="13000.00000" pt_clust_6="13000.00000" pt_clust_7="13000.00000" pt_clust_8="13000.00000" pt_clust_9="76.71314"></scales>
<clustering>
<clus scale="   76.713">  1  9  2 -1</clus>
<clus scale="   80.525">  5  6 -1 -1</clus>
<clus scale="   91.108">  7  8 -1 -1</clus>
<clus scale="  115.190">  2  5  1 -1</clus>
<clus scale="   76.713">  1  5  2 -1</clus>
</clustering>
</event>
<event>
 9    2  0.3764910E-005  0.5612237E+03  0.7546771E-02  0.1050801E+00
          2   -1    0    0  502    0 -0.00000000000E+00  0.00000000000E+00  0.94784102514E+03  0.94784102514E+03  0.00000000000E+00 0. -1.
         21   -1    0    0  501  502  0.00000000000E+00 -0.00000000000E+00 -0.45826105913E+03  0.45826105913E+03  0.00000000000E+00 0. -1.
         23    2    1    2    0    0 -0.74295644795E+02  0.71273235702E+01 -0.18654413847E+02  0.11986359576E+03  0.91916553764E+02 0.  0.
         24    2    1    2    0    0 -0.15168893736E+03 -0.52887327597E+03  0.54341793509E+02  0.55870405623E+03  0.80502895399E+02 0.  0.
        -13    1    4    4    0    0 -0.58664552271E+01 -0.51210111777E+02  0.27822304311E+02  0.58574494981E+02  0.00000000000E+00 0.  1.
         14    1    4    4    0    0 -0.14582248213E+03 -0.47766316420E+03  0.26519489198E+02  0.50012956125E+03  0.00000000000E+00 0. -1.
        -11    1    3    3    0    0 -0.93470037940E+02 -0.77016585729E+01 -0.18654583534E+02  0.95624039991E+02  0.00000000000E+00 0. -1.
         11    1    3    3    0    0  0.19174393145E+02  0.14828982143E+02  0.16968676147E-03  0.24239555770E+02  0.00000000000E+00 0.  1.
          1    1    1    2  501    0  0.22598458216E+03  0.52174595240E+03  0.45389258635E+03  0.72753443229E+03  0.00000000000E+00 0. -1.
<scales pt_clust_5="13000.00000" pt_clust_6="13000.00000" pt_clust_7="13000.00000" pt_clust_8="13000.00000" pt_clust_9="555.42024"></scales>
<clustering>
<clus scale="   80.503">  5  6 -1 -1</clus>
<clus scale="   91.917">  7  8 -1 -1</clus>
<clus scale="  118.403">  1  7  2 -1</clus>
<clus scale="  555.420">  2  9  1 -1</clus>
<clus scale="  555.420">  2  5  1 -1</clus>
</clustering>
</event>
<event>
 9    2  0.3764910E-005  0.1099634E+03  0.7546771E-02  0.1268922E+00
          4   -1    0    0  502    0 -0.00000000000E+00  0.00000000000E+00  0.41234339050E+03  0.41234339050E+03  0.00000000000E+00 0. -1.
         21   -1    0    0  501  502  0.00000000000E+00 -0.00000000000E+00 -0.31610737624E+02  0.31610737624E+02  0.00000000000E+00 0. -1.
         23    2    1    2    0    0  0.40385657299E+02 -0.40809049163E+01  0.19748673919E+03  0.22456782635E+03  0.98904203007E+02 0.  0.
         24    2    1    2    0    0 -0.52423986438E+02  0.21176821515E+02  0.16296814567E+03  0.19025934505E+03  0.80269980383E+02 0.  0.
        -11    1    4    4    0    0 -0.10473754509E+02 -0.17660574598E+02  0.11137775995E+03  0.11325458419E+03  0.00000000000E+00 0.  1.
         12    1    4    4    0    0 -0.41950231929E+02  0.38837396113E+02  0.51590385719E+02  0.77004760855E+02  0.00000000000E+00 0. -1.
        -13    1    3    3    0    0  0.38482601682E+02  0.33997621514E+02  0.16994811609E+03  0.17753622465E+03  0.00000000000E+00 0.  1.
         13    1    3    3    0    0  0.19030556175E+01 -0.38078526430E+02  0.27538623107E+02  0.47031601699E+02  0.00000000000E+00 0. -1.
          3    1    1    2  501    0  0.12038329139E+02 -0.17095916599E+02  0.20277768010E+02  0.29126956729E+02  0.00000000000E+00 0. -1.
<scales pt_clust_5="13000.00000" pt_clust_6="13000.00000" pt_clust_7="13000.00000" pt_clust_8="13000.00000" pt_clust_9="20.90913"></scales>
<clustering>
<clus scale="   20.909">  2  9  1 -1</clus>
<clus scale="   80.270">  5  6 -1 -1</clus>
<clus scale="   93.558">  2  5  1 -1</clus>
<clus scale="   98.904">  7  8 -1 -1</clus>
<clus scale="   20.909">  2  5  1 -1</clus>
</clustering>
</event>
<event>
 9    2  0.3764910E-005  0.1364509E+03  0.7546771E-02  0.1241424E+00
         21   -1    0    0  501  502  0.00000000000E+00  0.00000000000E+00  0.20437260589E+03  0.20437260589E+03  0.00000000000E+00 0. -1.
          2   -1    0    0  502    0 -0.00000000000E+00 -0.00000000000E+00 -0.18277978026E+03  0.18277978026E+03  0.00000000000E+00 0. -1.
         24    2    1    2    0    0 -0.15320607310E+02  0.24135966872E+02 -0.52012330458E+02  0.99165256155E+02  0.79443058874E+02 0.  0.
         23    2    1    2    0    0 -0.15573161311E+02  0.76569851956E+02 -0.45088026320E+02  0.12929195542E+03  0.92617568731E+02 0.  0.
        -13    1    3    3    0    0  0.22338501705E+02 -0.93799315247E+01  0.31552345144E+01  0.24432504552E+02  0.00000000000E+00 0.  1.
         14    1    3    3    0    0 -0.37659109015E+02  0.33515898397E+02 -0.55167564973E+02  0.74732751603E+02  0.00000000000E+00 0. -1.
        -13    1    4    4    0    0 -0.33036580858E+02  0.44849515204E-01  0.86700322790E+01  0.34155338469E+02  0.00000000000E+00 0.  1.
         13    1    4    4    0    0  0.17463419547E+02  0.76525002441E+02 -0.53758058599E+02  0.95136616952E+02  0.00000000000E+00 0. -1.
          1    1    1    2  501    0  0.30893768621E+02 -0.10070581883E+03  0.11869318240E+03  0.15869517458E+03  0.00000000000E+00 0. -1.
<scales pt_clust_5="13000.00000" pt_clust_6="13000.00000" pt_clust_7="13000.00000" pt_clust_8="13000.00000" pt_clust_9="100.20397"></scales>
<clustering>
<clus scale="   79.443">  5  6 -1 -1</clus>
<clus scale="   84.430">  2  5  1 -1</clus>
<clus scale="   92.618">  7  8 -1 -1</clus>
<clus scale="  100.204">  1  9  2 -1</clus>
<clus scale="  100.204">  1  5  2 -1</clus>
</clustering>
</event>
<event>
 9    2  0.3764910E-005  0.9226285E+02  0.7546771E-02  0.1303656E+00
          4   -1    0    0  502    0 -0.00000000000E+00  0.00000000000E+00  0.99422591789E+02  0.99422591789E+02  0.00000000000E+00 0. -1.
         21   -1    0    0  501  502  0.00000000000E+00 -0.00000000000E+00 -0.15072125624E+03  0.15072125624E+03  0.00000000000E+00 0.  1.
         24    2    1    2    0    0  0.10010875014E+02  0.89780235631E+01  0.44512626326E+02  0.93509767034E+02  0.81128787139E+02 0.  0.
         23    2    1    2    0    0  0.93186491256E+01 -0.25741584667E+02 -0.59754124413E+02  0.11242133701E+03  0.91206004344E+02 0.  0.
        -13    1    3    3    0    0 -0.23871241937E+02 -0.15081807195E+02  0.43599181913E+02  0.51944063793E+02  0.00000000000E+00 0.  1.
         14    1    3    3    0    0  0.33882116952E+02  0.24059830758E+02  0.91344441359E+00  0.41565703241E+02  0.00000000000E+00 0. -1.
        -13    1    4    4    0    0 -0.22601492484E+02 -0.39165875548E+02 -0.63102234401E+02  0.77631728413E+02  0.00000000000E+00 0.  1.
         13    1    4    4    0    0  0.31920141609E+02  0.13424290880E+02  0.33481099880E+01  0.34789608599E+02  0.00000000000E+00 0. -1.
          3    1    1    2  501    0 -0.19329524140E+02  0.16763561104E+02 -0.36057166365E+02  0.44212743985E+02  0.00000000000E+00 0. -1.
<scales pt_clust_5="13000.00000" pt_clust_6="13000.00000" pt_clust_7="13000.00000" pt_clust_8="13000.00000" pt_clust_9="25.58608"></scales>
<clustering>
<clus scale="   25.586">  2  9  1 -1</clus>
<clus scale="   81.129">  5  6 -1 -1</clus>
<clus scale="   82.315">  1  5  2 -1</clus>
<clus scale="   91.206">  7  8 -1 -1</clus>
<clus scale="   25.586">  2  5  1 -1</clus>
</clustering>
</event>
<event>
 9    2  0.3764910E-005  0.2212539E+03  0.7546771E-02  0.1132952E+00
         21   -1    0    0  501  502  0.00000000000E+00  0.00000000000E+00  0.12617495570E+03  0.12617495570E+03  0.00000000000E+00 0. -1.
          2   -1    0    0  502    0 -0.00000000000E+00 -0.00000000000E+00 -0.43890675926E+03  0.43890675926E+03  0.00000000000E+00 0. -1.
         24    2    1    2    0    0 -0.26783617508E+02  0.49188518279E+02 -0.17915227926E+03  0.20456287639E+03  0.81323789487E+02 0.  0.
         23    2    1    2    0    0 -0.68818969629E+02  0.41958297947E+02 -0.18271654307E+03  0.21958607663E+03  0.91302577134E+02 0.  0.
        -13    1    3    3    0    0 -0.18335052822E+02  0.22044246281E+02 -0.62589286491E+01  0.29347864384E+02  0.00000000000E+00 0.  1.
         14    1    3    3    0    0 -0.84485646856E+01  0.27144271999E+02 -0.17289335061E+03  0.17521501201E+03  0.00000000000E+00 0. -1.
        -11    1    4    4    0    0 -0.91001808930E+02  0.27953540470E+02 -0.13601071197E+03  0.16601699740E+03  0.00000000000E+00 0. -1.
         11    1    4    4    0    0  0.22182839302E+02  0.14004757477E+02 -0.46705831095E+02  0.53569079232E+02  0.00000000000E+00 0.  1.
          1    1    1    2  501    0  0.95602587137E+02 -0.91146816226E+02  0.49137018758E+02  0.14093276194E+03  0.00000000000E+00 0. -1.
<scales pt_clust_5="13000.00000" pt_clust_6="13000.00000" pt_clust_7="13000.00000" pt_clust_8="13000.00000" pt_clust_9="132.08935"></scales>
<clustering>
<clus scale="   81.324">  5  6 -1 -1</clus>
<clus scale="   91.303">  7  8 -1 -1</clus>
<clus scale="   97.578">  5  7 -1 -1</clus>
<clus scale="  132.089">  1  9  2 -1</clus>
<clus scale="  132.089">  1  5  2 -1</clus>
</clustering>
</event>
<event>
 9    2  0.3764910E-005  0.1636531E+03  0.7546771E-02  0.1204433E+00
         -1   -1    0    0    0  501 -0.00000000000E+00  0.00000000000E+00  0.22168617782E+03  0.22168617782E+03  0.00000000000E+00 0.  1.
         21   -1    0    0  501  502  0.00000000000E+00 -0.00000000000E+00 -0.19924073274E+03  0.19924073274E+03  0.00000000000E+00 0.  1.
         23    2    1    2    0    0  0.10472060989E+02 -0.51691265699E+02  0.31553379437E+02  0.11061733226E+03  0.91972427558E+02 0.  0.
         24    2    1    2    0    0  0.13180540544E+03 -0.71085438172E+01  0.86781969526E+01  0.15533654349E+03  0.81430549184E+02 0.  0.
        -11    1    4    4    0    0  0.11774179167E+03  0.12611100452E+02  0.30992239992E+02  0.12240379202E+03  0.00000000000E+00 0.  1.
         12    1    4    4    0    0  0.14063613772E+02 -0.19719644270E+02 -0.22314043040E+02  0.32932751467E+02  0.00000000000E+00 0. -1.
        -13    1    3    3    0    0 -0.18285970875E+01  0.22765159260E+02  0.26498778979E+02  0.34982588967E+02  0.00000000000E+00 0. -1.
         13    1    3    3    0    0  0.12300658077E+02 -0.74456424959E+02  0.50546004573E+01  0.75634743290E+02  0.00000000000E+00 0.  1.
         -2    1    1    2    0  502 -0.14227746643E+03  0.58799809517E+02 -0.17786131305E+02  0.15497303482E+03  0.00000000000E+00 0.  1.
<scales pt_clust_5="13000.00000" pt_clust_6="13000.00000" pt_clust_7="13000.00000" pt_clust_8="13000.00000" pt_clust_9="141.95562"></scales>
<clustering>
<clus scale="   81.431">  5  6 -1 -1</clus>
<clus scale="   91.972">  7  8 -1 -1</clus>
<clus scale="  106.022">  1  7  2 -1</clus>
<clus scale="  141.956">  2  9  1 -1</clus>
<clus scale="  141.956">  2  5  1 -1</clus>
</clustering>
</event>
<event>
 9    2  0.3764910E-005  0.9545387E+02  0.7546771E-02  0.1291790E+00
         -1   -1    0    0    0  501 -0.00000000000E+00  0.00000000000E+00  0.54223832234E+03  0.54223832234E+03  0.00000000000E+00 0.  1.
         21   -1    0    0  501  502  0.00000000000E+00 -0.00000000000E+00 -0.96139333646E+02  0.96139333646E+02  0.00000000000E+00 0. -1.
         23    2    1    2    0    0 -0.26473270838E+02  0.17842427265E+02  0.47597251039E+03  0.48562227132E+03  0.90884396244E+02 0.  0.
         24    2    1    2    0    0 -0.10282846456E+02  0.10162303362E+02 -0.50257356996E+02  0.10225015882E+03  0.87865144993E+02 0.  0.
        -13    1    4    4    0    0  0.12304059901E+02 -0.35447132978E+02 -0.27377706564E+02  0.46448120986E+02  0.00000000000E+00 0.  1.
         14    1    4    4    0    0 -0.22586906357E+02  0.45609436340E+02 -0.22879650433E+02  0.55802037830E+02  0.00000000000E+00 0. -1.
        -11    1    3    3    0    0  0.18748158117E+00  0.52386535869E+02  0.27878448751E+03  0.28366384113E+03  0.00000000000E+00 0. -1.
         11    1    3    3    0    0 -0.26660752419E+02 -0.34544108603E+02  0.19718802288E+03  0.20195843019E+03  0.00000000000E+00 0.  1.
         -2    1    1    2    0  502  0.36756117294E+02 -0.28004730627E+02  0.20383835297E+02  0.50505225843E+02  0.00000000000E+00 0.  1.
<scales pt_clust_5="13000.00000" pt_clust_6="13000.00000" pt_clust_7="13000.00000" pt_clust_8="13000.00000" pt_clust_9="46.20906"></scales>
<clustering>
<clus scale="   46.209">  2  9  1 -1</clus>
<clus scale="   87.865">  5  6 -1 -1</clus>
<clus scale="   90.884">  7  8 -1 -1</clus>
<clus scale="   92.584">  2  5  1 -1</clus>
<clus scale="   46.209">  2  5  1 -1</clus>
</clustering>
</event>
<event>
 9    2  0.3764910E-005  0.1070040E+03  0.7546771E-02  0.1279283E+00
          2   -1    0    0  502    0 -0.00000000000E+00  0.00000000000E+00  0.12974666227E+03  0.12974666227E+03  0.00000000000E+00 0. -1.
         21   -1    0    0  501  502  0.00000000000E+00 -0.00000000000E+00 -0.13396894366E+03  0.13396894366E+03  0.00000000000E+00 0. -1.
         24    2    1    2    0    0  0.58626984777E+01  0.18660807635E+02  0.61188711238E+02  0.10440716614E+03  0.82305534337E+02 0.  0.
         23    2    1    2    0    0  0.93916192813E+01  0.95926803713E+01 -0.29494541559E+02  0.11113225012E+03  0.10630252586E+03 0.  0.
        -13    1    3    3    0    0  0.29545352388E+02  0.23369495719E+02 -0.10120780203E+01  0.37684021545E+02  0.00000000000E+00 0.  1.
         14    1    3    3    0    0 -0.23682653910E+02 -0.47086880841E+01  0.62200789258E+02  0.66723144591E+02  0.00000000000E+00 0. -1.
        -13    1    4    4    0    0 -0.22227065246E+02  0.18920872043E+01 -0.61541030122E+02  0.65459306534E+02  0.00000000000E+00 0.  1.
         13    1    4    4    0    0  0.31618684527E+02  0.77005931670E+01  0.32046488562E+02  0.45672943583E+02  0.00000000000E+00 0. -1.
          1    1    1    2  501    0 -0.15254317759E+02 -0.28253488006E+02 -0.35916451071E+02  0.48176189683E+02  0.00000000000E+00 0. -1.
<scales pt_clust_5="13000.00000" pt_clust_6="13000.00000" pt_clust_7="13000.00000" pt_clust_8="13000.00000" pt_clust_9="32.10847"></scales>
<clustering>
<clus scale="   32.108">  2  9  1 -1</clus>
<clus scale="   82.306">  5  6 -1 -1</clus>
<clus scale="   83.210">  1  5  2 -1</clus>
<clus scale="  106.303">  7  8 -1 -1</clus>
<clus scale="   32.108">  2  5  1 -1</clus>
</clustering>
</event>
<event>
 9    2  0.3764910E-005  0.1351765E+03  0.7546771E-02  0.1223924E+00
         21   -1    0    0  501  502  0.00000000000E+00  0.00000000000E+00  0.79428735877E+02  0.79428735877E+02  0.00000000000E+00 0. -1.
          2   -1    0    0  502    0 -0.00000000000E+00 -0.00000000000E+00 -0.55285790746E+03  0.55285790746E+03  0.00000000000E+00 0. -1.
         24    2    1    2    0    0  0.10144546427E+03  0.30750119285E+02 -0.36351879064E+03  0.38744549841E+03  0.82044811119E+02 0.  0.
         23    2    1    2    0    0 -0.67918929872E+02 -0.21876535772E+02 -0.14947438332E+03  0.19222860577E+03  0.97558606765E+02 0.  0.
        -13    1    3    3    0    0  0.59487872146E+01 -0.19397997795E+02 -0.25226774243E+02  0.32373762934E+02  0.00000000000E+00 0.  1.
         14    1    3    3    0    0  0.95496677052E+02  0.50148117080E+02 -0.33829201640E+03  0.35507173548E+03  0.00000000000E+00 0. -1.
        -13    1    4    4    0    0 -0.63026100127E+02  0.11140419218E+02 -0.34917668459E+02  0.72908448126E+02  0.00000000000E+00 0.  1.
         13    1    4    4    0    0 -0.48928297444E+01 -0.33016954990E+02 -0.11455671486E+03  0.11932015764E+03  0.00000000000E+00 0. -1.
          1    1    1    2  501    0 -0.33526534395E+02 -0.88735835129E+01  0.39564002377E+02  0.52612539161E+02  0.00000000000E+00 0. -1.
<scales pt_clust_5="13000.00000" pt_clust_6="13000.00000" pt_clust_7="13000.00000" pt_clust_8="13000.00000" pt_clust_9="34.68096"></scales>
<clustering>
<clus scale="   34.681">  1  9  2 -1</clus>
<clus scale="   82.045">  5  6 -1 -1</clus>
<clus scale="   97.559">  7  8 -1 -1</clus>
<clus scale="  124.444">  2  5  1 -1</clus>
<clus scale="   34.681">  1  5  2 -1</clus>
</clustering>
</event>
<event>
 9    2  0.3764910E-005  0.9705848E+02  0.7546771E-02  0.1292310E+00
         21   -1    0    0  501  502  0.00000000000E+00  0.00000000000E+00  0.17404889447E+03  0.17404889447E+03  0.00000000000E+00 0. -1.
         -1   -1    0    0    0  501 -0.00000000000E+00 -0.00000000000E+00 -0.72143509712E+02  0.72143509712E+02  0.00000000000E+00 0.  1.
         23    2    1    2    0    0 -0.12845182941E+02 -0.42046338916E+02  0.11756236712E+02  0.10205542644E+03  0.91346634442E+02 0.  0.
         24    2    1    2    0    0  0.34089500148E+01  0.17993032121E+02  0.51218200088E+02  0.97412008305E+02  0.80811046254E+02 0.  0.
        -13    1    4    4    0    0 -0.15750231996E+01  0.44879167693E+02  0.70388301793E+01  0.45455093457E+02  0.00000000000E+00 0.  1.
         14    1    4    4    0    0  0.49839732143E+01 -0.26886135572E+02  0.44179369908E+02  0.51956914848E+02  0.00000000000E+00 0. -1.
        -11    1    3    3    0    0  0.29589954081E+02 -0.45357478205E+02 -0.86670619970E+01  0.54845092536E+02  0.00000000000E+00 0.  1.
         11    1    3    3    0    0 -0.42435137023E+02  0.33111392884E+01  0.20423298709E+02  0.47210333908E+02  0.00000000000E+00 0. -1.
         -2    1    1    2    0  502  0.94362329266E+01  0.24053306795E+02  0.38930947956E+02  0.46724969431E+02  0.00000000000E+00 0.  1.
<scales pt_clust_5="13000.00000" pt_clust_6="13000.00000" pt_clust_7="13000.00000" pt_clust_8="13000.00000" pt_clust_9="25.83804"></scales>
<clustering>
<clus scale="   25.838">  1  9  2 -1</clus>
<clus scale="   80.811">  5  6 -1 -1</clus>
<clus scale="   87.216">  1  5  2 -1</clus>
<clus scale="   91.347">  7  8 -1 -1</clus>
<clus scale="   25.838">  1  5  2 -1</clus>
</clustering>
</event>
<event>
 9    2  0.3764910E-005  0.2103056E+03  0.7546771E-02  0.1142222E+00
         21   -1    0    0  501  502  0.00000000000E+00  0.00000000000E+00  0.21938221683E+03  0.21938221683E+03  0.00000000000E+00 0.  1.
          2   -1    0    0  502    0 -0.00000000000E+00 -0.00000000000E+00 -0.43595591696E+03  0.43595591696E+03  0.00000000000E+00 0. -1.
         24    2    1    2    0    0 -0.18377798955E+03 -0.47473806856E+02 -0.32785578470E+03  0.38724328128E+03  0.80248561097E+02 0.  0.
         23    2    1    2    0    0  0.17527466976E+03  0.71388522782E+02  0.11917683952E+03  0.24151389614E+03  0.91149941885E+02 0.  0.
        -11    1    3    3    0    0 -0.13297419716E+02 -0.21544323693E+02 -0.89752352717E+02  0.93254834045E+02  0.00000000000E+00 0.  1.
         12    1    3    3    0    0 -0.17048056984E+03 -0.25929483163E+02 -0.23810343198E+03  0.29398844724E+03  0.00000000000E+00 0. -1.
        -13    1    4    4    0    0  0.27937315259E+02  0.54181873377E+02  0.25543843709E+02  0.66095816342E+02  0.00000000000E+00 0. -1.
         13    1    4    4    0    0  0.14733735450E+03  0.17206649406E+02  0.93632995813E+02  0.17541807980E+03  0.00000000000E+00 0.  1.
          1    1    1    2  501    0  0.85033197931E+01 -0.23914715927E+02 -0.78947549588E+01  0.26580956364E+02  0.00000000000E+00 0. -1.
<scales pt_clust_5="13000.00000" pt_clust_6="13000.00000" pt_clust_7="13000.00000" pt_clust_8="13000.00000" pt_clust_9="25.38149"></scales>
<clustering>
<clus scale="   25.381">  1  9  2 -1</clus>
<clus scale="   80.249">  5  6 -1 -1</clus>
<clus scale="   91.150">  7  8 -1 -1</clus>
<clus scale="  205.815">  2  5  1 -1</clus>
<clus scale="   25.381">  1  5  2 -1</clus>
</clustering>
</event>
<event>
 9    2  0.3764910E-005  0.9424528E+02  0.7546771E-02  0.1299855E+00
         -1   -1    0    0    0  501 -0.00000000000E+00  0.00000000000E+00  0.24403036462E+03  0.24403036462E+03  0.00000000000E+00 0.  1.
         21   -1    0    0  501  502  0.00000000000E+00 -0.00000000000E+00 -0.16737757184E+03  0.16737757184E+03  0.00000000000E+00 0.  1.
         23    2    1    2    0    0 -0.77967115066E+01  0.31105925463E+02 -0.61218718179E+02  0.11514569239E+03  0.92100117865E+02 0.  0.
         24    2    1    2    0    0  0.18461660843E+02 -0.37410833121E+00 -0.55999776243E+02  0.99680806169E+02  0.80369865629E+02 0.  0.
        -13    1    4    4    0    0 -0.30002528524E+01 -0.33322973182E+02 -0.49617254237E+02  0.59843913449E+02  0.00000000000E+00 0.  1.
         14    1    4    4    0    0  0.21461913695E+02  0.32948864851E+02 -0.63825220059E+01  0.39836892720E+02  0.00000000000E+00 0. -1.
        -11    1    3    3    0    0 -0.43437955700E+02  0.17437654808E+02 -0.48359334746E+01  0.47056498522E+02  0.00000000000E+00 0.  1.
         11    1    3    3    0    0  0.35641244193E+02  0.13668270656E+02 -0.56382784705E+02  0.68089193867E+02  0.00000000000E+00 0. -1.
         -2    1    1    2    0  502 -0.10664949336E+02 -0.30731817132E+02  0.19387128720E+03  0.19658143791E+03  0.00000000000E+00 0.  1.
<scales pt_clust_5="13000.00000" pt_clust_6="13000.00000" pt_clust_7="13000.00000" pt_clust_8="13000.00000" pt_clust_9="32.52978"></scales>
<clustering>
<clus scale="   32.530">  2  9  1 -1</clus>
<clus scale="   80.370">  5  6 -1 -1</clus>
<clus scale="   82.819">  2  5  1 -1</clus>
<clus scale="   92.100">  7  8 -1 -1</clus>
<clus scale="   32.530">  2  5  1 -1</clus>
</clustering>
</event>
<event>
 9    2  0.3764910E-005  0.1649595E+03  0.7546771E-02  0.1191145E+00
          2   -1    0    0  502    0 -0.00000000000E+00  0.00000000000E+00  0.37821994882E+03  0.37821994882E+03  0.00000000000E+00 0. -1.
         21   -1    0    0  501  502  0.00000000000E+00 -0.00000000000E+00 -0.18968494707E+03  0.18968494707E+03  0.00000000000E+00 0. -1.
         23    2    1    2    0    0 -0.94935065643E+02  0.35938658197E+02 -0.67935981742E+02  0.15409472560E+03  0.93944840207E+02 0.  0.
         24    2    1    2    0    0  0.74265098156E+02  0.12245847331E+03  0.13180393323E+03  0.21118052723E+03  0.81936290956E+02 0.  0.
        -13    1    4    4    0    0 -0.17076982589E+02  0.27080014950E+02  0.17298231712E+02  0.36389275404E+02  0.00000000000E+00 0.  1.
         14    1    4    4    0    0  0.91342080745E+02  0.95378458364E+02  0.11450570152E+03  0.17479125183E+03  0.00000000000E+00 0. -1.
        -11    1    3    3    0    0 -0.74590950210E+02 -0.14264550548E+02 -0.64806523885E+02  0.99835729044E+02  0.00000000000E+00 0. -1.
         11    1    3    3    0    0 -0.20344115433E+02  0.50203208745E+02 -0.31294578565E+01  0.54258996558E+02  0.00000000000E+00 0.  1.
          1    1    1    2  501    0  0.20669967487E+02 -0.15839713151E+03  0.12466705025E+03  0.20262964306E+03  0.00000000000E+00 0. -1.
<scales pt_clust_5="13000.00000" pt_clust_6="13000.00000" pt_clust_7="13000.00000" pt_clust_8="13000.00000" pt_clust_9="143.17152"></scales>
<clustering>
<clus scale="   81.936">  5  6 -1 -1</clus>
<clus scale="   93.945">  7  8 -1 -1</clus>
<clus scale="  138.311">  1  7  2 -1</clus>
<clus scale="  143.172">  2  9  1 -1</clus>
<clus scale="  143.172">  2  5  1 -1</clus>
</clustering>
</event>
<event>
 9    2  0.3764910E-005  0.1061716E+03  0.7546771E-02  0.1272405E+00
         21   -1    0    0  501  502  0.00000000000E+00  0.00000000000E+00  0.33684631555E+02  0.33684631555E+02  0.00000000000E+00 0. -1.
          2   -1    0    0  502    0 -0.00000000000E+00 -0.00000000000E+00 -0.53343905343E+03  0.53343905343E+03  0.00000000000E+00 0. -1.
         23    2    1    2    0    0 -0.51696516158E+02  0.15017370254E+02 -0.33795731464E+03  0.35401977664E+03  0.90646591465E+02 0.  0.
         24    2    1    2    0    0  0.62092485880E+02  0.33363891170E+01 -0.81226813907E+02  0.12981820227E+03  0.79927229696E+02 0.  0.
        -13    1    4    4    0    0  0.21629892826E+02  0.33138231904E+02 -0.66617290025E+02  0.77484566255E+02  0.00000000000E+00 0.  1.
         14    1    4    4    0    0  0.40462593054E+02 -0.29801842787E+02 -0.14609523882E+02  0.52333636011E+02  0.00000000000E+00 0. -1.
        -13    1    3    3    0    0  0.11591399567E+02  0.36659079025E+02 -0.13060080852E+03  0.13614264507E+03  0.00000000000E+00 0. -1.
         13    1    3    3    0    0 -0.63287915725E+02 -0.21641708771E+02 -0.20735650611E+03  0.21787713157E+03  0.00000000000E+00 0.  1.
          1    1    1    2  501    0 -0.10395969723E+02 -0.18353759371E+02 -0.80570293337E+02  0.83285706084E+02  0.00000000000E+00 0. -1.
<scales pt_clust_5="13000.00000" pt_clust_6="13000.00000" pt_clust_7="13000.00000" pt_clust_8="13000.00000" pt_clust_9="21.09353"></scales>
<clustering>
<clus scale="   21.094">  1  9  2 -1</clus>
<clus scale="   79.927">  5  6 -1 -1</clus>
<clus scale="   90.647">  7  8 -1 -1</clus>
<clus scale="   97.180">  1  5  2 -1</clus>
<clus scale="   21.094">  1  5  2 -1</clus>
</clustering>
</event>
<event>
 9    2  0.3764910E-005  0.1015808E+03  0.7546771E-02  0.1284146E+00
         21   -1    0    0  501  502  0.00000000000E+00  0.00000000000E+00  0.19231498310E+03  0.19231498310E+03  0.00000000000E+00 0. -1.
         -1   -1    0    0    0  501 -0.00000000000E+00 -0.00000000000E+00 -0.10009599247E+03  0.10009599247E+03  0.00000000000E+00 0.  1.
         24    2    1    2    0    0  0.13006521492E+02 -0.38110474691E+02 -0.47966060915E+02  0.99370950054E+02  0.77150922435E+02 0.  0.
         23    2    1    2    0    0 -0.21777544471E+02  0.57343418247E+02  0.10689696444E+03  0.15360737782E+03  0.91682803484E+02 0.  0.
        -13    1    3    3    0    0 -0.14798946239E+02  0.18512145091E+02 -0.16490366240E+02  0.28872833328E+02  0.00000000000E+00 0.  1.
         14    1    3    3    0    0  0.27805467731E+02 -0.56622619782E+02 -0.31475694675E+02  0.70498116726E+02  0.00000000000E+00 0. -1.
        -11    1    4    4    0    0  0.29016775601E+01  0.34841357084E+02  0.11419026869E+03  0.11942259987E+03  0.00000000000E+00 0. -1.
         11    1    4    4    0    0 -0.24679222032E+02  0.22502061163E+02 -0.72933042490E+01  0.34184777951E+02  0.00000000000E+00 0.  1.
         -2    1    1    2    0  502  0.87710229798E+01 -0.19232943556E+02  0.33288087099E+02  0.39432647700E+02  0.00000000000E+00 0.  1.
<scales pt_clust_5="13000.00000" pt_clust_6="13000.00000" pt_clust_7="13000.00000" pt_clust_8="13000.00000" pt_clust_9="21.13852"></scales>
<clustering>
<clus scale="   21.139">  1  9  2 -1</clus>
<clus scale="   77.151">  5  6 -1 -1</clus>
<clus scale="   88.686">  2  5  1 -1</clus>
<clus scale="   91.683">  7  8 -1 -1</clus>
<clus scale="   21.139">  1  5  2 -1</clus>
</clustering>
</event>
<event>
 9    2  0.3764910E-005  0.9762276E+02  0.7546771E-02  0.1295062E+00
         21   -1    0    0  501  502  0.00000000000E+00  0.00000000000E+00  0.15629532485E+02  0.15629532485E+02  0.00000000000E+00 0. -1.
          2   -1    0    0  502    0 -0.00000000000E+00 -0.00000000000E+00 -0.82283299886E+03  0.82283299886E+03  0.00000000000E+00 0. -1.
         23    2    1    2    0    0  0.24820000383E+01  0.25290074492E+01 -0.41878972892E+03  0.42982951691E+03  0.96726523525E+02 0.  0.
         24    2    1    2    0    0  0.15719813446E+02  0.24766951032E+02 -0.33665210279E+03  0.34734971992E+03  0.80353439364E+02 0.  0.
        -13    1    4    4    0    0  0.14551561223E+02  0.41812390931E+02 -0.91962205138E+02  0.10206405412E+03  0.00000000000E+00 0.  1.
         14    1    4    4    0    0  0.11682522230E+01 -0.17045439899E+02 -0.24468989766E+03  0.24528566580E+03  0.00000000000E+00 0. -1.
        -13    1    3    3    0    0  0.30063472169E+02  0.37941567936E+02 -0.27394493021E+03  0.27818914380E+03  0.00000000000E+00 0. -1.
         13    1    3    3    0    0 -0.27581472131E+02 -0.35412560486E+02 -0.14484479871E+03  0.15164037311E+03  0.00000000000E+00 0.  1.
          1    1    1    2  501    0 -0.18201813484E+02 -0.27295958481E+02 -0.51761634656E+02  0.61283294508E+02  0.00000000000E+00 0. -1.
<scales pt_clust_5="13000.00000" pt_clust_6="13000.00000" pt_clust_7="13000.00000" pt_clust_8="13000.00000" pt_clust_9="32.80816"></scales>
<clustering>
<clus scale="   32.808">  1  9  2 -1</clus>
<clus scale="   80.353">  5  6 -1 -1</clus>
<clus scale="   81.430">  1  5  2 -1</clus>
<clus scale="   96.727">  7  8 -1 -1</clus>
<clus scale="   32.808">  1  5  2 -1</clus>
</clustering>
</event>
<event>
 9    2  0.3764910E-005  0.9012874E+02  0.7546771E-02  0.1307978E+00
         21   -1    0    0  501  502  0.00000000000E+00  0.00000000000E+00  0.25228128434E+02  0.25228128434E+02  0.00000000000E+00 0. -1.
          2   -1    0    0  502    0 -0.00000000000E+00 -0.00000000000E+00 -0.45535756163E+03  0.45535756163E+03  0.00000000000E+00 0. -1.
         23    2    1    2    0    0  0.12180878209E+02  0.13096047500E+02 -0.17024538968E+03  0.19299604463E+03  0.89129682381E+02 0.  0.
         24    2    1    2    0    0  0.21055565748E+02 -0.12243169157E+02 -0.14130042333E+03  0.16443338865E+03  0.80494084444E+02 0.  0.
        -11    1    4    4    0    0  0.30183093814E+02  0.26146353977E+02 -0.98141204473E+02  0.10595445717E+03  0.00000000000E+00 0.  1.
         12    1    4    4    0    0 -0.91275280661E+01 -0.38389523135E+02 -0.43159218856E+02  0.58478931483E+02  0.00000000000E+00 0. -1.
        -13    1    3    3    0    0  0.19084674280E+02  0.46545162836E+02 -0.64051226693E+02  0.81444684398E+02  0.00000000000E+00 0. -1.
         13    1    3    3    0    0 -0.69037960709E+01 -0.33449115336E+02 -0.10619416299E+03  0.11155136023E+03  0.00000000000E+00 0.  1.
          1    1    1    2  501    0 -0.33236443957E+02 -0.85287834281E+00 -0.11858362018E+03  0.12315625678E+03  0.00000000000E+00 0. -1.
<scales pt_clust_5="13000.00000" pt_clust_6="13000.00000" pt_clust_7="13000.00000" pt_clust_8="13000.00000" pt_clust_9="33.24740"></scales>
<clustering>
<clus scale="   33.247">  1  9  2 -1</clus>
<clus scale="   80.494">  5  6 -1 -1</clus>
<clus scale="   81.599">  1  5  2 -1</clus>
<clus scale="   89.130">  7  8 -1 -1</clus>
<clus scale="   33.247">  1  5  2 -1</clus>
</clustering>
</event>
<event>
 9    2  0.3764910E-005  0.9335896E+02  0.7546771E-02  0.1300591E+00
         21   -1    0    0  501  502  0.00000000000E+00  0.00000000000E+00  0.14518084493E+03  0.14518084493E+03  0.00000000000E+00 0. -1.
          2   -1    0    0  502    0 -0.00000000000E+00 -0.00000000000E+00 -0.92985418190E+02  0.92985418190E+02  0.00000000000E+00 0. -1.
         24    2    1    2    0    0 -0.25090364608E+02 -0.92481170504E+01  0.14852054222E+02  0.83473456214E+02  0.77667112169E+02 0.  0.
         23    2    1    2    0    0  0.27103431756E+02  0.37234861049E+02  0.62429809768E+02  0.11705453366E+03  0.87654160274E+02 0.  0.
        -13    1    3    3    0    0 -0.37740465134E+02  0.16772977373E+02  0.29779525371E+02  0.50916555361E+02  0.00000000000E+00 0.  1.
         14    1    3    3    0    0  0.12650100526E+02 -0.26021094423E+02 -0.14927471148E+02  0.32556900854E+02  0.00000000000E+00 0. -1.
        -11    1    4    4    0    0 -0.26549900848E+02 -0.75990904904E+01  0.27195855939E+02  0.38758973046E+02  0.00000000000E+00 0.  1.
         11    1    4    4    0    0  0.53653332604E+02  0.44833951539E+02  0.35233953829E+02  0.78295560618E+02  0.00000000000E+00 0. -1.
          1    1    1    2  501    0 -0.20130671479E+01 -0.27986743998E+02 -0.25086437248E+02  0.37638273243E+02  0.00000000000E+00 0. -1.
<scales pt_clust_5="13000.00000" pt_clust_6="13000.00000" pt_clust_7="13000.00000" pt_clust_8="13000.00000" pt_clust_9="28.05906"></scales>
<clustering>
<clus scale="   28.059">  1  9  2 -1</clus>
<clus scale="   77.667">  5  6 -1 -1</clus>
<clus scale="   84.053">  2  5  1 -1</clus>
<clus scale="   87.654">  7  8 -1 -1</clus>
<clus scale="   28.059">  1  5  2 -1</clus>
</clustering>
</event>
<event>
 9    2  0.3764910E-005  0.1715349E+03  0.7546771E-02  0.1207465E+00
         21   -1    0    0  501  502  0.00000000000E+00  0.00000000000E+00  0.65457081037E+02  0.65457081037E+02  0.00000000000E+00 0.  1.
          2   -1    0    0  502    0 -0.00000000000E+00 -0.00000000000E+00 -0.68722415857E+03  0.68722415857E+03  0.00000000000E+00 0. -1.
         24    2    1    2    0    0  0.33366846880E+02  0.15785807958E+02 -0.54400654038E+02  0.10198017231E+03  0.77961440353E+02 0.  0.
         23    2    1    2    0    0  0.87242150655E+02  0.88536278774E+02 -0.33175314850E+03  0.36619580650E+03  0.92678755097E+02 0.  0.
        -13    1    3    3    0    0  0.30170067723E+02  0.34522145523E+02 -0.16143307360E+01  0.45876111231E+02  0.00000000000E+00 0.  1.
         14    1    3    3    0    0  0.31967791567E+01 -0.18736337565E+02 -0.52786323302E+02  0.56104061084E+02  0.00000000000E+00 0. -1.
        -13    1    4    4    0    0  0.98222163016E+02  0.55859294397E+02 -0.29453446129E+03  0.31546537523E+03  0.00000000000E+00 0.  1.
         13    1    4    4    0    0 -0.10980012361E+02  0.32676984378E+02 -0.37218687208E+02  0.50730431271E+02  0.00000000000E+00 0. -1.
          1    1    1    2  501    0 -0.12060899753E+03 -0.10432208673E+03 -0.23561327500E+03  0.28450526080E+03  0.00000000000E+00 0. -1.
<scales pt_clust_5="13000.00000" pt_clust_6="13000.00000" pt_clust_7="13000.00000" pt_clust_8="13000.00000" pt_clust_9="144.34287"></scales>
<clustering>
<clus scale="   77.961">  5  6 -1 -1</clus>
<clus scale="   86.259">  2  5  1 -1</clus>
<clus scale="   92.679">  7  8 -1 -1</clus>
<clus scale="  144.343">  1  9  2 -1</clus>
<clus scale="  144.343">  1  5  2 -1</clus>
</clustering>
</event>
<event>
 9    2  0.3764910E-005  0.1157592E+03  0.7546771E-02  0.1253999E+00
         -1   -1    0    0    0  501 -0.00000000000E+00  0.00000000000E+00  0.66562666194E+02  0.66562666194E+02  0.00000000000E+00 0.  1.
         21   -1    0    0  501  502  0.00000000000E+00 -0.00000000000E+00 -0.42981787468E+03  0.42981787468E+03  0.00000000000E+00 0.  1.
         23    2    1    2    0    0 -0.10674389960E+02 -0.47286990963E+02 -0.85826863220E+02  0.13344752557E+03  0.89955486298E+02 0.  0.
         24    2    1    2    0    0  0.65625085797E+02  0.10827868045E+03 -0.20423645730E+03  0.25294839082E+03  0.78990084210E+02 0.  0.
        -13    1    4    4    0    0  0.67935186905E+02  0.66914140214E+02 -0.88789782104E+02  0.13029319701E+03  0.00000000000E+00 0.  1.
         14    1    4    4    0    0 -0.23101011082E+01  0.41364540232E+02 -0.11544667519E+03  0.12265519381E+03  0.00000000000E+00 0. -1.
        -11    1    3    3    0    0 -0.43568655157E+02 -0.50252021850E+02 -0.42348573808E+02  0.78847289844E+02  0.00000000000E+00 0.  1.
         11    1    3    3    0    0  0.32894265198E+02  0.29650308866E+01 -0.43478289413E+02  0.54600235726E+02  0.00000000000E+00 0. -1.
         -2    1    1    2    0  502 -0.54950695837E+02 -0.60991689483E+02 -0.73191887971E+02  0.10998462449E+03  0.00000000000E+00 0.  1.
<scales pt_clust_5="13000.00000" pt_clust_6="13000.00000" pt_clust_7="13000.00000" pt_clust_8="13000.00000" pt_clust_9="82.09490"></scales>
<clustering>
<clus scale="   78.990">  5  6 -1 -1</clus>
<clus scale="   82.095">  2  9  1 -1</clus>
<clus scale="   89.955">  7  8 -1 -1</clus>
<clus scale="  107.460">  2  5  1 -1</clus>
<clus scale="   82.095">  2  5  1 -1</clus>
</clustering>
</event>
<event>
 9    2  0.9044046E-005  0.9458952E+02  0.7546771E-02  0.1298940E+00
         21   -1    0    0  501  502  0.00000000000E+00  0.00000000000E+00  0.11886687176E+03  0.11886687176E+03  0.00000000000E+00 0.  1.
         -1   -1    0    0    0  501 -0.00000000000E+00 -0.00000000000E+00 -0.31633757792E+03  0.31633757792E+03  0.00000000000E+00 0.  1.
         24    2    1    2    0    0  0.21781176706E+02 -0.14553367120E+02 -0.24422929282E+03  0.25817027297E+03  0.79484100456E+02 0.  0.
         23    2    1    2    0    0 -0.15383903090E+02 -0.13023501738E+02  0.87109764601E+02  0.12774293643E+03  0.91235248928E+02 0.  0.
        -11    1    3    3    0    0  0.16615555510E+02 -0.42626633229E+02 -0.20255515170E+03  0.20765764139E+03  0.00000000000E+00 0.  1.
         12    1    3    3    0    0  0.51656211962E+01  0.28073266109E+02 -0.41674141115E+02  0.50512631589E+02  0.00000000000E+00 0. -1.
        -11    1    4    4    0    0  0.32530129445E+02 -0.28327124539E+02  0.39853551257E+02  0.58727683882E+02  0.00000000000E+00 0.  1.
         11    1    4    4    0    0 -0.47914032535E+02  0.15303622801E+02  0.47256213343E+02  0.69015252547E+02  0.00000000000E+00 0. -1.
         -2    1    1    2    0  502 -0.63972736155E+01  0.27576868858E+02 -0.40351177954E+02  0.49291240276E+02  0.00000000000E+00 0.  1.
<scales pt_clust_5="13000.00000" pt_clust_6="13000.00000" pt_clust_7="13000.00000" pt_clust_8="13000.00000" pt_clust_9="28.30918"></scales>
<clustering>
<clus scale="   28.309">  1  9  2 -1</clus>
<clus scale="   79.484">  5  6 -1 -1</clus>
<clus scale="   83.313">  2  5  1 -1</clus>
<clus scale="   91.235">  7  8 -1 -1</clus>
<clus scale="   28.309">  1  5  2 -1</clus>
</clustering>
</event>
<event>
 9    2  0.3764910E-005  0.9811541E+02  0.7546771E-02  0.1290478E+00
         21   -1    0    0  501  502  0.00000000000E+00  0.00000000000E+00  0.29236583605E+03  0.29236583605E+03  0.00000000000E+00 0. -1.
         -1   -1    0    0    0  501 -0.00000000000E+00 -0.00000000000E+00 -0.16773438603E+03  0.16773438603E+03  0.00000000000E+00 0.  1.
         23    2    1    2    0    0 -0.23775225099E+02 -0.70573900989E+01 -0.13975710589E+03  0.17064034085E+03  0.94715411615E+02 0.  0.
         24    2    1    2    0    0  0.28382663601E+02  0.26953301907E+02  0.17563301892E+03  0.19838507053E+03  0.83532166252E+02 0.  0.
        -13    1    4    4    0    0  0.40682849960E+02 -0.17129194805E+02  0.64114213785E+02  0.77840452239E+02  0.00000000000E+00 0.  1.
         14    1    4    4    0    0 -0.12300186360E+02  0.44082496712E+02  0.11151880514E+03  0.12054461829E+03  0.00000000000E+00 0. -1.
        -11    1    3    3    0    0  0.17885506607E+02 -0.40183075942E+02 -0.53194732818E+02  0.69023550607E+02  0.00000000000E+00 0.  1.
         11    1    3    3    0    0 -0.41660731706E+02  0.33125685843E+02 -0.86562373069E+02  0.10161679025E+03  0.00000000000E+00 0. -1.
         -2    1    1    2    0  502 -0.46074385023E+01 -0.19895911808E+02  0.88755536987E+02  0.91074810689E+02  0.00000000000E+00 0.  1.
<scales pt_clust_5="13000.00000" pt_clust_6="13000.00000" pt_clust_7="13000.00000" pt_clust_8="13000.00000" pt_clust_9="20.42243"></scales>
<clustering>
<clus scale="   20.422">  1  9  2 -1</clus>
<clus scale="   83.532">  5  6 -1 -1</clus>
<clus scale="   87.368">  1  5  2 -1</clus>
<clus scale="   94.715">  7  8 -1 -1</clus>
<clus scale="   20.422">  1  5  2 -1</clus>
</clustering>
</event>
<event>
 9    2  0.3764910E-005  0.1355056E+03  0.7546771E-02  0.1221517E+00
         21   -1    0    0  501  502  0.00000000000E+00  0.00000000000E+00  0.10142031278E+03  0.10142031278E+03  0.00000000000E+00 0. -1.
         -1   -1    0    0    0  501 -0.00000000000E+00 -0.00000000000E+00 -0.49099984497E+03  0.49099984497E+03  0.00000000000E+00 0.  1.
         23    2    1    2    0    0 -0.88838480942E+02 -0.45466805671E+02 -0.32188446309E+03  0.34836574162E+03  0.88258576050E+02 0.  0.
         24    2    1    2    0    0  0.13446884405E+03 -0.15421724878E+02 -0.32657309232E+02  0.16028575966E+03  0.79406078388E+02 0.  0.
        -11    1    4    4    0    0  0.92903847098E+02 -0.16435778996E+02 -0.58802598587E+02  0.11117106295E+03  0.00000000000E+00 0.  1.
         12    1    4    4    0    0  0.41564996957E+02  0.10140541180E+01  0.26145289355E+02  0.49114696713E+02  0.00000000000E+00 0. -1.
        -13    1    3    3    0    0 -0.22465970181E+02  0.19414758543E+02 -0.30545900184E+02  0.42599350741E+02  0.00000000000E+00 0. -1.
         13    1    3    3    0    0 -0.66372510761E+02 -0.64881564214E+02 -0.29133856290E+03  0.30576639088E+03  0.00000000000E+00 0.  1.
         -2    1    1    2    0  502 -0.45630363113E+02  0.60888530548E+02 -0.35037759869E+02  0.83768656470E+02  0.00000000000E+00 0.  1.
<scales pt_clust_5="13000.00000" pt_clust_6="13000.00000" pt_clust_7="13000.00000" pt_clust_8="13000.00000" pt_clust_9="76.08905"></scales>
<clustering>
<clus scale="   76.089">  1  9  2 -1</clus>
<clus scale="   79.406">  5  6 -1 -1</clus>
<clus scale="   88.259">  7  8 -1 -1</clus>
<clus scale="  129.913">  1  5  2 -1</clus>
<clus scale="   76.089">  1  5  2 -1</clus>
</clustering>
</event>
<event>
 9    2  0.3764910E-005  0.1599122E+03  0.7546771E-02  0.1220527E+00
          2   -1    0    0  502    0 -0.00000000000E+00  0.00000000000E+00  0.39809016298E+03  0.39809016298E+03  0.00000000000E+00 0. -1.
         21   -1    0    0  501  502  0.00000000000E+00 -0.00000000000E+00 -0.92763532383E+02  0.92763532383E+02  0.00000000000E+00 0. -1.
         23    2    1    2    0    0 -0.13934339615E+02  0.37531869861E+02  0.41612947659E+02  0.90800443856E+02  0.70073362384E+02 0.  0.
         24    2    1    2    0    0  0.14442536929E+03 -0.29887030356E+01  0.15107087243E+03  0.22424215414E+03  0.81206622614E+02 0.  0.
        -11    1    4    4    0    0  0.43030252195E+02  0.29860429355E+02  0.21886845325E+02  0.56765146380E+02  0.00000000000E+00 0.  1.
         12    1    4    4    0    0  0.10139511709E+03 -0.32849132390E+02  0.12918402710E+03  0.16747700776E+03  0.00000000000E+00 0. -1.
        -11    1    3    3    0    0 -0.15550006335E+02 -0.18101106393E+02  0.56082565445E+01  0.24513369641E+02  0.00000000000E+00 0.  1.
         11    1    3    3    0    0  0.16156667200E+01  0.55632976254E+02  0.36004691114E+02  0.66287074215E+02  0.00000000000E+00 0. -1.
          1    1    1    2  501    0 -0.13049102967E+03 -0.34543166825E+02  0.11264281051E+03  0.17581109737E+03  0.00000000000E+00 0. -1.
<scales pt_clust_5="13000.00000" pt_clust_6="13000.00000" pt_clust_7="13000.00000" pt_clust_8="13000.00000" pt_clust_9="137.75842"></scales>
<clustering>
<clus scale="   70.073">  7  8 -1 -1</clus>
<clus scale="   80.704">  1  7  2 -1</clus>
<clus scale="   81.207">  5  6 -1 -1</clus>
<clus scale="  137.758">  2  9  1 -1</clus>
<clus scale="  137.758">  2  5  1 -1</clus>
</clustering>
</event>
<event>
 9    2  0.3764910E-005  0.1272549E+03  0.7546771E-02  0.1235391E+00
          2   -1    0    0  502    0 -0.00000000000E+00  0.00000000000E+00  0.12374257107E+04  0.12374257107E+04  0.00000000000E+00 0. -1.
         21   -1    0    0  501  502  0.00000000000E+00 -0.00000000000E+00 -0.30314050694E+02  0.30314050694E+02  0.00000000000E+00 0. -1.
         24    2    1    2    0    0 -0.43916231851E+02 -0.83743884718E+02  0.62532723171E+03  0.63750828880E+03  0.80255827979E+02 0.  0.
         23    2    1    2    0    0 -0.17854929096E+02  0.68791549242E+02  0.13542829962E+03  0.17937335492E+03  0.93717129591E+02 0.  0.
        -11    1    3    3    0    0 -0.26134111655E+02 -0.10011956135E+02  0.50822384925E+02  0.58018495905E+02  0.00000000000E+00 0.  1.
         12    1    3    3    0    0 -0.17782120196E+02 -0.73731928582E+02  0.57450484679E+03  0.57948979290E+03  0.00000000000E+00 0. -1.
        -13    1    4    4    0    0  0.24355178532E+02  0.56086887109E+02  0.36859778548E+02  0.71397177125E+02  0.00000000000E+00 0. -1.
         13    1    4    4    0    0 -0.42210107628E+02  0.12704662133E+02  0.98568521069E+02  0.10797617780E+03  0.00000000000E+00 0.  1.
          1    1    1    2  501    0  0.61771160947E+02  0.14952335476E+02  0.44635612871E+03  0.45085811770E+03  0.00000000000E+00 0. -1.
<scales pt_clust_5="13000.00000" pt_clust_6="13000.00000" pt_clust_7="13000.00000" pt_clust_8="13000.00000" pt_clust_9="63.55512"></scales>
<clustering>
<clus scale="   63.555">  2  9  1 -1</clus>
<clus scale="   80.256">  5  6 -1 -1</clus>
<clus scale="   93.717">  7  8 -1 -1</clus>
<clus scale="  117.694">  1  5  2 -1</clus>
<clus scale="   63.555">  2  5  1 -1</clus>
</clustering>
</event>
<event>
 9    2  0.3764910E-005  0.2063008E+03  0.7546771E-02  0.1145374E+00
         21   -1    0    0  501  502  0.00000000000E+00  0.00000000000E+00  0.92516638355E+03  0.92516638355E+03  0.00000000000E+00 0.  1.
         -3   -1    0    0    0  501 -0.00000000000E+00 -0.00000000000E+00 -0.61614639389E+02  0.61614639389E+02  0.00000000000E+00 0.  1.
         23    2    1    2    0    0 -0.57774304311E+02 -0.18572639239E+03  0.28375122166E+03  0.35565572033E+03  0.90244515321E+02 0.  0.
         24    2    1    2    0    0  0.19296036232E+02  0.17522834779E+03  0.37092071032E+03  0.41847168285E+03  0.80368309195E+02 0.  0.
        -13    1    4    4    0    0  0.23242979217E+02  0.15651995864E+03  0.24875119767E+03  0.29481501298E+03  0.00000000000E+00 0.  1.
         14    1    4    4    0    0 -0.39469429854E+01  0.18708389153E+02  0.12216951265E+03  0.12365666988E+03  0.00000000000E+00 0. -1.
        -13    1    3    3    0    0  0.12544466460E+02 -0.91643196042E+02  0.89848774277E+02  0.12895208900E+03  0.00000000000E+00 0. -1.
         13    1    3    3    0    0 -0.70318770771E+02 -0.94083196345E+02  0.19390244738E+03  0.22670363133E+03  0.00000000000E+00 0.  1.
         -4    1    1    2    0  502  0.38478268080E+02  0.10498044594E+02  0.20887981219E+03  0.21265361975E+03  0.00000000000E+00 0.  1.
<scales pt_clust_5="13000.00000" pt_clust_6="13000.00000" pt_clust_7="13000.00000" pt_clust_8="13000.00000" pt_clust_9="39.88466"></scales>
<clustering>
<clus scale="   39.885">  1  9  2 -1</clus>
<clus scale="   80.368">  5  6 -1 -1</clus>
<clus scale="   90.245">  7  8 -1 -1</clus>
<clus scale="  202.176">  1  5  2 -1</clus>
<clus scale="   39.885">  1  5  2 -1</clus>
</clustering>
</event>
<event>
 9    2  0.3764910E-005  0.9872040E+02  0.7546771E-02  0.1287404E+00
         21   -1    0    0  501  502  0.00000000000E+00  0.00000000000E+00  0.15937262710E+03  0.15937262710E+03  0.00000000000E+00 0.  1.
          2   -1    0    0  502    0 -0.00000000000E+00 -0.00000000000E+00 -0.11759195084E+03  0.11759195084E+03  0.00000000000E+00 0. -1.
         23    2    1    2    0    0 -0.54143556167E+02  0.33027332444E+01 -0.15124855869E+02  0.10530153080E+03  0.88978752540E+02 0.  0.
         24    2    1    2    0    0  0.96083304819E+01 -0.46976034061E+02  0.56717738656E+02  0.10928693955E+03  0.80172722838E+02 0.  0.
        -13    1    4    4    0    0  0.19980080817E+02 -0.34598600307E+02  0.74948496623E+02  0.84932584552E+02  0.00000000000E+00 0.  1.
         14    1    4    4    0    0 -0.10371750335E+02 -0.12377433754E+02 -0.18230757967E+02  0.24354354998E+02  0.00000000000E+00 0. -1.
        -11    1    3    3    0    0 -0.70985594828E+01  0.41065402857E+02 -0.16846770633E+02  0.44950756827E+02  0.00000000000E+00 0. -1.
         11    1    3    3    0    0 -0.47044996684E+02 -0.37762669613E+02  0.17219147636E+01  0.60350773978E+02  0.00000000000E+00 0.  1.
          1    1    1    2  501    0  0.44535225685E+02  0.43673300817E+02  0.18779347623E+00  0.62376107585E+02  0.00000000000E+00 0. -1.
<scales pt_clust_5="13000.00000" pt_clust_6="13000.00000" pt_clust_7="13000.00000" pt_clust_8="13000.00000" pt_clust_9="62.37586"></scales>
<clustering>
<clus scale="   62.376">  1  9  2 -1</clus>
<clus scale="   80.173">  5  6 -1 -1</clus>
<clus scale="   88.979">  7  8 -1 -1</clus>
<clus scale="   90.863">  1  5  2 -1</clus>
<clus scale="   62.376">  1  5  2 -1</clus>
</clustering>
</event>
<event>
 9    2  0.3764910E-005  0.1173115E+03  0.7546771E-02  0.1251359E+00
         21   -1    0    0  501  502  0.00000000000E+00  0.00000000000E+00  0.35751200229E+03  0.35751200229E+03  0.00000000000E+00 0.  1.
         -1   -1    0    0    0  501 -0.00000000000E+00 -0.00000000000E+00 -0.81940090550E+02  0.81940090550E+02  0.00000000000E+00 0.  1.
         23    2    1    2    0    0 -0.52166415888E+02  0.34897431538E+02  0.48963529710E+02  0.12066488418E+03  0.90683081986E+02 0.  0.
         24    2    1    2    0    0  0.18225266266E+02 -0.10905930852E+03  0.10300555938E+03  0.17070060089E+03  0.79388014044E+02 0.  0.
        -13    1    4    4    0    0 -0.12616798384E+02 -0.72606036733E+02  0.22417650000E+02  0.77028379205E+02  0.00000000000E+00 0.  1.
         14    1    4    4    0    0  0.30842064650E+02 -0.36453271788E+02  0.80587909384E+02  0.93672221682E+02  0.00000000000E+00 0. -1.
        -11    1    3    3    0    0 -0.31095824498E+02  0.57851396747E+02  0.58630401261E+02  0.88041231016E+02  0.00000000000E+00 0.  1.
         11    1    3    3    0    0 -0.21070591390E+02 -0.22953965209E+02 -0.96668715506E+01  0.32623653166E+02  0.00000000000E+00 0. -1.
         -2    1    1    2    0  502  0.33941149623E+02  0.74161876982E+02  0.12360282264E+03  0.14808660777E+03  0.00000000000E+00 0.  1.
<scales pt_clust_5="13000.00000" pt_clust_6="13000.00000" pt_clust_7="13000.00000" pt_clust_8="13000.00000" pt_clust_9="81.55971"></scales>
<clustering>
<clus scale="   79.388">  5  6 -1 -1</clus>
<clus scale="   81.560">  1  9  2 -1</clus>
<clus scale="   90.683">  7  8 -1 -1</clus>
<clus scale="  108.816">  1  5  2 -1</clus>
<clus scale="   81.560">  1  5  2 -1</clus>
</clustering>
</event>
<event>
 9    2  0.3764910E-005  0.1649075E+03  0.7546771E-02  0.1198572E+00
         -1   -1    0    0    0  501 -0.00000000000E+00  0.00000000000E+00  0.20332440485E+03  0.20332440485E+03  0.00000000000E+00 0.  1.
         21   -1    0    0  501  502  0.00000000000E+00 -0.00000000000E+00 -0.23783442132E+03  0.23783442132E+03  0.00000000000E+00 0.  1.
         24    2    1    2    0    0  0.24397517611E+02 -0.81189645062E+02 -0.16755567472E+02  0.11883534499E+03  0.81572623143E+02 0.  0.
         23    2    1    2    0    0  0.98232045122E+02 -0.28275264516E+02  0.50689100555E+02  0.14426423385E+03  0.88282268788E+02 0.  0.
        -13    1    3    3    0    0  0.40677262642E+02 -0.48321560362E+02 -0.40600726026E+02  0.75086828710E+02  0.00000000000E+00 0.  1.
         14    1    3    3    0    0 -0.16279745031E+02 -0.32868084700E+02  0.23845158554E+02  0.43748516279E+02  0.00000000000E+00 0. -1.
        -11    1    4    4    0    0  0.41869418271E+02 -0.54954862521E+02  0.10005701002E+02  0.69808302899E+02  0.00000000000E+00 0. -1.
         11    1    4    4    0    0  0.56362626851E+02  0.26679598005E+02  0.40683399553E+02  0.74455930956E+02  0.00000000000E+00 0.  1.
         -2    1    1    2    0  502 -0.12262956273E+03  0.10946490958E+03 -0.68443549552E+02  0.17805924733E+03  0.00000000000E+00 0.  1.
<scales pt_clust_5="13000.00000" pt_clust_6="13000.00000" pt_clust_7="13000.00000" pt_clust_8="13000.00000" pt_clust_9="139.28644"></scales>
<clustering>
<clus scale="   81.573">  5  6 -1 -1</clus>
<clus scale="   88.282">  7  8 -1 -1</clus>
<clus scale="  117.648">  1  5  2 -1</clus>
<clus scale="  139.286">  2  9  1 -1</clus>
<clus scale="  139.286">  2  5  1 -1</clus>
</clustering>
</event>
<event>
 9    2  0.3764910E-005  0.1162316E+03  0.7546771E-02  0.1252961E+00
         21   -1    0    0  501  502  0.00000000000E+00  0.00000000000E+00  0.11578054075E+03  0.11578054075E+03  0.00000000000E+00 0.  1.
         -3   -1    0    0    0  501 -0.00000000000E+00 -0.00000000000E+00 -0.24624989003E+03  0.24624989003E+03  0.00000000000E+00 0.  1.
         23    2    1    2    0    0 -0.95459472929E+02 -0.24281625844E+01 -0.14983189694E+03  0.19952005973E+03  0.90775822501E+02 0.  0.
         24    2    1    2    0    0  0.20325904423E+02  0.18501456478E+01  0.26256184447E+02  0.87058999635E+02  0.80456924912E+02 0.  0.
        -11    1    4    4    0    0 -0.14085228251E+02  0.33247569294E+02  0.77207039595E+01  0.36924298077E+02  0.00000000000E+00 0.  1.
         12    1    4    4    0    0  0.34411132674E+02 -0.31397423646E+02  0.18535480487E+02  0.50134701559E+02  0.00000000000E+00 0. -1.
        -11    1    3    3    0    0 -0.69829591067E+02  0.23320094359E+02 -0.14532839776E+03  0.16291206764E+03  0.00000000000E+00 0.  1.
         11    1    3    3    0    0 -0.25629881862E+02 -0.25748256944E+02 -0.45034991794E+01  0.36607992088E+02  0.00000000000E+00 0. -1.
         -4    1    1    2    0  502  0.75133568506E+02  0.57801693660E+00 -0.68936367858E+01  0.75451371413E+02  0.00000000000E+00 0.  1.
<scales pt_clust_5="13000.00000" pt_clust_6="13000.00000" pt_clust_7="13000.00000" pt_clust_8="13000.00000" pt_clust_9="75.13579"></scales>
<clustering>
<clus scale="   75.136">  1  9  2 -1</clus>
<clus scale="   80.457">  5  6 -1 -1</clus>
<clus scale="   90.776">  7  8 -1 -1</clus>
<clus scale="  108.364">  1  5  2 -1</clus>
<clus scale="   75.136">  1  5  2 -1</clus>
</clustering>
</event>
<event>
 9    2  0.3764910E-005  0.1299673E+03  0.7546771E-02  0.1230615E+00
          2   -1    0    0  502    0 -0.00000000000E+00  0.00000000000E+00  0.12969238009E+03  0.12969238009E+03  0.00000000000E+00 0. -1.
         21   -1    0    0  501  502  0.00000000000E+00 -0.00000000000E+00 -0.31677026478E+03  0.31677026478E+03  0.00000000000E+00 0. -1.
         23    2    1    2    0    0 -0.60213792874E+02  0.53327121144E+02  0.69509542033E+01  0.12244523765E+03  0.92059968267E+02 0.  0.
         24    2    1    2    0    0  0.10808633738E+03 -0.31080984602E+02 -0.16882190845E+02  0.13917259116E+03  0.80220432748E+02 0.  0.
        -13    1    4    4    0    0  0.20253079614E+02 -0.38262380328E+02 -0.26123263541E+02  0.50563048566E+02  0.00000000000E+00 0.  1.
         14    1    4    4    0    0  0.87833257761E+02  0.71813957261E+01  0.92410726957E+01  0.88609542590E+02  0.00000000000E+00 0. -1.
        -11    1    3    3    0    0 -0.47666448455E+02  0.23225566200E+02 -0.39195790949E+02  0.65938056248E+02  0.00000000000E+00 0.  1.
         11    1    3    3    0    0 -0.12547344419E+02  0.30101554944E+02  0.46146745152E+02  0.56507181403E+02  0.00000000000E+00 0. -1.
          1    1    1    2  501    0 -0.47872544501E+02 -0.22246136542E+02 -0.17714664805E+03  0.18484481606E+03  0.00000000000E+00 0. -1.
<scales pt_clust_5="13000.00000" pt_clust_6="13000.00000" pt_clust_7="13000.00000" pt_clust_8="13000.00000" pt_clust_9="52.78893"></scales>
<clustering>
<clus scale="   52.789">  2  9  1 -1</clus>
<clus scale="   80.220">  5  6 -1 -1</clus>
<clus scale="   92.060">  7  8 -1 -1</clus>
<clus scale="  121.868">  2  5  1 -1</clus>
<clus scale="   52.789">  2  5  1 -1</clus>
</clustering>
</event>
<event>
 9    2  0.3764910E-005  0.1006393E+03  0.7546771E-02  0.1286980E+00
          4   -1    0    0  502    0 -0.00000000000E+00  0.00000000000E+00  0.32107393608E+02  0.32107393608E+02  0.00000000000E+00 0. -1.
         21   -1    0    0  501  502  0.00000000000E+00 -0.00000000000E+00 -0.43089151955E+03  0.43089151955E+03  0.00000000000E+00 0. -1.
         24    2    1    2    0    0  0.38690594078E+02 -0.20319263742E+02 -0.12379093394E+03  0.15437960318E+03  0.81234426216E+02 0.  0.
         23    2    1    2    0    0 -0.16317927079E+02 -0.10350451754E+02 -0.16174400607E+03  0.18917666352E+03  0.96193970331E+02 0.  0.
        -11    1    3    3    0    0 -0.19114493203E+02  0.15027053463E+02 -0.28620480652E+02  0.37554069006E+02  0.00000000000E+00 0.  1.
         12    1    3    3    0    0  0.57805087281E+02 -0.35346317205E+02 -0.95170453286E+02  0.11682553417E+03  0.00000000000E+00 0. -1.
        -13    1    4    4    0    0  0.25756974965E+02  0.16338139674E+02 -0.14581130632E+02  0.33807779250E+02  0.00000000000E+00 0.  1.
         13    1    4    4    0    0 -0.42074902044E+02 -0.26688591427E+02 -0.14716287543E+03  0.15536888427E+03  0.00000000000E+00 0. -1.
          3    1    1    2  501    0 -0.22372666998E+02  0.30669715496E+02 -0.11324918593E+03  0.11944264645E+03  0.00000000000E+00 0. -1.
<scales pt_clust_5="13000.00000" pt_clust_6="13000.00000" pt_clust_7="13000.00000" pt_clust_8="13000.00000" pt_clust_9="37.96271"></scales>
<clustering>
<clus scale="   37.963">  2  9  1 -1</clus>
<clus scale="   81.234">  5  6 -1 -1</clus>
<clus scale="   86.452">  1  5  2 -1</clus>
<clus scale="   96.194">  7  8 -1 -1</clus>
<clus scale="   37.963">  2  5  1 -1</clus>
</clustering>
</event>
<event>
 9    2  0.3764910E-005  0.1227980E+03  0.7546771E-02  0.1246536E+00
         21   -1    0    0  501  502  0.00000000000E+00  0.00000000000E+00  0.66479144105E+02  0.66479144105E+02  0.00000000000E+00 0.  1.
         -3   -1    0    0    0  501 -0.00000000000E+00 -0.00000000000E+00 -0.28865064358E+03  0.28865064358E+03  0.00000000000E+00 0.  1.
         23    2    1    2    0    0  0.41022885018E+02 -0.60055229604E+02 -0.18392266081E+03  0.22158070830E+03  0.99904741804E+02 0.  0.
         24    2    1    2    0    0 -0.55420995965E+02  0.44320553799E+02 -0.41164427994E+02  0.11202267042E+03  0.76280864399E+02 0.  0.
        -11    1    4    4    0    0 -0.31729999219E+02 -0.13818194430E+02 -0.34537483207E+02  0.48893487236E+02  0.00000000000E+00 0.  1.
         12    1    4    4    0    0 -0.23690996746E+02  0.58138748230E+02 -0.66269447869E+01  0.63129183186E+02  0.00000000000E+00 0. -1.
        -13    1    3    3    0    0  0.28061875211E+02 -0.85987785662E+02 -0.16081558449E+03  0.18450750753E+03  0.00000000000E+00 0.  1.
         13    1    3    3    0    0  0.12961009807E+02  0.25932556058E+02 -0.23107076320E+02  0.37073200765E+02  0.00000000000E+00 0. -1.
         -4    1    1    2    0  502  0.14398110947E+02  0.15734675805E+02  0.29155893303E+01  0.21526408959E+02  0.00000000000E+00 0.  1.
<scales pt_clust_5="13000.00000" pt_clust_6="13000.00000" pt_clust_7="13000.00000" pt_clust_8="13000.00000" pt_clust_9="21.32805"></scales>
<clustering>
<clus scale="   21.328">  1  9  2 -1</clus>
<clus scale="   76.281">  5  6 -1 -1</clus>
<clus scale="   99.905">  7  8 -1 -1</clus>
<clus scale="  104.485">  1  5  2 -1</clus>
<clus scale="   21.328">  1  5  2 -1</clus>
</clustering>
</event>
<event>
 9    2  0.3764910E-005  0.1538577E+03  0.7546771E-02  0.1197641E+00
          4   -1    0    0  502    0 -0.00000000000E+00  0.00000000000E+00  0.25712958012E+03  0.25712958012E+03  0.00000000000E+00 0. -1.
         21   -1    0    0  501  502  0.00000000000E+00 -0.00000000000E+00 -0.18479782172E+03  0.18479782172E+03  0.00000000000E+00 0. -1.
         23    2    1    2    0    0  0.42854990589E+02  0.10782426004E+03 -0.14485871170E+02  0.14823664765E+03  0.91113346838E+02 0.  0.
         24    2    1    2    0    0 -0.34464465863E+01 -0.13789685296E+03 -0.33822328777E+02  0.16326302042E+03  0.80519835195E+02 0.  0.
        -11    1    4    4    0    0 -0.40832542904E+02 -0.53167681251E+02 -0.16630784818E+02  0.69070123015E+02  0.00000000000E+00 0.  1.
         12    1    4    4    0    0  0.37386096318E+02 -0.84729171714E+02 -0.17191543959E+02  0.94192897401E+02  0.00000000000E+00 0. -1.
        -13    1    3    3    0    0  0.10429852167E+02  0.11074039357E+03 -0.25037197878E+02  0.11401349859E+03  0.00000000000E+00 0. -1.
         13    1    3    3    0    0  0.32425138422E+02 -0.29161335240E+01  0.10551326708E+02  0.34223149062E+02  0.00000000000E+00 0.  1.
          3    1    1    2  501    0 -0.39408544003E+02  0.30072592922E+02  0.12063995835E+03  0.13042773377E+03  0.00000000000E+00 0. -1.
<scales pt_clust_5="13000.00000" pt_clust_6="13000.00000" pt_clust_7="13000.00000" pt_clust_8="13000.00000" pt_clust_9="49.57214"></scales>
<clustering>
<clus scale="   49.572">  2  9  1 -1</clus>
<clus scale="   80.520">  5  6 -1 -1</clus>
<clus scale="   91.113">  7  8 -1 -1</clus>
<clus scale="  147.831">  2  5  1 -1</clus>
<clus scale="   49.572">  2  5  1 -1</clus>
</clustering>
</event>
<event>
 9    2  0.3764910E-005  0.2416055E+03  0.7546771E-02  0.1148607E+00
         21   -1    0    0  501  502  0.00000000000E+00  0.00000000000E+00  0.29371031810E+03  0.29371031810E+03  0.00000000000E+00 0. -1.
          2   -1    0    0  502    0 -0.00000000000E+00 -0.00000000000E+00 -0.51481439810E+03  0.51481439810E+03  0.00000000000E+00 0. -1.
         24    2    1    2    0    0  0.75329321930E+02 -0.39157379215E+02  0.48193915864E+02  0.12611045731E+03  0.79833494396E+02 0.  0.
         23    2    1    2    0    0  0.58102937727E+02 -0.14043997973E+03 -0.38584862300E+03  0.43013776782E+03  0.11419282007E+03 0.  0.
        -11    1    3    3    0    0  0.12049174766E+02 -0.47812204181E+02  0.62541159533E+01  0.49702147313E+02  0.00000000000E+00 0.  1.
         12    1    3    3    0    0  0.63280147164E+02  0.86548249653E+01  0.41939799911E+02  0.76408309998E+02  0.00000000000E+00 0. -1.
        -13    1    4    4    0    0  0.84379917039E+02 -0.92865965419E+02 -0.32590067888E+03  0.34922100513E+03  0.00000000000E+00 0. -1.
         13    1    4    4    0    0 -0.26276979312E+02 -0.47574014310E+02 -0.59947944125E+02  0.80916762690E+02  0.00000000000E+00 0.  1.
          1    1    1    2  501    0 -0.13343225966E+03  0.17959735895E+03  0.11655062714E+03  0.25227649107E+03  0.00000000000E+00 0. -1.
<scales pt_clust_5="13000.00000" pt_clust_6="13000.00000" pt_clust_7="13000.00000" pt_clust_8="13000.00000" pt_clust_9="212.91599"></scales>
<clustering>
<clus scale="   79.833">  5  6 -1 -1</clus>
<clus scale="  114.193">  7  8 -1 -1</clus>
<clus scale="  116.538">  2  5  1 -1</clus>
<clus scale="  212.916">  1  9  2 -1</clus>
<clus scale="  212.916">  1  5  2 -1</clus>
</clustering>
</event>
<event>
 9    2  0.3764910E-005  0.1097479E+03  0.7546771E-02  0.1267826E+00
         21   -1    0    0  501  502  0.00000000000E+00  0.00000000000E+00  0.17844659118E+03  0.17844659118E+03  0.00000000000E+00 0. -1.
          2   -1    0    0  502    0 -0.00000000000E+00 -0.00000000000E+00 -0.30612649412E+03  0.30612649412E+03  0.00000000000E+00 0. -1.
         23    2    1    2    0    0  0.19961462580E+02 -0.93930282234E+01 -0.66327722326E+02  0.11120810122E+03  0.86493849845E+02 0.  0.
         24    2    1    2    0    0 -0.10040327001E+03  0.41287110561E+02 -0.18335417859E+03  0.22379023894E+03  0.68394986010E+02 0.  0.
        -13    1    4    4    0    0 -0.42658061874E+02  0.46658638166E+02 -0.13186724804E+03  0.14623853755E+03  0.00000000000E+00 0.  1.
         14    1    4    4    0    0 -0.57745208137E+02 -0.53715276050E+01 -0.51486930553E+02  0.77551701396E+02  0.00000000000E+00 0. -1.
        -11    1    3    3    0    0  0.46172477460E+02  0.11109551854E+02 -0.14568683524E+02  0.49674604747E+02  0.00000000000E+00 0. -1.
         11    1    3    3    0    0 -0.26211014880E+02 -0.20502580078E+02 -0.51759038802E+02  0.61533496476E+02  0.00000000000E+00 0.  1.
          1    1    1    2  501    0  0.80441807431E+02 -0.31894082338E+02  0.12200199798E+03  0.14957474514E+03  0.00000000000E+00 0. -1.
<scales pt_clust_5="13000.00000" pt_clust_6="13000.00000" pt_clust_7="13000.00000" pt_clust_8="13000.00000" pt_clust_9="86.53391"></scales>
<clustering>
<clus scale="   68.395">  5  6 -1 -1</clus>
<clus scale="   86.494">  7  8 -1 -1</clus>
<clus scale="   86.534">  1  9  2 -1</clus>
<clus scale="   96.132">  1  5  2 -1</clus>
<clus scale="   86.534">  1  5  2 -1</clus>
</clustering>
</event>
<event>
 9    2  0.3764910E-005  0.9483923E+02  0.7546771E-02  0.1298899E+00
         21   -1    0    0  501  502  0.00000000000E+00  0.00000000000E+00  0.18979192829E+02  0.18979192829E+02  0.00000000000E+00 0. -1.
          2   -1    0    0  502    0 -0.00000000000E+00 -0.00000000000E+00 -0.64910171271E+03  0.64910171271E+03  0.00000000000E+00 0. -1.
         24    2    1    2    0    0 -0.89052594777E+01 -0.19755401749E+02 -0.32975050218E+03  0.33985554589E+03  0.79352497388E+02 0.  0.
         23    2    1    2    0    0 -0.22029012996E+02  0.30389660035E+02 -0.23547659315E+03  0.25555189275E+03  0.91917001245E+02 0.  0.
        -13    1    3    3    0    0 -0.14085094630E+02 -0.46787924523E+02 -0.14369955309E+03  0.15177964728E+03  0.00000000000E+00 0.  1.
         14    1    3    3    0    0  0.51798351521E+01  0.27032522774E+02 -0.18605094909E+03  0.18807589861E+03  0.00000000000E+00 0. -1.
        -13    1    4    4    0    0  0.20860177505E+02 -0.22694169291E+02 -0.65668927485E+02  0.72543644535E+02  0.00000000000E+00 0.  1.
         13    1    4    4    0    0 -0.42889190500E+02  0.53083829325E+02 -0.16980766566E+03  0.18300824822E+03  0.00000000000E+00 0. -1.
          1    1    1    2  501    0  0.30934272473E+02 -0.10634258286E+02 -0.64895424561E+02  0.72673466903E+02  0.00000000000E+00 0. -1.
<scales pt_clust_5="13000.00000" pt_clust_6="13000.00000" pt_clust_7="13000.00000" pt_clust_8="13000.00000" pt_clust_9="32.71111"></scales>
<clustering>
<clus scale="   32.711">  1  9  2 -1</clus>
<clus scale="   79.352">  5  6 -1 -1</clus>
<clus scale="   82.720">  2  5  1 -1</clus>
<clus scale="   91.917">  7  8 -1 -1</clus>
<clus scale="   32.711">  1  5  2 -1</clus>
</clustering>
</event>
<event>
 9    2  0.3764910E-005  0.2504882E+03  0.7546771E-02  0.1144015E+00
         21   -1    0    0  501  502  0.00000000000E+00  0.00000000000E+00  0.22583596594E+03  0.22583596594E+03  0.00000000000E+00 0.  1.
         -1   -1    0    0    0  501 -0.00000000000E+00 -0.00000000000E+00 -0.45999163493E+03  0.45999163493E+03  0.00000000000E+00 0.  1.
         23    2    1    2    0    0  0.60445328664E+01 -0.66774702213E+02 -0.10698960657E+03  0.15830423157E+03  0.95488515465E+02 0.  0.
         24    2    1    2    0    0  0.16371393613E+03 -0.14453397063E+03 -0.11980616263E+02  0.23301194334E+03  0.80366093755E+02 0.  0.
        -13    1    4    4    0    0  0.72364348276E+02 -0.41538495987E+02 -0.39982554310E+02  0.92523781804E+02  0.00000000000E+00 0.  1.
         14    1    4    4    0    0  0.91349587850E+02 -0.10299547464E+03  0.28001938047E+02  0.14048816154E+03  0.00000000000E+00 0. -1.
        -13    1    3    3    0    0 -0.12229013816E+02 -0.23743898530E+02  0.12872064547E+02  0.29648128812E+02  0.00000000000E+00 0.  1.
         13    1    3    3    0    0  0.18273546682E+02 -0.43030803683E+02 -0.11986167112E+03  0.12865610276E+03  0.00000000000E+00 0. -1.
         -2    1    1    2    0  502 -0.16975846899E+03  0.21130867284E+03 -0.11518544616E+03  0.29451142596E+03  0.00000000000E+00 0.  1.
<scales pt_clust_5="13000.00000" pt_clust_6="13000.00000" pt_clust_7="13000.00000" pt_clust_8="13000.00000" pt_clust_9="237.24609"></scales>
<clustering>
<clus scale="   80.366">  5  6 -1 -1</clus>
<clus scale="   95.489">  7  8 -1 -1</clus>
<clus scale="  116.677">  2  7  1 -1</clus>
<clus scale="  237.246">  1  9  2 -1</clus>
<clus scale="  237.246">  1  5  2 -1</clus>
</clustering>
</event>
<event>
 9    2  0.3764910E-005  0.9964060E+02  0.7546771E-02  0.1287407E+00
         21   -1    0    0  501  502  0.00000000000E+00  0.00000000000E+00  0.15609427815E+03  0.15609427815E+03  0.00000000000E+00 0.  1.
         -1   -1    0    0    0  501 -0.00000000000E+00 -0.00000000000E+00 -0.27226152767E+03  0.27226152767E+03  0.00000000000E+00 0.  1.
         23    2    1    2    0    0 -0.15831001399E+02 -0.37456072498E+02 -0.22773219709E+03  0.24900442475E+03  0.92128562235E+02 0.  0.
         24    2    1    2    0    0  0.56596732559E+01  0.27548356107E+01  0.11803384472E+03  0.14261613386E+03  0.79798196190E+02 0.  0.
        -11    1    4    4    0    0 -0.17507633473E+02 -0.31263852967E+02  0.35768912463E+02  0.50629643796E+02  0.00000000000E+00 0.  1.
         12    1    4    4    0    0  0.23167306729E+02  0.34018688578E+02  0.82264932262E+02  0.91986490061E+02  0.00000000000E+00 0. -1.
        -11    1    3    3    0    0  0.25225208048E+02 -0.51357094949E+02 -0.12302022136E+03  0.13567548484E+03  0.00000000000E+00 0. -1.
         11    1    3    3    0    0 -0.41056209448E+02  0.13901022451E+02 -0.10471197573E+03  0.11332893991E+03  0.00000000000E+00 0.  1.
         -2    1    1    2    0  502  0.10171328144E+02  0.34701236888E+02 -0.64688971632E+01  0.36735247219E+02  0.00000000000E+00 0.  1.
<scales pt_clust_5="13000.00000" pt_clust_6="13000.00000" pt_clust_7="13000.00000" pt_clust_8="13000.00000" pt_clust_9="36.16119"></scales>
<clustering>
<clus scale="   36.161">  1  9  2 -1</clus>
<clus scale="   79.798">  5  6 -1 -1</clus>
<clus scale="   88.365">  1  5  2 -1</clus>
<clus scale="   92.129">  7  8 -1 -1</clus>
<clus scale="   36.161">  1  5  2 -1</clus>
</clustering>
</event>
<event>
 9    2  0.3764910E-005  0.9904302E+02  0.7546771E-02  0.1288700E+00
         21   -1    0    0  501  502  0.00000000000E+00  0.00000000000E+00  0.10760759761E+03  0.10760759761E+03  0.00000000000E+00 0.  1.
          2   -1    0    0  502    0 -0.00000000000E+00 -0.00000000000E+00 -0.15355617442E+03  0.15355617442E+03  0.00000000000E+00 0. -1.
         24    2    1    2    0    0  0.18255230063E+02 -0.45032143904E+02 -0.20718785759E+02  0.94561297508E+02  0.78431011047E+02 0.  0.
         23    2    1    2    0    0  0.40089927223E+02  0.30820980731E+02 -0.87048383438E+01  0.10431934198E+03  0.90827395550E+02 0.  0.
        -13    1    3    3    0    0  0.21391827550E+02 -0.28614990778E+02  0.26493041747E+02  0.44478188409E+02  0.00000000000E+00 0.  1.
         14    1    3    3    0    0 -0.31365974868E+01 -0.16417153127E+02 -0.47211827506E+02  0.50083109099E+02  0.00000000000E+00 0. -1.
        -11    1    4    4    0    0  0.94589725329E+01 -0.32374244222E+02 -0.27061849683E+01  0.33836183109E+02  0.00000000000E+00 0.  1.
         11    1    4    4    0    0  0.30630954690E+02  0.63195224952E+02 -0.59986533755E+01  0.70483158870E+02  0.00000000000E+00 0. -1.
          1    1    1    2  501    0 -0.58345157286E+02  0.14211163173E+02 -0.16524952704E+02  0.62283132543E+02  0.00000000000E+00 0. -1.
<scales pt_clust_5="13000.00000" pt_clust_6="13000.00000" pt_clust_7="13000.00000" pt_clust_8="13000.00000" pt_clust_9="60.05096"></scales>
<clustering>
<clus scale="   60.051">  1  9  2 -1</clus>
<clus scale="   78.431">  5  6 -1 -1</clus>
<clus scale="   87.814">  2  5  1 -1</clus>
<clus scale="   90.827">  7  8 -1 -1</clus>
<clus scale="   60.051">  1  5  2 -1</clus>
</clustering>
</event>
<event>
 9    2  0.3764910E-005  0.1055914E+03  0.7546771E-02  0.1281662E+00
         21   -1    0    0  501  502  0.00000000000E+00  0.00000000000E+00  0.19494897441E+03  0.19494897441E+03  0.00000000000E+00 0.  1.
         -1   -1    0    0    0  501 -0.00000000000E+00 -0.00000000000E+00 -0.42139966247E+03  0.42139966247E+03  0.00000000000E+00 0.  1.
         23    2    1    2    0    0  0.48543452261E+02  0.13577572700E+02 -0.37292103945E+03  0.38717206152E+03  0.91056500717E+02 0.  0.
         24    2    1    2    0    0 -0.81155567113E+02 -0.44389849878E+02  0.49775508324E+02  0.12257995657E+03  0.63178791370E+02 0.  0.
        -13    1    4    4    0    0 -0.68770001177E+02 -0.58909982876E+02  0.30747719412E+02  0.95630128064E+02  0.00000000000E+00 0.  1.
         14    1    4    4    0    0 -0.12385565936E+02  0.14520132998E+02  0.19027788912E+02  0.26949828510E+02  0.00000000000E+00 0. -1.
        -13    1    3    3    0    0  0.17284822103E+02  0.45152773537E+02 -0.10505802655E+03  0.11564915467E+03  0.00000000000E+00 0. -1.
         13    1    3    3    0    0  0.31258630157E+02 -0.31575200837E+02 -0.26786301290E+03  0.27152290685E+03  0.00000000000E+00 0.  1.
         -2    1    1    2    0  502  0.32612114853E+02  0.30812277178E+02  0.96694843063E+02  0.10659661878E+03  0.00000000000E+00 0.  1.
<scales pt_clust_5="13000.00000" pt_clust_6="13000.00000" pt_clust_7="13000.00000" pt_clust_8="13000.00000" pt_clust_9="44.86587"></scales>
<clustering>
<clus scale="   44.866">  1  9  2 -1</clus>
<clus scale="   63.179">  5  6 -1 -1</clus>
<clus scale="   82.764">  1  5  2 -1</clus>
<clus scale="   91.057">  7  8 -1 -1</clus>
<clus scale="   44.866">  1  5  2 -1</clus>
</clustering>
</event>
<event>
 9    2  0.3764910E-005  0.1411529E+03  0.7546771E-02  0.1220927E+00
         21   -1    0    0  501  502  0.00000000000E+00  0.00000000000E+00  0.28770023940E+03  0.28770023940E+03  0.00000000000E+00 0.  1.
         -3   -1    0    0    0  501 -0.00000000000E+00 -0.00000000000E+00 -0.15328525901E+03  0.15328525901E+03  0.00000000000E+00 0.  1.
         24    2    1    2    0    0 -0.19819213186E+01  0.84927998094E+02 -0.32314508209E+01  0.11640950072E+03  0.79523812230E+02 0.  0.
         23    2    1    2    0    0  0.10600508462E+03 -0.13244954476E+02  0.13876744817E+03  0.19824099096E+03  0.92900909807E+02 0.  0.
        -11    1    3    3    0    0  0.29395869019E+02  0.26503171547E+02 -0.24758690496E+02  0.46685414988E+02  0.00000000000E+00 0.  1.
         12    1    3    3    0    0 -0.31377790338E+02  0.58424826547E+02  0.21527239675E+02  0.69724085735E+02  0.00000000000E+00 0. -1.
        -11    1    4    4    0    0  0.30720411820E+02  0.22457286704E+02  0.20178369687E+01  0.38107021591E+02  0.00000000000E+00 0. -1.
         11    1    4    4    0    0  0.75284672795E+02 -0.35702241180E+02  0.13674961120E+03  0.16013396937E+03  0.00000000000E+00 0.  1.
         -4    1    1    2    0  502 -0.10402316330E+03 -0.71683043619E+02 -0.11210169617E+01  0.12633500672E+03  0.00000000000E+00 0.  1.
<scales pt_clust_5="13000.00000" pt_clust_6="13000.00000" pt_clust_7="13000.00000" pt_clust_8="13000.00000" pt_clust_9="106.27122"></scales>
<clustering>
<clus scale="   79.524">  5  6 -1 -1</clus>
<clus scale="   92.901">  7  8 -1 -1</clus>
<clus scale="  116.365">  2  5  1 -1</clus>
<clus scale="  106.271">  1  9  2 -1</clus>
<clus scale="  106.271">  1  5  2 -1</clus>
</clustering>
</event>
<event>
 9    2  0.3764910E-005  0.2652577E+03  0.7546771E-02  0.1133941E+00
         21   -1    0    0  501  502  0.00000000000E+00  0.00000000000E+00  0.85376383250E+03  0.85376383250E+03  0.00000000000E+00 0. -1.
          2   -1    0    0  502    0 -0.00000000000E+00 -0.00000000000E+00 -0.14136506761E+03  0.14136506761E+03  0.00000000000E+00 0. -1.
         23    2    1    2    0    0 -0.39800305509E+02 -0.75729957190E+02  0.23302052108E+02  0.12748395761E+03  0.91597396700E+02 0.  0.
         24    2    1    2    0    0 -0.19701021068E+03  0.16710123312E+03  0.39954443500E+03  0.48258851520E+03  0.80746976677E+02 0.  0.
        -13    1    4    4    0    0 -0.28031657628E+02  0.19045020448E+01  0.16700484803E+02  0.32684968258E+02  0.00000000000E+00 0.  1.
         14    1    4    4    0    0 -0.16897855305E+03  0.16519673107E+03  0.38284395019E+03  0.44990354694E+03  0.00000000000E+00 0. -1.
        -11    1    3    3    0    0  0.22420564375E+02 -0.24516596125E+02  0.32374408402E+02  0.46388010432E+02  0.00000000000E+00 0.  1.
         11    1    3    3    0    0 -0.62220869884E+02 -0.51213361065E+02 -0.90723562940E+01  0.81095947183E+02  0.00000000000E+00 0. -1.
          1    1    1    2  501    0  0.23681051619E+03 -0.91371275927E+02  0.28955227778E+03  0.38505642731E+03  0.00000000000E+00 0. -1.
<scales pt_clust_5="13000.00000" pt_clust_6="13000.00000" pt_clust_7="13000.00000" pt_clust_8="13000.00000" pt_clust_9="252.66899"></scales>
<clustering>
<clus scale="   80.747">  5  6 -1 -1</clus>
<clus scale="   91.597">  7  8 -1 -1</clus>
<clus scale="  125.336">  2  7  1 -1</clus>
<clus scale="  252.669">  1  9  2 -1</clus>
<clus scale="  252.669">  1  5  2 -1</clus>
</clustering>
</event>
<event>
 9    2  0.3764910E-005  0.1735168E+03  0.7546771E-02  0.1175726E+00
         21   -1    0    0  501  502  0.00000000000E+00  0.00000000000E+00  0.55415374480E+02  0.55415374480E+02  0.00000000000E+00 0.  1.
          2   -1    0    0  502    0 -0.00000000000E+00 -0.00000000000E+00 -0.83035605976E+03  0.83035605976E+03  0.00000000000E+00 0. -1.
         24    2    1    2    0    0  0.13398431537E+03  0.81439255761E+02 -0.55915943896E+03  0.58627239456E+03  0.80448078321E+02 0.  0.
         23    2    1    2    0    0 -0.10515920989E+03 -0.74978554747E+02 -0.21837563383E+03  0.26984506508E+03  0.91914082715E+02 0.  0.
        -13    1    3    3    0    0  0.32736324153E+01  0.34622573369E+02 -0.76376001366E+02  0.83920991656E+02  0.00000000000E+00 0.  1.
         14    1    3    3    0    0  0.13071068295E+03  0.46816682392E+02 -0.48278343759E+03  0.50235140290E+03  0.00000000000E+00 0. -1.
        -11    1    4    4    0    0 -0.86192254432E+02 -0.91390920539E+02 -0.20737242259E+03  0.24245561806E+03  0.00000000000E+00 0. -1.
         11    1    4    4    0    0 -0.18966955457E+02  0.16412365792E+02 -0.11003211241E+02  0.27389447015E+02  0.00000000000E+00 0.  1.
          1    1    1    2  501    0 -0.28825105478E+02 -0.64607010143E+01  0.25943875006E+01  0.29653974606E+02  0.00000000000E+00 0. -1.
<scales pt_clust_5="13000.00000" pt_clust_6="13000.00000" pt_clust_7="13000.00000" pt_clust_8="13000.00000" pt_clust_9="29.54027"></scales>
<clustering>
<clus scale="   29.540">  1  9  2 -1</clus>
<clus scale="   80.448">  5  6 -1 -1</clus>
<clus scale="   91.914">  7  8 -1 -1</clus>
<clus scale="  167.725">  2  5  1 -1</clus>
<clus scale="   29.540">  1  5  2 -1</clus>
</clustering>
</event>
<event>
 9    2  0.3764910E-005  0.2883782E+03  0.7546771E-02  0.1134708E+00
         21   -1    0    0  501  502  0.00000000000E+00  0.00000000000E+00  0.82132286953E+03  0.82132286953E+03  0.00000000000E+00 0. -1.
          2   -1    0    0  502    0 -0.00000000000E+00 -0.00000000000E+00 -0.59649756985E+03  0.59649756985E+03  0.00000000000E+00 0. -1.
         23    2    1    2    0    0 -0.15461211074E+02 -0.32780232039E+02 -0.72480704293E+00  0.95737572362E+02  0.88609055723E+02 0.  0.
         24    2    1    2    0    0  0.27734177399E+03  0.11526513188E+03 -0.47576374805E+03  0.56893858415E+03  0.84471642242E+02 0.  0.
        -11    1    4    4    0    0  0.13367486962E+03  0.12977525332E+02 -0.17995326017E+03  0.22454523548E+03  0.00000000000E+00 0.  1.
         12    1    4    4    0    0  0.14366690438E+03  0.10228760655E+03 -0.29581048787E+03  0.34439334866E+03  0.00000000000E+00 0. -1.
        -11    1    3    3    0    0 -0.25135782465E+01  0.30371813358E+02  0.55149636897E+01  0.30970630390E+02  0.00000000000E+00 0. -1.
         11    1    3    3    0    0 -0.12947632828E+02 -0.63152045397E+02 -0.62397707326E+01  0.64766941972E+02  0.00000000000E+00 0.  1.
          1    1    1    2  501    0 -0.26188056292E+03 -0.82484899842E+02  0.70131385477E+03  0.75314428288E+03  0.00000000000E+00 0. -1.
<scales pt_clust_5="13000.00000" pt_clust_6="13000.00000" pt_clust_7="13000.00000" pt_clust_8="13000.00000" pt_clust_9="275.72904"></scales>
<clustering>
<clus scale="   84.472">  5  6 -1 -1</clus>
<clus scale="   88.609">  7  8 -1 -1</clus>
<clus scale="   95.735">  2  7  1 -1</clus>
<clus scale="  275.729">  1  9  2 -1</clus>
<clus scale="  275.729">  1  5  2 -1</clus>
</clustering>
</event>
<event>
 9    2  0.3764910E-005  0.1913134E+03  0.7546771E-02  0.1173691E+00
         21   -1    0    0  501  502  0.00000000000E+00  0.00000000000E+00  0.49369383081E+03  0.49369383081E+03  0.00000000000E+00 0.  1.
         -1   -1    0    0    0  501 -0.00000000000E+00 -0.00000000000E+00 -0.24085856410E+03  0.24085856410E+03  0.00000000000E+00 0.  1.
         23    2    1    2    0    0  0.74372926729E+02 -0.57440095761E+02 -0.13510180364E+03  0.18822116646E+03  0.91345570913E+02 0.  0.
         24    2    1    2    0    0 -0.21905559474E+03  0.57088726959E+02  0.24170147545E+03  0.34061772112E+03  0.79726735643E+02 0.  0.
        -13    1    4    4    0    0 -0.20844823251E+03  0.53344319513E+02  0.18792798791E+03  0.28568025956E+03  0.00000000000E+00 0.  1.
         14    1    4    4    0    0 -0.10607362223E+02  0.37444074455E+01  0.53773487546E+02  0.54937461566E+02  0.00000000000E+00 0. -1.
        -11    1    3    3    0    0  0.54483896656E+02 -0.79679682063E+02 -0.12217578568E+03  0.15570571388E+03  0.00000000000E+00 0.  1.
         11    1    3    3    0    0  0.19889030073E+02  0.22239586302E+02 -0.12926017960E+02  0.32515452579E+02  0.00000000000E+00 0. -1.
         -2    1    1    2    0  502  0.14468266801E+03  0.35136880218E+00  0.14623559490E+03  0.20571350733E+03  0.00000000000E+00 0.  1.
<scales pt_clust_5="13000.00000" pt_clust_6="13000.00000" pt_clust_7="13000.00000" pt_clust_8="13000.00000" pt_clust_9="173.90931"></scales>
<clustering>
<clus scale="   79.727">  5  6 -1 -1</clus>
<clus scale="   91.346">  7  8 -1 -1</clus>
<clus scale="  131.052">  2  7  1 -1</clus>
<clus scale="  173.909">  1  9  2 -1</clus>
<clus scale="  173.909">  1  5  2 -1</clus>
</clustering>
</event>
<event>
 9    2  0.3764910E-005  0.1112146E+03  0.7546771E-02  0.1260111E+00
         21   -1    0    0  501  502  0.00000000000E+00  0.00000000000E+00  0.18961159111E+03  0.18961159111E+03  0.00000000000E+00 0. -1.
         -3   -1    0    0    0  501 -0.00000000000E+00 -0.00000000000E+00 -0.45800233569E+03  0.45800233569E+03  0.00000000000E+00 0.  1.
         23    2    1    2    0    0  0.57742011878E+02  0.30141335755E+02 -0.42781541336E+03  0.44225231624E+03  0.91205500106E+02 0.  0.
         24    2    1    2    0    0 -0.40097195738E+02 -0.10337309765E+02  0.91977873637E+02  0.13288672418E+03  0.86511890195E+02 0.  0.
        -13    1    4    4    0    0 -0.20078170661E+02 -0.46903801348E+02  0.33368177424E+02  0.60963388871E+02  0.00000000000E+00 0.  1.
         14    1    4    4    0    0 -0.20019025077E+02  0.36566491583E+02  0.58609696213E+02  0.71923335309E+02  0.00000000000E+00 0. -1.
        -11    1    3    3    0    0  0.65572442628E+02  0.52428049967E+02 -0.37670482983E+03  0.38594685447E+03  0.00000000000E+00 0.  1.
         11    1    3    3    0    0 -0.78304307501E+01 -0.22286714212E+02 -0.51110583529E+02  0.56305461766E+02  0.00000000000E+00 0. -1.
         -4    1    1    2    0  502 -0.17644816140E+02 -0.19804025990E+02  0.67446795141E+02  0.72474886387E+02  0.00000000000E+00 0.  1.
<scales pt_clust_5="13000.00000" pt_clust_6="13000.00000" pt_clust_7="13000.00000" pt_clust_8="13000.00000" pt_clust_9="26.52431"></scales>
<clustering>
<clus scale="   26.524">  1  9  2 -1</clus>
<clus scale="   86.512">  5  6 -1 -1</clus>
<clus scale="   91.206">  7  8 -1 -1</clus>
<clus scale="  107.399">  1  5  2 -1</clus>
<clus scale="   26.524">  1  5  2 -1</clus>
</clustering>
</event>
<event>
 9    2  0.3764910E-005  0.1047214E+03  0.7546771E-02  0.1277036E+00
         21   -1    0    0  501  502  0.00000000000E+00  0.00000000000E+00  0.14381346892E+03  0.14381346892E+03  0.00000000000E+00 0.  1.
         -1   -1    0    0    0  501 -0.00000000000E+00 -0.00000000000E+00 -0.21131259308E+03  0.21131259308E+03  0.00000000000E+00 0.  1.
         23    2    1    2    0    0 -0.20477960861E+02 -0.46077812228E+02 -0.15398118814E+03  0.18657703234E+03  0.92510923870E+02 0.  0.
         24    2    1    2    0    0  0.41256676320E+02  0.28537607498E+02  0.18133873228E+02  0.94990284590E+02  0.78599035779E+02 0.  0.
        -11    1    4    4    0    0  0.62976133885E+02  0.32780834454E+02  0.11793690202E+02  0.71969908122E+02  0.00000000000E+00 0.  1.
         12    1    4    4    0    0 -0.21719457564E+02 -0.42432269558E+01  0.63401830262E+01  0.23020376467E+02  0.00000000000E+00 0. -1.
        -11    1    3    3    0    0  0.24086738591E+02  0.17805750100E+01 -0.61431623379E+01  0.24921474010E+02  0.00000000000E+00 0.  1.
         11    1    3    3    0    0 -0.44564699452E+02 -0.47858387238E+02 -0.14783802580E+03  0.16165555833E+03  0.00000000000E+00 0. -1.
         -2    1    1    2    0  502 -0.20778715459E+02  0.17540204729E+02  0.68348190748E+02  0.73558745072E+02  0.00000000000E+00 0.  1.
<scales pt_clust_5="13000.00000" pt_clust_6="13000.00000" pt_clust_7="13000.00000" pt_clust_8="13000.00000" pt_clust_9="27.19216"></scales>
<clustering>
<clus scale="   27.192">  1  9  2 -1</clus>
<clus scale="   78.599">  5  6 -1 -1</clus>
<clus scale="   92.511">  7  8 -1 -1</clus>
<clus scale="   92.661">  1  5  2 -1</clus>
<clus scale="   27.192">  1  5  2 -1</clus>
</clustering>
</event>
<event>
 9    2  0.3764910E-005  0.1827620E+03  0.7546771E-02  0.1166612E+00
         21   -1    0    0  501  502  0.00000000000E+00  0.00000000000E+00  0.84128611500E+03  0.84128611500E+03  0.00000000000E+00 0. -1.
         -1   -1    0    0    0  501 -0.00000000000E+00 -0.00000000000E+00 -0.60669108222E+02  0.60669108222E+02  0.00000000000E+00 0.  1.
         24    2    1    2    0    0 -0.15856447486E+03 -0.48697290300E+02  0.37884307748E+03  0.42135494846E+03  0.80646118781E+02 0.  0.
         23    2    1    2    0    0  0.13047099308E+03  0.74149534219E+02  0.40571374111E+03  0.44248751370E+03  0.93116736367E+02 0.  0.
        -11    1    3    3    0    0 -0.13218861982E+03 -0.14962550402E+02  0.33316643795E+03  0.35874445570E+03  0.00000000000E+00 0.  1.
         12    1    3    3    0    0 -0.26375855037E+02 -0.33734739898E+02  0.45676639528E+02  0.62610492759E+02  0.00000000000E+00 0. -1.
        -13    1    4    4    0    0  0.76265143670E+02 -0.25647112617E+01  0.12475207945E+03  0.14623963625E+03  0.00000000000E+00 0.  1.
         13    1    4    4    0    0  0.54205849413E+02  0.76714245480E+02  0.28096166167E+03  0.29624787745E+03  0.00000000000E+00 0. -1.
         -2    1    1    2    0  502  0.28093481773E+02 -0.25452243918E+02 -0.39398118079E+01  0.38112761061E+02  0.00000000000E+00 0.  1.
<scales pt_clust_5="13000.00000" pt_clust_6="13000.00000" pt_clust_7="13000.00000" pt_clust_8="13000.00000" pt_clust_9="37.90860"></scales>
<clustering>
<clus scale="   37.909">  1  9  2 -1</clus>
<clus scale="   80.646">  5  6 -1 -1</clus>
<clus scale="   93.117">  7  8 -1 -1</clus>
<clus scale="  176.734">  2  5  1 -1</clus>
<clus scale="   37.909">  1  5  2 -1</clus>
</clustering>
</event>
<event>
 9    2  0.3764910E-005  0.2902463E+03  0.7546771E-02  0.1132075E+00
          2   -1    0    0  502    0 -0.00000000000E+00  0.00000000000E+00  0.21237286599E+04  0.21237286599E+04  0.00000000000E+00 0. -1.
         21   -1    0    0  501  502  0.00000000000E+00 -0.00000000000E+00 -0.56905487118E+02  0.56905487118E+02  0.00000000000E+00 0. -1.
         23    2    1    2    0    0 -0.11342836627E+02  0.37451139680E+02  0.18623105621E+03  0.21144345164E+03  0.92168753596E+02 0.  0.
         24    2    1    2    0    0  0.26027876141E+03 -0.13897699708E+03  0.11712792469E+04  0.12106385604E+04  0.81798596471E+02 0.  0.
        -11    1    4    4    0    0  0.10588256216E+03 -0.96469094757E+02  0.47195011507E+03  0.49320818559E+03  0.00000000000E+00 0.  1.
         12    1    4    4    0    0  0.15439619925E+03 -0.42507902320E+02  0.69932913179E+03  0.71743037479E+03  0.00000000000E+00 0. -1.
        -13    1    3    3    0    0  0.35940342110E+02  0.20001008520E+02  0.42553483805E+02  0.59182324361E+02  0.00000000000E+00 0. -1.
         13    1    3    3    0    0 -0.47283178737E+02  0.17450131160E+02  0.14367757240E+03  0.15226112728E+03  0.00000000000E+00 0.  1.
          1    1    1    2  501    0 -0.24893592479E+03  0.10152585740E+03  0.70931286967E+03  0.75855213496E+03  0.00000000000E+00 0. -1.
<scales pt_clust_5="13000.00000" pt_clust_6="13000.00000" pt_clust_7="13000.00000" pt_clust_8="13000.00000" pt_clust_9="278.48145"></scales>
<clustering>
<clus scale="   81.799">  5  6 -1 -1</clus>
<clus scale="   92.169">  7  8 -1 -1</clus>
<clus scale="  100.132">  1  7  2 -1</clus>
<clus scale="  278.481">  2  9  1 -1</clus>
<clus scale="  278.481">  2  5  1 -1</clus>
</clustering>
</event>
<event>
 9    2  0.3764910E-005  0.1468274E+03  0.7546771E-02  0.1206221E+00
         21   -1    0    0  501  502  0.00000000000E+00  0.00000000000E+00  0.10743967253E+03  0.10743967253E+03  0.00000000000E+00 0.  1.
          2   -1    0    0  502    0 -0.00000000000E+00 -0.00000000000E+00 -0.30726644345E+03  0.30726644345E+03  0.00000000000E+00 0. -1.
         24    2    1    2    0    0  0.12283919526E+03  0.24583810022E+02 -0.17624052919E+03  0.23061632013E+03  0.80183111528E+02 0.  0.
         23    2    1    2    0    0 -0.90943019664E+02 -0.46803393360E+02 -0.40213845325E+02  0.14181033153E+03  0.89620457027E+02 0.  0.
        -11    1    3    3    0    0  0.92409902463E+02  0.20665446913E+02 -0.64083683379E+02  0.11433883524E+03  0.00000000000E+00 0.  1.
         12    1    3    3    0    0  0.30429292797E+02  0.39183631081E+01 -0.11215684581E+03  0.11627748489E+03  0.00000000000E+00 0. -1.
        -11    1    4    4    0    0 -0.57417865875E+02 -0.22181800529E+02 -0.68051251575E+02  0.91759557743E+02  0.00000000000E+00 0. -1.
         11    1    4    4    0    0 -0.33525153789E+02 -0.24621592831E+02  0.27837406249E+02  0.50050773789E+02  0.00000000000E+00 0.  1.
          1    1    1    2  501    0 -0.31896175595E+02  0.22219583338E+02  0.16627603591E+02  0.42279464312E+02  0.00000000000E+00 0. -1.
<scales pt_clust_5="13000.00000" pt_clust_6="13000.00000" pt_clust_7="13000.00000" pt_clust_8="13000.00000" pt_clust_9="38.87256"></scales>
<clustering>
<clus scale="   38.873">  1  9  2 -1</clus>
<clus scale="   80.183">  5  6 -1 -1</clus>
<clus scale="   89.620">  7  8 -1 -1</clus>
<clus scale="  141.265">  2  5  1 -1</clus>
<clus scale="   38.873">  1  5  2 -1</clus>
</clustering>
</event>
<event>
 9    2  0.3764910E-005  0.1241076E+03  0.7546771E-02  0.1251704E+00
          2   -1    0    0  502    0 -0.00000000000E+00  0.00000000000E+00  0.80058419145E+03  0.80058419145E+03  0.00000000000E+00 0. -1.
         21   -1    0    0  501  502  0.00000000000E+00 -0.00000000000E+00 -0.48585150361E+02  0.48585150361E+02  0.00000000000E+00 0. -1.
         23    2    1    2    0    0  0.17134364161E+02 -0.16235474614E+02  0.44249431230E+03  0.45180922409E+03  0.88165647956E+02 0.  0.
         24    2    1    2    0    0  0.79650077213E+02  0.50939375089E+01  0.26834118200E+03  0.29159717750E+03  0.81558819067E+02 0.  0.
        -13    1    4    4    0    0  0.26144406910E+02  0.36853853097E+02  0.66623845910E+02  0.80501387222E+02  0.00000000000E+00 0.  1.
         14    1    4    4    0    0  0.53505670303E+02 -0.31759915588E+02  0.20171733609E+03  0.21109579028E+03  0.00000000000E+00 0. -1.
        -11    1    3    3    0    0  0.66419654956E+01 -0.52797055408E+02  0.26271877710E+03  0.26805372709E+03  0.00000000000E+00 0.  1.
         11    1    3    3    0    0  0.10492398666E+02  0.36561580794E+02  0.17977553520E+03  0.18375549700E+03  0.00000000000E+00 0. -1.
          1    1    1    2  501    0 -0.96784441375E+02  0.11141537105E+02  0.41163546785E+02  0.10576294023E+03  0.00000000000E+00 0. -1.
<scales pt_clust_5="13000.00000" pt_clust_6="13000.00000" pt_clust_7="13000.00000" pt_clust_8="13000.00000" pt_clust_9="93.54594"></scales>
<clustering>
<clus scale="   81.559">  5  6 -1 -1</clus>
<clus scale="   88.166">  7  8 -1 -1</clus>
<clus scale="   91.271">  1  7  2 -1</clus>
<clus scale="   93.546">  2  9  1 -1</clus>
<clus scale="   93.546">  2  5  1 -1</clus>
</clustering>
</event>
<event>
 9    2  0.3764910E-005  0.2915446E+03  0.7546771E-02  0.1090020E+00
         21   -1    0    0  501  502  0.00000000000E+00  0.00000000000E+00  0.82051565010E+02  0.82051565010E+02  0.00000000000E+00 0. -1.
          2   -1    0    0  502    0 -0.00000000000E+00 -0.00000000000E+00 -0.17868257671E+04  0.17868257671E+04  0.00000000000E+00 0. -1.
         24    2    1    2    0    0 -0.25313702227E+03  0.38985192227E+02 -0.60404710445E+03  0.66093327970E+03  0.79760256768E+02 0.  0.
         23    2    1    2    0    0  0.26090964972E+03 -0.19438516577E+03 -0.68139426539E+03  0.76067501736E+03  0.92026621909E+02 0.  0.
        -13    1    3    3    0    0 -0.10126401893E+03  0.44610444828E+02 -0.32296955763E+03  0.34139980737E+03  0.00000000000E+00 0.  1.
         14    1    3    3    0    0 -0.15187300334E+03 -0.56252526014E+01 -0.28107754682E+03  0.31953347233E+03  0.00000000000E+00 0. -1.
        -11    1    4    4    0    0  0.11409930022E+03 -0.72321428517E+02 -0.18695973138E+03  0.23065771283E+03  0.00000000000E+00 0.  1.
         11    1    4    4    0    0  0.14681034950E+03 -0.12206373726E+03 -0.49443453401E+03  0.53001730452E+03  0.00000000000E+00 0. -1.
          1    1    1    2  501    0 -0.77726274441E+01  0.15539997355E+03 -0.41933283227E+03  0.44726903508E+03  0.00000000000E+00 0. -1.
<scales pt_clust_5="13000.00000" pt_clust_6="13000.00000" pt_clust_7="13000.00000" pt_clust_8="13000.00000" pt_clust_9="155.59431"></scales>
<clustering>
<clus scale="   79.760">  5  6 -1 -1</clus>
<clus scale="   92.027">  7  8 -1 -1</clus>
<clus scale="  155.594">  1  9  2 -1</clus>
<clus scale="  287.908">  2  5  1 -1</clus>
<clus scale="  155.594">  1  5  2 -1</clus>
</clustering>
</event>
<event>
 9    2  0.3764910E-005  0.1434177E+03  0.7546771E-02  0.1212337E+00
         21   -1    0    0  501  502  0.00000000000E+00  0.00000000000E+00  0.33016171552E+03  0.33016171552E+03  0.00000000000E+00 0.  1.
          2   -1    0    0  502    0 -0.00000000000E+00 -0.00000000000E+00 -0.31484038120E+03  0.31484038120E+03  0.00000000000E+00 0. -1.
         23    2    1    2    0    0 -0.48846676012E+02  0.95075842633E+02 -0.26282689393E+03  0.29864268598E+03  0.93188326015E+02 0.  0.
         24    2    1    2    0    0  0.87630758368E+02 -0.11252492168E+03  0.23897186342E+03  0.28853672518E+03  0.76189779233E+02 0.  0.
        -11    1    4    4    0    0  0.78124561334E+02 -0.10621707129E+03  0.24297516931E+03  0.27644610003E+03  0.00000000000E+00 0.  1.
         12    1    4    4    0    0  0.95061970346E+01 -0.63078503857E+01 -0.40033058907E+01  0.12090625154E+02  0.00000000000E+00 0. -1.
        -11    1    3    3    0    0 -0.11877141970E+01  0.46439262904E+02 -0.28222073636E+02  0.54355323975E+02  0.00000000000E+00 0.  1.
         11    1    3    3    0    0 -0.47658961815E+02  0.48636579728E+02 -0.23460482030E+03  0.24428736201E+03  0.00000000000E+00 0. -1.
          1    1    1    2  501    0 -0.38784082356E+02  0.17449079048E+02  0.39176364835E+02  0.57822685561E+02  0.00000000000E+00 0. -1.
<scales pt_clust_5="13000.00000" pt_clust_6="13000.00000" pt_clust_7="13000.00000" pt_clust_8="13000.00000" pt_clust_9="42.52852"></scales>
<clustering>
<clus scale="   42.529">  1  9  2 -1</clus>
<clus scale="   76.190">  5  6 -1 -1</clus>
<clus scale="   93.188">  7  8 -1 -1</clus>
<clus scale="  133.002">  1  5  2 -1</clus>
<clus scale="   42.529">  1  5  2 -1</clus>
</clustering>
</event>
<event>
 9    2  0.3764910E-005  0.9473809E+02  0.7546771E-02  0.1300509E+00
         21   -1    0    0  501  502  0.00000000000E+00  0.00000000000E+00  0.10154556163E+03  0.10154556163E+03  0.00000000000E+00 0.  1.
          2   -1    0    0  502    0 -0.00000000000E+00 -0.00000000000E+00 -0.25511543783E+03  0.25511543783E+03  0.00000000000E+00 0. -1.
         24    2    1    2    0    0 -0.72699923353E+01  0.18092485999E+02 -0.20067098854E+03  0.21618639536E+03  0.78022567619E+02 0.  0.
         23    2    1    2    0    0 -0.14835675195E+02 -0.29916413576E+02  0.14722094079E+02  0.99525042147E+02  0.92592682759E+02 0.  0.
        -13    1    3    3    0    0 -0.37484188142E+02  0.18078286392E+02 -0.64919048677E+02  0.77112720615E+02  0.00000000000E+00 0.  1.
         14    1    3    3    0    0  0.30214195806E+02  0.14199607257E-01 -0.13575193986E+03  0.13907367474E+03  0.00000000000E+00 0. -1.
        -13    1    4    4    0    0 -0.16146849026E+02  0.28508609619E+02 -0.12485680875E+02  0.35062141731E+02  0.00000000000E+00 0. -1.
         13    1    4    4    0    0  0.13111738310E+01 -0.58425023195E+02  0.27207774954E+02  0.64462900416E+02  0.00000000000E+00 0.  1.
          1    1    1    2  501    0  0.22105667530E+02  0.11823927577E+02  0.32379018265E+02  0.40949561952E+02  0.00000000000E+00 0. -1.
<scales pt_clust_5="13000.00000" pt_clust_6="13000.00000" pt_clust_7="13000.00000" pt_clust_8="13000.00000" pt_clust_9="25.06922"></scales>
<clustering>
<clus scale="   25.069">  1  9  2 -1</clus>
<clus scale="   78.023">  5  6 -1 -1</clus>
<clus scale="   80.557">  2  5  1 -1</clus>
<clus scale="   92.593">  7  8 -1 -1</clus>
<clus scale="   25.069">  1  5  2 -1</clus>
</clustering>
</event>
<event>
 9    2  0.3764910E-005  0.1169972E+03  0.7546771E-02  0.1252231E+00
         -1   -1    0    0    0  501 -0.00000000000E+00  0.00000000000E+00  0.73556589418E+02  0.73556589418E+02  0.00000000000E+00 0.  1.
         21   -1    0    0  501  502  0.00000000000E+00 -0.00000000000E+00 -0.46154132057E+03  0.46154132057E+03  0.00000000000E+00 0. -1.
         23    2    1    2    0    0 -0.31406058364E+02 -0.64483718384E+02 -0.42636426501E+01  0.11664259014E+03  0.91884845033E+02 0.  0.
         24    2    1    2    0    0  0.80568834936E+01  0.80676180531E+02 -0.36960492490E+03  0.38672763679E+03  0.79855526222E+02 0.  0.
        -11    1    4    4    0    0  0.32469509276E+02  0.82877642867E+02 -0.30040442237E+03  0.31331420283E+03  0.00000000000E+00 0.  1.
         12    1    4    4    0    0 -0.24412625783E+02 -0.22014623357E+01 -0.69200502535E+02  0.73413433955E+02  0.00000000000E+00 0. -1.
        -13    1    3    3    0    0  0.12410473272E+02 -0.35228529256E+02  0.34803918994E+02  0.51052736437E+02  0.00000000000E+00 0.  1.
         13    1    3    3    0    0 -0.43816531636E+02 -0.29255189128E+02 -0.39067561645E+02  0.65589853700E+02  0.00000000000E+00 0. -1.
         -2    1    1    2    0  502  0.23349174871E+02 -0.16192462147E+02 -0.14116163595E+02  0.31727683057E+02  0.00000000000E+00 0.  1.
<scales pt_clust_5="13000.00000" pt_clust_6="13000.00000" pt_clust_7="13000.00000" pt_clust_8="13000.00000" pt_clust_9="28.41444"></scales>
<clustering>
<clus scale="   28.414">  2  9  1 -1</clus>
<clus scale="   79.856">  5  6 -1 -1</clus>
<clus scale="   91.885">  7  8 -1 -1</clus>
<clus scale="  107.807">  2  5  1 -1</clus>
<clus scale="   28.414">  2  5  1 -1</clus>
</clustering>
</event>
<event>
 9    2  0.3764910E-005  0.9692198E+02  0.7546771E-02  0.1293314E+00
         21   -1    0    0  501  502  0.00000000000E+00  0.00000000000E+00  0.81393732005E+03  0.81393732005E+03  0.00000000000E+00 0. -1.
         -3   -1    0    0    0  501 -0.00000000000E+00 -0.00000000000E+00 -0.45178994937E+02  0.45178994937E+02  0.00000000000E+00 0.  1.
         23    2    1    2    0    0  0.34196731322E+02  0.96247781723E+01  0.19658538887E+02  0.99507417597E+02  0.90847208090E+02 0.  0.
         24    2    1    2    0    0 -0.21825300020E+02  0.23771349484E+02  0.61339335528E+03  0.61930711887E+03  0.79047317514E+02 0.  0.
        -13    1    4    4    0    0 -0.42632916995E+02 -0.87683918976E+00  0.19186915854E+03  0.19655052393E+03  0.00000000000E+00 0.  1.
         14    1    4    4    0    0  0.20807616975E+02  0.24648188674E+02  0.42152419673E+03  0.42275659494E+03  0.00000000000E+00 0. -1.
        -13    1    3    3    0    0  0.60910125048E+02  0.88091972773E+01 -0.67772837142E+01  0.61915885398E+02  0.00000000000E+00 0.  1.
         13    1    3    3    0    0 -0.26713393726E+02  0.81558089498E+00  0.26435822601E+02  0.37591532200E+02  0.00000000000E+00 0. -1.
         -4    1    1    2    0  502 -0.12371431302E+02 -0.33396127656E+02  0.13570643095E+03  0.14030177852E+03  0.00000000000E+00 0.  1.
<scales pt_clust_5="13000.00000" pt_clust_6="13000.00000" pt_clust_7="13000.00000" pt_clust_8="13000.00000" pt_clust_9="35.61395"></scales>
<clustering>
<clus scale="   35.614">  1  9  2 -1</clus>
<clus scale="   79.047">  5  6 -1 -1</clus>
<clus scale="   85.960">  1  5  2 -1</clus>
<clus scale="   90.847">  7  8 -1 -1</clus>
<clus scale="   35.614">  1  5  2 -1</clus>
</clustering>
</event>
<event>
 9    2  0.3764910E-005  0.4029030E+03  0.7546771E-02  0.1081109E+00
         21   -1    0    0  501  502  0.00000000000E+00  0.00000000000E+00  0.21984955727E+04  0.21984955727E+04  0.00000000000E+00 0. -1.
          2   -1    0    0  502    0 -0.00000000000E+00 -0.00000000000E+00 -0.27696679538E+03  0.27696679538E+03  0.00000000000E+00 0. -1.
         23    2    1    2    0    0 -0.18003424706E+02  0.11418055753E+03 -0.10764659293E+03  0.17528396934E+03  0.75995775667E+02 0.  0.
         24    2    1    2    0    0 -0.19705929824E+03  0.23618982425E+03  0.10978905279E+03  0.33725832525E+03  0.84092459442E+02 0.  0.
        -11    1    4    4    0    0 -0.89786916377E+02  0.55867977082E+02  0.14221177850E+02  0.10670127982E+03  0.00000000000E+00 0.  1.
         12    1    4    4    0    0 -0.10727238186E+03  0.18032184717E+03  0.95567874938E+02  0.23055704543E+03  0.00000000000E+00 0. -1.
        -11    1    3    3    0    0  0.23249048003E+02  0.11548550008E+02 -0.10273235728E+02  0.27918212920E+02  0.00000000000E+00 0.  1.
         11    1    3    3    0    0 -0.41252472709E+02  0.10263200752E+03 -0.97373357207E+02  0.14736575642E+03  0.00000000000E+00 0. -1.
          1    1    1    2  501    0  0.21506272295E+03 -0.35037038178E+03  0.19193863175E+04  0.19629200735E+04  0.00000000000E+00 0. -1.
<scales pt_clust_5="13000.00000" pt_clust_6="13000.00000" pt_clust_7="13000.00000" pt_clust_8="13000.00000" pt_clust_9="394.02958"></scales>
<clustering>
<clus scale="   75.996">  7  8 -1 -1</clus>
<clus scale="   84.092">  5  6 -1 -1</clus>
<clus scale="  138.335">  2  7  1 -1</clus>
<clus scale="  394.030">  1  9  2 -1</clus>
<clus scale="  394.030">  1  5  2 -1</clus>
</clustering>
</event>
<event>
 9    2  0.3764910E-005  0.9271767E+02  0.7546771E-02  0.1301809E+00
          2   -1    0    0  502    0 -0.00000000000E+00  0.00000000000E+00  0.16567529559E+03  0.16567529559E+03  0.00000000000E+00 0. -1.
         21   -1    0    0  501  502  0.00000000000E+00 -0.00000000000E+00 -0.16144196382E+03  0.16144196382E+03  0.00000000000E+00 0. -1.
         23    2    1    2    0    0 -0.14025717848E+02 -0.16710137627E+02  0.12976816881E+03  0.15993318631E+03  0.90900478466E+02 0.  0.
         24    2    1    2    0    0 -0.21128798956E+01 -0.48225129602E+01 -0.82049701899E+02  0.11604635359E+03  0.81895553640E+02 0.  0.
        -13    1    4    4    0    0  0.17732762804E+01  0.26714576803E+02 -0.79822352604E+02  0.84192761552E+02  0.00000000000E+00 0.  1.
         14    1    4    4    0    0 -0.38861561760E+01 -0.31537089763E+02 -0.22273492953E+01  0.31853592033E+02  0.00000000000E+00 0. -1.
        -11    1    3    3    0    0  0.22681714675E+02  0.27728572613E+02  0.51326432272E+02  0.62591825101E+02  0.00000000000E+00 0.  1.
         11    1    3    3    0    0 -0.36707432523E+02 -0.44438710240E+02  0.78441736539E+02  0.97341361206E+02  0.00000000000E+00 0. -1.
          1    1    1    2  501    0  0.16138597743E+02  0.21532650588E+02 -0.43485135145E+02  0.51137719513E+02  0.00000000000E+00 0. -1.
<scales pt_clust_5="13000.00000" pt_clust_6="13000.00000" pt_clust_7="13000.00000" pt_clust_8="13000.00000" pt_clust_9="26.90928"></scales>
<clustering>
<clus scale="   26.909">  2  9  1 -1</clus>
<clus scale="   81.896">  5  6 -1 -1</clus>
<clus scale="   83.908">  2  5  1 -1</clus>
<clus scale="   90.900">  7  8 -1 -1</clus>
<clus scale="   26.909">  2  5  1 -1</clus>
</clustering>
</event>
<event>
 9    2  0.3764910E-005  0.1378212E+03  0.7546771E-02  0.1218505E+00
          2   -1    0    0  502    0 -0.00000000000E+00  0.00000000000E+00  0.27894026249E+03  0.27894026249E+03  0.00000000000E+00 0. -1.
         21   -1    0    0  501  502  0.00000000000E+00 -0.00000000000E+00 -0.23642548981E+03  0.23642548981E+03  0.00000000000E+00 0.  1.
         24    2    1    2    0    0  0.20048480514E+02 -0.88757005963E+02 -0.53622991993E+02  0.13335723121E+03  0.81418536994E+02 0.  0.
         23    2    1    2    0    0  0.71820204790E+02  0.11965904091E+03 -0.76949433941E+02  0.18363017190E+03  0.91227171178E+02 0.  0.
        -11    1    3    3    0    0  0.27743730391E+02 -0.10206090586E+03 -0.40871765006E+02  0.11338714325E+03  0.00000000000E+00 0.  1.
         12    1    3    3    0    0 -0.76952498762E+01  0.13303899896E+02 -0.12751226987E+02  0.19970087951E+02  0.00000000000E+00 0. -1.
        -13    1    4    4    0    0  0.32606012951E+02  0.11448853697E+03 -0.80825301077E+02  0.14388713102E+03  0.00000000000E+00 0.  1.
         13    1    4    4    0    0  0.39214191840E+02  0.51705039389E+01  0.38758671357E+01  0.39743040884E+02  0.00000000000E+00 0. -1.
          1    1    1    2  501    0 -0.91868685305E+02 -0.30902034949E+02  0.17308719862E+03  0.19837834919E+03  0.00000000000E+00 0. -1.
<scales pt_clust_5="13000.00000" pt_clust_6="13000.00000" pt_clust_7="13000.00000" pt_clust_8="13000.00000" pt_clust_9="96.92678"></scales>
<clustering>
<clus scale="   81.419">  5  6 -1 -1</clus>
<clus scale="   91.227">  7  8 -1 -1</clus>
<clus scale="   96.927">  2  9  1 -1</clus>
<clus scale="  131.534">  1  5  2 -1</clus>
<clus scale="   96.927">  2  5  1 -1</clus>
</clustering>
</event>
<event>
 9    2  0.3764910E-005  0.1034444E+03  0.7546771E-02  0.1277862E+00
          2   -1    0    0  502    0 -0.00000000000E+00  0.00000000000E+00  0.74612928744E+02  0.74612928744E+02  0.00000000000E+00 0. -1.
         21   -1    0    0  501  502  0.00000000000E+00 -0.00000000000E+00 -0.20642540555E+03  0.20642540555E+03  0.00000000000E+00 0. -1.
         23    2    1    2    0    0  0.25104169766E+02 -0.51179438112E+02 -0.18247871257E+02  0.10917402142E+03  0.91304041113E+02 0.  0.
         24    2    1    2    0    0 -0.22637936050E+02  0.23716894009E+02 -0.11466652801E+03  0.14426924319E+03  0.81180260385E+02 0.  0.
        -11    1    4    4    0    0  0.24248647818E+02 -0.11343370725E+02 -0.21965987926E+02  0.34629086127E+02  0.00000000000E+00 0.  1.
         12    1    4    4    0    0 -0.46886583868E+02  0.35060264734E+02 -0.92700540084E+02  0.10964015707E+03  0.00000000000E+00 0. -1.
        -13    1    3    3    0    0 -0.31902725085E+02 -0.14582286353E+01 -0.70635714904E+01  0.32707863593E+02  0.00000000000E+00 0.  1.
         13    1    3    3    0    0  0.57006894851E+02 -0.49721209477E+02 -0.11184299766E+02  0.76466157832E+02  0.00000000000E+00 0. -1.
          1    1    1    2  501    0 -0.24662337162E+01  0.27462544103E+02  0.11019224577E+01  0.27595069676E+02  0.00000000000E+00 0. -1.
<scales pt_clust_5="13000.00000" pt_clust_6="13000.00000" pt_clust_7="13000.00000" pt_clust_8="13000.00000" pt_clust_9="27.57307"></scales>
<clustering>
<clus scale="   27.573">  2  9  1 -1</clus>
<clus scale="   81.180">  5  6 -1 -1</clus>
<clus scale="   91.304">  7  8 -1 -1</clus>
<clus scale="   94.629">  2  5  1 -1</clus>
<clus scale="   27.573">  2  5  1 -1</clus>
</clustering>
</event>
<event>
 9    2  0.3764910E-005  0.1679417E+03  0.7546771E-02  0.1210715E+00
         21   -1    0    0  501  502  0.00000000000E+00  0.00000000000E+00  0.43442636057E+02  0.43442636057E+02  0.00000000000E+00 0.  1.
          2   -1    0    0  502    0 -0.00000000000E+00 -0.00000000000E+00 -0.12481211493E+04  0.12481211493E+04  0.00000000000E+00 0. -1.
         24    2    1    2    0    0  0.13264211801E+02 -0.25115583786E+02 -0.58965721814E+02  0.10406152533E+03  0.80901871678E+02 0.  0.
         23    2    1    2    0    0  0.81689839813E+02  0.12225365809E+03 -0.55402062836E+03  0.58041767512E+03  0.91250392325E+02 0.  0.
        -13    1    3    3    0    0  0.25571476191E+02 -0.36737976121E+02 -0.21887834173E+01  0.44814841927E+02  0.00000000000E+00 0.  1.
         14    1    3    3    0    0 -0.12307264390E+02  0.11622392335E+02 -0.56776938397E+02  0.59246683402E+02  0.00000000000E+00 0. -1.
        -11    1    4    4    0    0 -0.12591960144E+02  0.23531897512E+02 -0.36632937374E+02  0.45324163108E+02  0.00000000000E+00 0. -1.
         11    1    4    4    0    0  0.94281799957E+02  0.98721760574E+02 -0.51738769099E+03  0.53509351202E+03  0.00000000000E+00 0.  1.
          1    1    1    2  501    0 -0.94954051614E+02 -0.97138074300E+02 -0.59169216305E+03  0.60708458490E+03  0.00000000000E+00 0. -1.
<scales pt_clust_5="13000.00000" pt_clust_6="13000.00000" pt_clust_7="13000.00000" pt_clust_8="13000.00000" pt_clust_9="140.98861"></scales>
<clustering>
<clus scale="   80.902">  5  6 -1 -1</clus>
<clus scale="   85.743">  2  5  1 -1</clus>
<clus scale="   91.250">  7  8 -1 -1</clus>
<clus scale="  140.989">  1  9  2 -1</clus>
<clus scale="  140.989">  1  5  2 -1</clus>
</clustering>
</event>
<event>
 9    2  0.3764910E-005  0.9455798E+02  0.7546771E-02  0.1295454E+00
          2   -1    0    0  502    0 -0.00000000000E+00  0.00000000000E+00  0.86372275668E+03  0.86372275668E+03  0.00000000000E+00 0. -1.
         21   -1    0    0  501  502  0.00000000000E+00 -0.00000000000E+00 -0.25120944702E+02  0.25120944702E+02  0.00000000000E+00 0.  1.
         23    2    1    2    0    0  0.38052685592E+01  0.30739561377E+02  0.47443995763E+03  0.48334173668E+03  0.86985977725E+02 0.  0.
         24    2    1    2    0    0  0.45107741782E+02 -0.58403393023E+02  0.16086735315E+03  0.19458391337E+03  0.80863646627E+02 0.  0.
        -11    1    4    4    0    0  0.37607874279E+02 -0.71408742717E+02  0.84867961063E+02  0.11711588944E+03  0.00000000000E+00 0.  1.
         12    1    4    4    0    0  0.74998675029E+01  0.13005349695E+02  0.75999392091E+02  0.77468023929E+02  0.00000000000E+00 0. -1.
        -13    1    3    3    0    0  0.39709202894E+02  0.38422372067E+02  0.30567484586E+03  0.31062873476E+03  0.00000000000E+00 0. -1.
         13    1    3    3    0    0 -0.35903934335E+02 -0.76828106892E+01  0.16876511177E+03  0.17271300192E+03  0.00000000000E+00 0.  1.
          1    1    1    2  501    0 -0.48913010341E+02  0.27663831645E+02  0.20329450119E+03  0.21091805133E+03  0.00000000000E+00 0. -1.
<scales pt_clust_5="13000.00000" pt_clust_6="13000.00000" pt_clust_7="13000.00000" pt_clust_8="13000.00000" pt_clust_9="56.19407"></scales>
<clustering>
<clus scale="   56.194">  2  9  1 -1</clus>
<clus scale="   80.864">  5  6 -1 -1</clus>
<clus scale="   86.986">  7  8 -1 -1</clus>
<clus scale="   88.958">  2  5  1 -1</clus>
<clus scale="   56.194">  2  5  1 -1</clus>
</clustering>
</event>
<event>
 9    2  0.3764910E-005  0.9290519E+02  0.7546771E-02  0.1301649E+00
         21   -1    0    0  501  502  0.00000000000E+00  0.00000000000E+00  0.17325390202E+02  0.17325390202E+02  0.00000000000E+00 0. -1.
          2   -1    0    0  502    0 -0.00000000000E+00 -0.00000000000E+00 -0.64446264040E+03  0.64446264040E+03  0.00000000000E+00 0. -1.
         23    2    1    2    0    0  0.28633521297E+01  0.16728080265E+02 -0.37656017912E+03  0.38771821254E+03  0.90773434339E+02 0.  0.
         24    2    1    2    0    0  0.16933786902E+02 -0.22317900013E+02 -0.22726104994E+03  0.24297625538E+03  0.81271360622E+02 0.  0.
        -11    1    4    4    0    0 -0.24035915178E+02 -0.44676379433E+01 -0.21942816906E+02  0.32850756779E+02  0.00000000000E+00 0.  1.
         12    1    4    4    0    0  0.40969702080E+02 -0.17850262070E+02 -0.20531823304E+03  0.21012549860E+03  0.00000000000E+00 0. -1.
        -11    1    3    3    0    0  0.44428972648E+02 -0.46985710476E+01 -0.21115452375E+03  0.21582919886E+03  0.00000000000E+00 0.  1.
         11    1    3    3    0    0 -0.41565620519E+02  0.21426651313E+02 -0.16540565537E+03  0.17188901368E+03  0.00000000000E+00 0. -1.
          1    1    1    2  501    0 -0.19797139032E+02  0.55898197481E+01 -0.23316021134E+02  0.31093562680E+02  0.00000000000E+00 0. -1.
<scales pt_clust_5="13000.00000" pt_clust_6="13000.00000" pt_clust_7="13000.00000" pt_clust_8="13000.00000" pt_clust_9="20.57116"></scales>
<clustering>
<clus scale="   20.571">  1  9  2 -1</clus>
<clus scale="   81.271">  5  6 -1 -1</clus>
<clus scale="   83.646">  1  5  2 -1</clus>
<clus scale="   90.773">  7  8 -1 -1</clus>
<clus scale="   20.571">  1  5  2 -1</clus>
</clustering>
</event>
<event>
 9    2  0.3764910E-005  0.1146548E+03  0.7546771E-02  0.1253226E+00
         21   -1    0    0  501  502  0.00000000000E+00  0.00000000000E+00  0.31334115935E+03  0.31334115935E+03  0.00000000000E+00 0. -1.
         -1   -1    0    0    0  501 -0.00000000000E+00 -0.00000000000E+00 -0.85497402993E+02  0.85497402993E+02  0.00000000000E+00 0.  1.
         23    2    1    2    0    0 -0.62500519713E+01 -0.53384595230E+02  0.62793558442E+01  0.10597102330E+03  0.91112289571E+02 0.  0.
         24    2    1    2    0    0 -0.52703802161E+01  0.99317957565E+02  0.12511510744E+03  0.18541959692E+03  0.93993633881E+02 0.  0.
        -13    1    4    4    0    0 -0.39581845155E+01  0.56512679836E+02  0.38125097931E+01  0.56779269438E+02  0.00000000000E+00 0.  1.
         14    1    4    4    0    0 -0.13121957007E+01  0.42805277729E+02  0.12130259765E+03  0.12864032749E+03  0.00000000000E+00 0. -1.
        -13    1    3    3    0    0  0.33459038808E+02 -0.96795366240E+01 -0.21268345145E+02  0.40811067279E+02  0.00000000000E+00 0.  1.
         13    1    3    3    0    0 -0.39709090780E+02 -0.43705058606E+02  0.27547700989E+02  0.65159956017E+02  0.00000000000E+00 0. -1.
         -2    1    1    2    0  502  0.11520432187E+02 -0.45933362335E+02  0.96449293074E+02  0.10744794213E+03  0.00000000000E+00 0.  1.
<scales pt_clust_5="13000.00000" pt_clust_6="13000.00000" pt_clust_7="13000.00000" pt_clust_8="13000.00000" pt_clust_9="47.35604"></scales>
<clustering>
<clus scale="   47.356">  1  9  2 -1</clus>
<clus scale="   91.112">  7  8 -1 -1</clus>
<clus scale="   93.994">  5  6 -1 -1</clus>
<clus scale="  112.305">  2  7  1 -1</clus>
<clus scale="   47.356">  1  5  2 -1</clus>
</clustering>
</event>
<event>
 9    2  0.3764910E-005  0.9741319E+02  0.7546771E-02  0.1288431E+00
         21   -1    0    0  501  502  0.00000000000E+00  0.00000000000E+00  0.10194123340E+03  0.10194123340E+03  0.00000000000E+00 0. -1.
          2   -1    0    0  502    0 -0.00000000000E+00 -0.00000000000E+00 -0.18974987592E+03  0.18974987592E+03  0.00000000000E+00 0. -1.
         24    2    1    2    0    0  0.46178122697E+02  0.27157899196E+01 -0.77469062457E+02  0.12177070043E+03  0.81773182130E+02 0.  0.
         23    2    1    2    0    0 -0.27699448404E+02 -0.46867055722E+02  0.30422651475E+02  0.10705264930E+03  0.87011215635E+02 0.  0.
        -13    1    3    3    0    0  0.12434061423E+02  0.38248472591E+02 -0.16305447170E+02  0.43398377232E+02  0.00000000000E+00 0.  1.
         14    1    3    3    0    0  0.33744061274E+02 -0.35532682671E+02 -0.61163615287E+02  0.78372323202E+02  0.00000000000E+00 0. -1.
        -11    1    4    4    0    0 -0.25101624152E+02 -0.55647311924E+01 -0.26338293380E+02  0.36807111629E+02  0.00000000000E+00 0.  1.
         11    1    4    4    0    0 -0.25978242519E+01 -0.41302324530E+02  0.56760944855E+02  0.70245537675E+02  0.00000000000E+00 0. -1.
          1    1    1    2  501    0 -0.18478674293E+02  0.44151265803E+02 -0.40762231539E+02  0.62867759588E+02  0.00000000000E+00 0. -1.
<scales pt_clust_5="13000.00000" pt_clust_6="13000.00000" pt_clust_7="13000.00000" pt_clust_8="13000.00000" pt_clust_9="47.86228"></scales>
<clustering>
<clus scale="   47.862">  1  9  2 -1</clus>
<clus scale="   81.773">  5  6 -1 -1</clus>
<clus scale="   87.011">  7  8 -1 -1</clus>
<clus scale="   92.764">  2  5  1 -1</clus>
<clus scale="   47.862">  1  5  2 -1</clus>
</clustering>
</event>
<event>
 9    2  0.3764910E-005  0.1359216E+03  0.7546771E-02  0.1222603E+00
         21   -1    0    0  501  502  0.00000000000E+00  0.00000000000E+00  0.17517665154E+03  0.17517665154E+03  0.00000000000E+00 0. -1.
         -1   -1    0    0    0  501 -0.00000000000E+00 -0.00000000000E+00 -0.11493061026E+03  0.11493061026E+03  0.00000000000E+00 0.  1.
         24    2    1    2    0    0 -0.70999228984E+02  0.79241887586E+02  0.20366073692E+02  0.13481939973E+03  0.80257873889E+02 0.  0.
         23    2    1    2    0    0  0.53716306287E+02 -0.67659028505E+02  0.39204195675E+02  0.13447155335E+03  0.95301857286E+02 0.  0.
        -11    1    3    3    0    0 -0.25961696262E+02 -0.43606591714E+01 -0.18537750746E+02  0.32197410205E+02  0.00000000000E+00 0.  1.
         12    1    3    3    0    0 -0.45037532721E+02  0.83602546757E+02  0.38903824437E+02  0.10262198952E+03  0.00000000000E+00 0. -1.
        -13    1    4    4    0    0 -0.24425996874E+02 -0.35067432558E+02  0.45133218124E+01  0.42973529332E+02  0.00000000000E+00 0. -1.
         13    1    4    4    0    0  0.78142303161E+02 -0.32591595948E+02  0.34690873862E+02  0.91498024017E+02  0.00000000000E+00 0.  1.
         -2    1    1    2    0  502  0.17282922697E+02 -0.11582859081E+02  0.67577191521E+00  0.20816308729E+02  0.00000000000E+00 0.  1.
<scales pt_clust_5="13000.00000" pt_clust_6="13000.00000" pt_clust_7="13000.00000" pt_clust_8="13000.00000" pt_clust_9="20.80535"></scales>
<clustering>
<clus scale="   20.805">  1  9  2 -1</clus>
<clus scale="   80.258">  5  6 -1 -1</clus>
<clus scale="   95.302">  7  8 -1 -1</clus>
<clus scale="  125.831">  2  5  1 -1</clus>
<clus scale="   20.805">  1  5  2 -1</clus>
</clustering>
</event>
<event>
 9    2  0.3764910E-005  0.1567402E+03  0.7546771E-02  0.1192542E+00
         -3   -1    0    0    0  501 -0.00000000000E+00  0.00000000000E+00  0.17694232750E+04  0.17694232750E+04  0.00000000000E+00 0.  1.
         21   -1    0    0  501  502  0.00000000000E+00 -0.00000000000E+00 -0.18447233989E+02  0.18447233989E+02  0.00000000000E+00 0.  1.
         24    2    1    2    0    0 -0.78277510476E+02 -0.84479156651E+02  0.76702807745E+03  0.78076882721E+03  0.89463922311E+02 0.  0.
         23    2    1    2    0    0  0.10069993455E+03  0.10082743588E+03  0.94085984184E+03  0.95585114453E+03  0.90152758505E+02 0.  0.
        -13    1    3    3    0    0 -0.46424957280E+02  0.34339834803E+01  0.16192577391E+03  0.16848449530E+03  0.00000000000E+00 0.  1.
         14    1    3    3    0    0 -0.31852553196E+02 -0.87913140131E+02  0.60510230354E+03  0.61228433191E+03  0.00000000000E+00 0. -1.
        -13    1    4    4    0    0  0.10789579130E+03  0.53473804974E+02  0.69841815712E+03  0.70872340994E+03  0.00000000000E+00 0.  1.
         13    1    4    4    0    0 -0.71958567503E+01  0.47353630909E+02  0.24244168472E+03  0.24712773459E+03  0.00000000000E+00 0. -1.
         -4    1    1    2    0  502 -0.22422424073E+02 -0.16348279232E+02  0.43088121753E+02  0.51250537279E+02  0.00000000000E+00 0.  1.
<scales pt_clust_5="13000.00000" pt_clust_6="13000.00000" pt_clust_7="13000.00000" pt_clust_8="13000.00000" pt_clust_9="27.74944"></scales>
<clustering>
<clus scale="   27.749">  2  9  1 -1</clus>
<clus scale="   89.464">  5  6 -1 -1</clus>
<clus scale="   90.153">  7  8 -1 -1</clus>
<clus scale="  156.345">  1  5  2 -1</clus>
<clus scale="   27.749">  2  5  1 -1</clus>
</clustering>
</event>
<event>
 9    2  0.3764910E-005  0.2573906E+03  0.7546771E-02  0.1109336E+00
          2   -1    0    0  502    0 -0.00000000000E+00  0.00000000000E+00  0.24380679116E+04  0.24380679116E+04  0.00000000000E+00 0. -1.
         21   -1    0    0  501  502  0.00000000000E+00 -0.00000000000E+00 -0.47638486900E+02  0.47638486900E+02  0.00000000000E+00 0. -1.
         24    2    1    2    0    0  0.18304540615E+03  0.16296271047E+03  0.12202749182E+04  0.12471413067E+04  0.78918294677E+02 0.  0.
         23    2    1    2    0    0 -0.86578247630E+02 -0.23692753802E+03  0.62629002395E+03  0.68128124689E+03  0.90964234911E+02 0.  0.
        -11    1    3    3    0    0  0.62679778847E+02  0.21319678670E+02  0.22014602699E+03  0.22988596429E+03  0.00000000000E+00 0.  1.
         12    1    3    3    0    0  0.12036562731E+03  0.14164303180E+03  0.10001288912E+04  0.10172553424E+04  0.00000000000E+00 0. -1.
        -11    1    4    4    0    0  0.50180872906E+01 -0.40660672979E+02  0.44520640519E+02  0.60502553329E+02  0.00000000000E+00 0.  1.
         11    1    4    4    0    0 -0.91596334921E+02 -0.19626686504E+03  0.58176938343E+03  0.62077869356E+03  0.00000000000E+00 0. -1.
          1    1    1    2  501    0 -0.96467158522E+02  0.73964827549E+02  0.54386448262E+03  0.55728384495E+03  0.00000000000E+00 0. -1.
<scales pt_clust_5="13000.00000" pt_clust_6="13000.00000" pt_clust_7="13000.00000" pt_clust_8="13000.00000" pt_clust_9="121.55955"></scales>
<clustering>
<clus scale="   78.918">  5  6 -1 -1</clus>
<clus scale="   90.964">  7  8 -1 -1</clus>
<clus scale="  121.560">  2  9  1 -1</clus>
<clus scale="  253.384">  1  5  2 -1</clus>
<clus scale="  121.560">  2  5  1 -1</clus>
</clustering>
</event>
<event>
 9    2  0.3764910E-005  0.1212377E+03  0.7546771E-02  0.1254555E+00
         -3   -1    0    0    0  501 -0.00000000000E+00  0.00000000000E+00  0.17236824907E+03  0.17236824907E+03  0.00000000000E+00 0.  1.
         21   -1    0    0  501  502  0.00000000000E+00 -0.00000000000E+00 -0.11155476408E+03  0.11155476408E+03  0.00000000000E+00 0.  1.
         24    2    1    2    0    0 -0.35111513122E+02  0.29836912985E+02  0.56168484190E+02  0.10888638998E+03  0.81106643236E+02 0.  0.
         23    2    1    2    0    0  0.13925130735E+02 -0.42471391283E+02 -0.36832996907E+02  0.12677776767E+03  0.11277501661E+03 0.  0.
        -11    1    3    3    0    0 -0.61630905523E+02  0.22885658368E+02  0.42155197061E+02  0.78097263164E+02  0.00000000000E+00 0.  1.
         12    1    3    3    0    0  0.26519392401E+02  0.69512546169E+01  0.14013287129E+02  0.30789126818E+02  0.00000000000E+00 0. -1.
        -13    1    4    4    0    0 -0.16578574158E+02 -0.24653738559E+02 -0.71411343983E+02  0.77344915771E+02  0.00000000000E+00 0.  1.
         13    1    4    4    0    0  0.30503704893E+02 -0.17817652724E+02  0.34578347076E+02  0.49432851903E+02  0.00000000000E+00 0. -1.
         -4    1    1    2    0  502  0.21186382387E+02  0.12634478298E+02  0.41477997702E+02  0.48258855497E+02  0.00000000000E+00 0.  1.
<scales pt_clust_5="13000.00000" pt_clust_6="13000.00000" pt_clust_7="13000.00000" pt_clust_8="13000.00000" pt_clust_9="24.66766"></scales>
<clustering>
<clus scale="   24.668">  2  9  1 -1</clus>
<clus scale="   81.107">  5  6 -1 -1</clus>
<clus scale="   92.513">  1  5  2 -1</clus>
<clus scale="  112.775">  7  8 -1 -1</clus>
<clus scale="   24.668">  2  5  1 -1</clus>
</clustering>
</event>
<event>
 9    2  0.3764910E-005  0.1025567E+03  0.7546771E-02  0.1279604E+00
         -3   -1    0    0    0  501 -0.00000000000E+00  0.00000000000E+00  0.62294888384E+03  0.62294888384E+03  0.00000000000E+00 0.  1.
         21   -1    0    0  501  502  0.00000000000E+00 -0.00000000000E+00 -0.28550420817E+02  0.28550420817E+02  0.00000000000E+00 0. -1.
         23    2    1    2    0    0 -0.46380027328E+02 -0.24915382215E+02  0.44132790492E+03  0.45364002782E+03  0.90813390949E+02 0.  0.
         24    2    1    2    0    0  0.34846135898E+02  0.11394182625E+00  0.77037957850E+02  0.11705644026E+03  0.80951201891E+02 0.  0.
        -13    1    4    4    0    0  0.43057753426E+02 -0.14836350852E+02  0.86349448054E+02  0.97623330285E+02  0.00000000000E+00 0.  1.
         14    1    4    4    0    0 -0.82116175277E+01  0.14950292678E+02 -0.93114902042E+01  0.19433109978E+02  0.00000000000E+00 0. -1.
        -11    1    3    3    0    0  0.16634077499E+02 -0.35886488463E+02  0.20666911804E+03  0.21042019138E+03  0.00000000000E+00 0.  1.
         11    1    3    3    0    0 -0.63014104828E+02  0.10971106248E+02  0.23465878687E+03  0.24321983644E+03  0.00000000000E+00 0. -1.
         -4    1    1    2    0  502  0.11533891430E+02  0.24801440389E+02  0.76032600259E+02  0.80802836578E+02  0.00000000000E+00 0.  1.
<scales pt_clust_5="13000.00000" pt_clust_6="13000.00000" pt_clust_7="13000.00000" pt_clust_8="13000.00000" pt_clust_9="27.35220"></scales>
<clustering>
<clus scale="   27.352">  2  9  1 -1</clus>
<clus scale="   80.951">  5  6 -1 -1</clus>
<clus scale="   90.813">  7  8 -1 -1</clus>
<clus scale="   93.936">  2  5  1 -1</clus>
<clus scale="   27.352">  2  5  1 -1</clus>
</clustering>
</event>
<event>
 9    2  0.3764910E-005  0.8771107E+02  0.7546771E-02  0.1309145E+00
          2   -1    0    0  502    0 -0.00000000000E+00  0.00000000000E+00  0.34355973793E+03  0.34355973793E+03  0.00000000000E+00 0. -1.
         21   -1    0    0  501  502  0.00000000000E+00 -0.00000000000E+00 -0.32714757337E+02  0.32714757337E+02  0.00000000000E+00 0.  1.
         23    2    1    2    0    0 -0.93238366963E+01 -0.30957047090E+02  0.13330818363E+03  0.16001837213E+03  0.82398634110E+02 0.  0.
         24    2    1    2    0    0  0.32243637853E+02  0.12760606877E+02  0.10042155366E+03  0.13377467994E+03  0.81293857596E+02 0.  0.
        -11    1    4    4    0    0  0.22100599837E+02  0.16459752402E+02 -0.48250776841E+01  0.27975727640E+02  0.00000000000E+00 0.  1.
         12    1    4    4    0    0  0.10143038016E+02 -0.36991455257E+01  0.10524663135E+03  0.10579895230E+03  0.00000000000E+00 0. -1.
        -11    1    3    3    0    0  0.14037150590E+02 -0.49973382193E+02  0.52721800527E+02  0.73986274236E+02  0.00000000000E+00 0.  1.
         11    1    3    3    0    0 -0.23360987286E+02  0.19016335103E+02  0.80586383099E+02  0.86032097898E+02  0.00000000000E+00 0. -1.
          1    1    1    2  501    0 -0.22919801157E+02  0.18196440213E+02  0.77115243307E+02  0.82481443196E+02  0.00000000000E+00 0. -1.
<scales pt_clust_5="13000.00000" pt_clust_6="13000.00000" pt_clust_7="13000.00000" pt_clust_8="13000.00000" pt_clust_9="29.26480"></scales>
<clustering>
<clus scale="   29.265">  2  9  1 -1</clus>
<clus scale="   81.294">  5  6 -1 -1</clus>
<clus scale="   82.399">  7  8 -1 -1</clus>
<clus scale="   86.674">  2  5  1 -1</clus>
<clus scale="   29.265">  2  5  1 -1</clus>
</clustering>
</event>
<event>
 9    2  0.3764910E-005  0.1040328E+03  0.7546771E-02  0.1276820E+00
         21   -1    0    0  501  502  0.00000000000E+00  0.00000000000E+00  0.13497953882E+03  0.13497953882E+03  0.00000000000E+00 0.  1.
         -3   -1    0    0    0  501 -0.00000000000E+00 -0.00000000000E+00 -0.39569451835E+03  0.39569451835E+03  0.00000000000E+00 0.  1.
         23    2    1    2    0    0  0.37935510905E+02  0.18555938153E+02 -0.29206237543E+03  0.30899518897E+03  0.91619702214E+02 0.  0.
         24    2    1    2    0    0 -0.63188557449E+02 -0.84106282859E+02 -0.20453066902E+02  0.13439856115E+03  0.81104775974E+02 0.  0.
        -11    1    4    4    0    0 -0.55263378381E+02 -0.87472963165E+02 -0.41637268059E+02  0.11153126183E+03  0.00000000000E+00 0.  1.
         12    1    4    4    0    0 -0.79251790680E+01  0.33666803065E+01  0.21184201156E+02  0.22867299320E+02  0.00000000000E+00 0. -1.
        -13    1    3    3    0    0  0.29597034704E+02  0.46217464020E+02 -0.26045004897E+03  0.26616961970E+03  0.00000000000E+00 0.  1.
         13    1    3    3    0    0  0.83384762009E+01 -0.27661525867E+02 -0.31612326466E+02  0.42825569270E+02  0.00000000000E+00 0. -1.
         -4    1    1    2    0  502  0.25253046544E+02  0.65550344706E+02  0.51800462808E+02  0.87280307045E+02  0.00000000000E+00 0.  1.
<scales pt_clust_5="13000.00000" pt_clust_6="13000.00000" pt_clust_7="13000.00000" pt_clust_8="13000.00000" pt_clust_9="70.24645"></scales>
<clustering>
<clus scale="   70.246">  1  9  2 -1</clus>
<clus scale="   81.105">  5  6 -1 -1</clus>
<clus scale="   91.620">  7  8 -1 -1</clus>
<clus scale="   94.903">  1  5  2 -1</clus>
<clus scale="   70.246">  1  5  2 -1</clus>
</clustering>
</event>
<event>
 9    2  0.3764910E-005  0.1230522E+03  0.7546771E-02  0.1243425E+00
          2   -1    0    0  502    0 -0.00000000000E+00  0.00000000000E+00  0.17974256399E+03  0.17974256399E+03  0.00000000000E+00 0. -1.
         21   -1    0    0  501  502  0.00000000000E+00 -0.00000000000E+00 -0.23487315051E+03  0.23487315051E+03  0.00000000000E+00 0.  1.
         23    2    1    2    0    0  0.57387084750E+02  0.27389442391E+02 -0.58159183399E+02  0.12491926091E+03  0.90437116732E+02 0.  0.
         24    2    1    2    0    0  0.38554098760E+02 -0.85352729277E+02 -0.83384743535E+02  0.14816299916E+03  0.78916106977E+02 0.  0.
        -13    1    4    4    0    0  0.41311174771E+02 -0.38460166781E+02 -0.48482211193E+01  0.56650709067E+02  0.00000000000E+00 0.  1.
         14    1    4    4    0    0 -0.27570760102E+01 -0.46892562496E+02 -0.78536522415E+02  0.91512290096E+02  0.00000000000E+00 0. -1.
        -13    1    3    3    0    0 -0.16333250555E+02  0.31698031674E+02 -0.27189132877E+02  0.44841824588E+02  0.00000000000E+00 0.  1.
         13    1    3    3    0    0  0.73720335305E+02 -0.43085892836E+01 -0.30970050522E+02  0.80077436325E+02  0.00000000000E+00 0. -1.
          1    1    1    2  501    0 -0.95941183510E+02  0.57963286887E+02  0.86413340411E+02  0.14153345442E+03  0.00000000000E+00 0. -1.
<scales pt_clust_5="13000.00000" pt_clust_6="13000.00000" pt_clust_7="13000.00000" pt_clust_8="13000.00000" pt_clust_9="94.41446"></scales>
<clustering>
<clus scale="   78.916">  5  6 -1 -1</clus>
<clus scale="   90.437">  7  8 -1 -1</clus>
<clus scale="  110.555">  1  7  2 -1</clus>
<clus scale="   94.414">  2  9  1 -1</clus>
<clus scale="   94.414">  2  5  1 -1</clus>
</clustering>
</event>
<event>
 9    2  0.3764910E-005  0.1864267E+03  0.7546771E-02  0.1183508E+00
          2   -1    0    0  502    0 -0.00000000000E+00  0.00000000000E+00  0.16248461817E+04  0.16248461817E+04  0.00000000000E+00 0. -1.
         21   -1    0    0  501  502  0.00000000000E+00 -0.00000000000E+00 -0.57753133228E+02  0.57753133228E+02  0.00000000000E+00 0. -1.
         23    2    1    2    0    0  0.12966194339E+02 -0.64439211606E+02  0.13034269759E+03  0.17284809709E+03  0.92556532266E+02 0.  0.
         24    2    1    2    0    0 -0.16265797497E+03 -0.17325820390E+02  0.12215722391E+04  0.12351701379E+04  0.81539766340E+02 0.  0.
        -11    1    4    4    0    0 -0.23637430526E+02 -0.28989704272E+02  0.15184819037E+03  0.15638735241E+03  0.00000000000E+00 0.  1.
         12    1    4    4    0    0 -0.13902054445E+03  0.11663883881E+02  0.10697240487E+04  0.10787827855E+04  0.00000000000E+00 0. -1.
        -11    1    3    3    0    0  0.42870125075E+02 -0.11429393709E+02  0.88472003585E+02  0.98973602959E+02  0.00000000000E+00 0.  1.
         11    1    3    3    0    0 -0.29903930735E+02 -0.53009817897E+02  0.41870694009E+02  0.73874494135E+02  0.00000000000E+00 0. -1.
          1    1    1    2  501    0  0.14969178063E+03  0.81765031997E+02  0.21517811187E+03  0.27458107996E+03  0.00000000000E+00 0. -1.
<scales pt_clust_5="13000.00000" pt_clust_6="13000.00000" pt_clust_7="13000.00000" pt_clust_8="13000.00000" pt_clust_9="167.64903"></scales>
<clustering>
<clus scale="   81.540">  5  6 -1 -1</clus>
<clus scale="   92.557">  7  8 -1 -1</clus>
<clus scale="  113.522">  1  7  2 -1</clus>
<clus scale="  167.649">  2  9  1 -1</clus>
<clus scale="  167.649">  2  5  1 -1</clus>
</clustering>
</event>
<event>
 9    2  0.3764910E-005  0.1852364E+03  0.7546771E-02  0.1192592E+00
         21   -1    0    0  501  502  0.00000000000E+00  0.00000000000E+00  0.15622962455E+03  0.15622962455E+03  0.00000000000E+00 0. -1.
          2   -1    0    0  502    0 -0.00000000000E+00 -0.00000000000E+00 -0.91706317324E+03  0.91706317324E+03  0.00000000000E+00 0. -1.
         24    2    1    2    0    0 -0.41953366434E+02 -0.25885477873E+02 -0.71487989962E+03  0.72111413957E+03  0.80760067404E+02 0.  0.
         23    2    1    2    0    0 -0.29139749618E+02 -0.13800470110E+03 -0.40164628893E+02  0.17343936575E+03  0.92593701971E+02 0.  0.
        -13    1    3    3    0    0 -0.66507429952E+00  0.21029793217E+02 -0.66977544984E+02  0.70204601407E+02  0.00000000000E+00 0.  1.
         14    1    3    3    0    0 -0.41288292135E+02 -0.46915271091E+02 -0.64790235464E+03  0.65090953817E+03  0.00000000000E+00 0. -1.
        -13    1    4    4    0    0  0.25931562294E+02 -0.26953771203E+02  0.11524453552E+02  0.39137766093E+02  0.00000000000E+00 0.  1.
         13    1    4    4    0    0 -0.55071311913E+02 -0.11105092990E+03 -0.51689082445E+02  0.13430159966E+03  0.00000000000E+00 0. -1.
          1    1    1    2  501    0  0.71093116053E+02  0.16389017897E+03 -0.57890201763E+01  0.17873929246E+03  0.00000000000E+00 0. -1.
<scales pt_clust_5="13000.00000" pt_clust_6="13000.00000" pt_clust_7="13000.00000" pt_clust_8="13000.00000" pt_clust_9="160.43357"></scales>
<clustering>
<clus scale="   80.760">  5  6 -1 -1</clus>
<clus scale="   92.594">  7  8 -1 -1</clus>
<clus scale="   94.617">  2  5  1 -1</clus>
<clus scale="  160.434">  1  9  2 -1</clus>
<clus scale="  160.434">  1  5  2 -1</clus>
</clustering>
</event>
<event>
 9    2  0.3764910E-005  0.1690504E+03  0.7546771E-02  0.1181334E+00
          4   -1    0    0  502    0 -0.00000000000E+00  0.00000000000E+00  0.18588396238E+03  0.18588396238E+03  0.00000000000E+00 0. -1.
         21   -1    0    0  501  502  0.00000000000E+00 -0.00000000000E+00 -0.55523282886E+03  0.55523282886E+03  0.00000000000E+00 0.  1.
         24    2    1    2    0    0  0.10228852699E+03  0.10511297511E+03 -0.12228734935E+03  0.20657485620E+03  0.78786389121E+02 0.  0.
         23    2    1    2    0    0 -0.16095280222E+02 -0.14241700446E+03 -0.35302714376E+03  0.39294539405E+03  0.96105448694E+02 0.  0.
        -11    1    3    3    0    0  0.93454307629E+02  0.11133514248E+03 -0.12858301087E+03  0.19406909143E+03  0.00000000000E+00 0.  1.
         12    1    3    3    0    0  0.88342193603E+01 -0.62221673689E+01  0.62956615140E+01  0.12505764766E+02  0.00000000000E+00 0. -1.
        -13    1    4    4    0    0 -0.36280912438E+02 -0.10703763137E+02 -0.58315989663E+02  0.69509925931E+02  0.00000000000E+00 0.  1.
         13    1    4    4    0    0  0.20185632216E+02 -0.13171324132E+03 -0.29471115409E+03  0.32343546812E+03  0.00000000000E+00 0. -1.
          3    1    1    2  501    0 -0.86193246768E+02  0.37304029349E+02  0.10596562663E+03  0.14159654100E+03  0.00000000000E+00 0. -1.
<scales pt_clust_5="13000.00000" pt_clust_6="13000.00000" pt_clust_7="13000.00000" pt_clust_8="13000.00000" pt_clust_9="93.91951"></scales>
<clustering>
<clus scale="   78.786">  5  6 -1 -1</clus>
<clus scale="   93.920">  2  9  1 -1</clus>
<clus scale="   96.105">  7  8 -1 -1</clus>
<clus scale="  159.841">  1  5  2 -1</clus>
<clus scale="   93.920">  2  5  1 -1</clus>
</clustering>
</event>
<event>
 9    2  0.3764910E-005  0.1010656E+03  0.7546771E-02  0.1281304E+00
         21   -1    0    0  501  502  0.00000000000E+00  0.00000000000E+00  0.39170747081E+03  0.39170747081E+03  0.00000000000E+00 0.  1.
         -1   -1    0    0    0  501 -0.00000000000E+00 -0.00000000000E+00 -0.11412262304E+03  0.11412262304E+03  0.00000000000E+00 0.  1.
         24    2    1    2    0    0  0.41300051998E+02 -0.34922661137E+02 -0.62735866509E+02  0.11556906407E+03  0.80592388402E+02 0.  0.
         23    2    1    2    0    0 -0.97736379830E+01  0.42424289430E+02  0.75822526612E+02  0.12378498865E+03  0.87626043738E+02 0.  0.
        -13    1    3    3    0    0  0.90076360257E+01 -0.38814006657E+02 -0.71526423596E+02  0.81876088646E+02  0.00000000000E+00 0.  1.
         14    1    3    3    0    0  0.32292415973E+02  0.38913455196E+01  0.87905570872E+01  0.33692975428E+02  0.00000000000E+00 0. -1.
        -11    1    4    4    0    0 -0.45587863976E+02  0.41326824690E+02  0.41898008498E+02  0.74441943130E+02  0.00000000000E+00 0. -1.
         11    1    4    4    0    0  0.35814225993E+02  0.10974647399E+01  0.33924518114E+02  0.49343045524E+02  0.00000000000E+00 0.  1.
         -2    1    1    2    0  502 -0.31526414015E+02 -0.75016282925E+01  0.26449818768E+03  0.26647604112E+03  0.00000000000E+00 0.  1.
<scales pt_clust_5="13000.00000" pt_clust_6="13000.00000" pt_clust_7="13000.00000" pt_clust_8="13000.00000" pt_clust_9="32.40662"></scales>
<clustering>
<clus scale="   32.407">  1  9  2 -1</clus>
<clus scale="   80.592">  5  6 -1 -1</clus>
<clus scale="   87.626">  7  8 -1 -1</clus>
<clus scale="   95.032">  2  5  1 -1</clus>
<clus scale="   32.407">  1  5  2 -1</clus>
</clustering>
</event>
<event>
 9    2  0.3764910E-005  0.9385634E+02  0.7546771E-02  0.1299460E+00
         -1   -1    0    0    0  501 -0.00000000000E+00  0.00000000000E+00  0.16236053843E+03  0.16236053843E+03  0.00000000000E+00 0.  1.
         21   -1    0    0  501  502  0.00000000000E+00 -0.00000000000E+00 -0.98788506605E+02  0.98788506605E+02  0.00000000000E+00 0.  1.
         24    2    1    2    0    0  0.17741466433E+02 -0.10860687130E+01  0.63695969245E+02  0.10437147602E+03  0.80748308539E+02 0.  0.
         23    2    1    2    0    0 -0.46138398954E+02  0.22256407695E+02 -0.32311920658E+02  0.10891698718E+03  0.90524860329E+02 0.  0.
        -13    1    3    3    0    0 -0.91285329165E+00  0.27226095765E+02  0.64962089581E+02  0.70442648122E+02  0.00000000000E+00 0.  1.
         14    1    3    3    0    0  0.18654319724E+02 -0.28312164478E+02 -0.12661203362E+01  0.33928827897E+02  0.00000000000E+00 0. -1.
        -11    1    4    4    0    0 -0.23545884707E+02 -0.22245324706E+02 -0.46828875091E+02  0.56940378469E+02  0.00000000000E+00 0.  1.
         11    1    4    4    0    0 -0.22592514247E+02  0.44501732402E+02  0.14516954433E+02  0.51976608708E+02  0.00000000000E+00 0. -1.
         -2    1    1    2    0  502  0.28396932522E+02 -0.21170338982E+02  0.32187983242E+02  0.47860581844E+02  0.00000000000E+00 0.  1.
<scales pt_clust_5="13000.00000" pt_clust_6="13000.00000" pt_clust_7="13000.00000" pt_clust_8="13000.00000" pt_clust_9="35.41991"></scales>
<clustering>
<clus scale="   35.420">  2  9  1 -1</clus>
<clus scale="   80.748">  5  6 -1 -1</clus>
<clus scale="   84.466">  1  5  2 -1</clus>
<clus scale="   90.525">  7  8 -1 -1</clus>
<clus scale="   35.420">  2  5  1 -1</clus>
</clustering>
</event>
<event>
 9    2  0.3764910E-005  0.1646332E+03  0.7546771E-02  0.1185292E+00
         21   -1    0    0  501  502  0.00000000000E+00  0.00000000000E+00  0.10910603169E+03  0.10910603169E+03  0.00000000000E+00 0.  1.
          2   -1    0    0  502    0 -0.00000000000E+00 -0.00000000000E+00 -0.42795214901E+03  0.42795214901E+03  0.00000000000E+00 0. -1.
         23    2    1    2    0    0 -0.78558700814E+02  0.98503110931E+02 -0.19112067468E+03  0.24667975567E+03  0.91920929242E+02 0.  0.
         24    2    1    2    0    0  0.47561193481E+02 -0.16215766031E+03 -0.72654235882E+02  0.20068124039E+03  0.80231841112E+02 0.  0.
        -11    1    4    4    0    0  0.39678679685E+02 -0.11366482616E+03 -0.96378201144E+01  0.12077656190E+03  0.00000000000E+00 0.  1.
         12    1    4    4    0    0  0.78825137962E+01 -0.48492834150E+02 -0.63016415768E+02  0.79904678485E+02  0.00000000000E+00 0. -1.
        -13    1    3    3    0    0  0.12401844813E+02  0.19709800718E+02 -0.31675536377E+01  0.23501391345E+02  0.00000000000E+00 0. -1.
         13    1    3    3    0    0 -0.90960545627E+02  0.78793310213E+02 -0.18795312104E+03  0.22317836433E+03  0.00000000000E+00 0.  1.
          1    1    1    2  501    0  0.30997507332E+02  0.63654549383E+02 -0.55071206759E+02  0.89697184637E+02  0.00000000000E+00 0. -1.
<scales pt_clust_5="13000.00000" pt_clust_6="13000.00000" pt_clust_7="13000.00000" pt_clust_8="13000.00000" pt_clust_9="70.80079"></scales>
<clustering>
<clus scale="   70.801">  1  9  2 -1</clus>
<clus scale="   80.232">  5  6 -1 -1</clus>
<clus scale="   91.921">  7  8 -1 -1</clus>
<clus scale="  158.404">  1  5  2 -1</clus>
<clus scale="   70.801">  1  5  2 -1</clus>
</clustering>
</event>
<event>
 9    2  0.3764910E-005  0.1004931E+03  0.7546771E-02  0.1283039E+00
         21   -1    0    0  501  502  0.00000000000E+00  0.00000000000E+00  0.19240014041E+03  0.19240014041E+03  0.00000000000E+00 0.  1.
         -1   -1    0    0    0  501 -0.00000000000E+00 -0.00000000000E+00 -0.40842097228E+03  0.40842097228E+03  0.00000000000E+00 0.  1.
         23    2    1    2    0    0 -0.54505561478E+01  0.54875929239E+02 -0.33611424630E+03  0.35243672479E+03  0.90541605034E+02 0.  0.
         24    2    1    2    0    0 -0.20948679547E+02 -0.31354256334E+00 -0.26803893860E+02  0.89473114331E+02  0.82752909183E+02 0.  0.
        -11    1    4    4    0    0 -0.28614960781E+02  0.24447800291E+02  0.14810709062E+02  0.40445865333E+02  0.00000000000E+00 0.  1.
         12    1    4    4    0    0  0.76662812348E+01 -0.24761342855E+02 -0.41614602922E+02  0.49027248998E+02  0.00000000000E+00 0. -1.
        -13    1    3    3    0    0  0.33051358336E+02 -0.33593398839E+01 -0.72746588616E+02  0.79973393123E+02  0.00000000000E+00 0. -1.
         13    1    3    3    0    0 -0.38501914484E+02  0.58235269123E+02 -0.26336765769E+03  0.27246333167E+03  0.00000000000E+00 0.  1.
         -2    1    1    2    0  502  0.26399235694E+02 -0.54562386675E+02  0.14689730829E+03  0.15891127357E+03  0.00000000000E+00 0.  1.
<scales pt_clust_5="13000.00000" pt_clust_6="13000.00000" pt_clust_7="13000.00000" pt_clust_8="13000.00000" pt_clust_9="60.61331"></scales>
<clustering>
<clus scale="   60.613">  1  9  2 -1</clus>
<clus scale="   82.753">  5  6 -1 -1</clus>
<clus scale="   90.542">  7  8 -1 -1</clus>
<clus scale="   93.537">  1  5  2 -1</clus>
<clus scale="   60.613">  1  5  2 -1</clus>
</clustering>
</event>
<event>
 9    2  0.3764910E-005  0.9279080E+02  0.7546771E-02  0.1302192E+00
         21   -1    0    0  501  502  0.00000000000E+00  0.00000000000E+00  0.25119847875E+03  0.25119847875E+03  0.00000000000E+00 0. -1.
         -1   -1    0    0    0  501 -0.00000000000E+00 -0.00000000000E+00 -0.69994161409E+02  0.69994161409E+02  0.00000000000E+00 0.  1.
         23    2    1    2    0    0  0.17203275188E+02 -0.41881484010E+01 -0.32640892800E+01  0.92896576278E+02  0.91135209119E+02 0.  0.
         24    2    1    2    0    0 -0.19046222204E+01  0.34405591463E+02  0.16982499912E+03  0.19139657837E+03  0.81269598105E+02 0.  0.
        -13    1    4    4    0    0 -0.20128481688E+02 -0.10695737305E+01  0.36273639596E+01  0.20480662399E+02  0.00000000000E+00 0.  1.
         14    1    4    4    0    0  0.18223859467E+02  0.35475165193E+02  0.16619763516E+03  0.17091591597E+03  0.00000000000E+00 0. -1.
        -13    1    3    3    0    0 -0.12215971813E+02 -0.40435945923E+02  0.11772501175E+02  0.43850740860E+02  0.00000000000E+00 0.  1.
         13    1    3    3    0    0  0.29419247001E+02  0.36247797522E+02 -0.15036590455E+02  0.49045835418E+02  0.00000000000E+00 0. -1.
         -2    1    1    2    0  502 -0.15298652967E+02 -0.30217443062E+02  0.14643407502E+02  0.36899485513E+02  0.00000000000E+00 0.  1.
<scales pt_clust_5="13000.00000" pt_clust_6="13000.00000" pt_clust_7="13000.00000" pt_clust_8="13000.00000" pt_clust_9="33.86951"></scales>
<clustering>
<clus scale="   33.870">  1  9  2 -1</clus>
<clus scale="   81.270">  5  6 -1 -1</clus>
<clus scale="   83.122">  1  5  2 -1</clus>
<clus scale="   91.135">  7  8 -1 -1</clus>
<clus scale="   33.870">  1  5  2 -1</clus>
</clustering>
</event>
<event>
 9    2  0.3764910E-005  0.1524725E+03  0.7546771E-02  0.1198774E+00
         -1   -1    0    0    0  501 -0.00000000000E+00  0.00000000000E+00  0.31231222642E+03  0.31231222642E+03  0.00000000000E+00 0.  1.
         21   -1    0    0  501  502  0.00000000000E+00 -0.00000000000E+00 -0.16231883024E+03  0.16231883024E+03  0.00000000000E+00 0. -1.
         23    2    1    2    0    0 -0.24171703741E+02 -0.13312828892E+03  0.17934736652E+03  0.24245518772E+03  0.91168128212E+02 0.  0.
         24    2    1    2    0    0  0.89127735093E+01  0.10333195237E+03  0.52832364886E+02  0.14343326180E+03  0.83814747508E+02 0.  0.
        -11    1    4    4    0    0 -0.65910989637E+01  0.11384723824E+03  0.49876489818E+02  0.12446807011E+03  0.00000000000E+00 0.  1.
         12    1    4    4    0    0  0.15503872473E+02 -0.10515285869E+02  0.29558750680E+01  0.18965191694E+02  0.00000000000E+00 0. -1.
        -13    1    3    3    0    0 -0.36572074974E+02 -0.85271287310E+01  0.48612723168E+02  0.61428213763E+02  0.00000000000E+00 0.  1.
         13    1    3    3    0    0  0.12400371232E+02 -0.12460116019E+03  0.13073464335E+03  0.18102697396E+03  0.00000000000E+00 0. -1.
         -2    1    1    2    0  502  0.15258930232E+02  0.29796336556E+02 -0.82186335221E+02  0.88742607134E+02  0.00000000000E+00 0.  1.
<scales pt_clust_5="13000.00000" pt_clust_6="13000.00000" pt_clust_7="13000.00000" pt_clust_8="13000.00000" pt_clust_9="33.47621"></scales>
<clustering>
<clus scale="   33.476">  2  9  1 -1</clus>
<clus scale="   83.815">  5  6 -1 -1</clus>
<clus scale="   91.168">  7  8 -1 -1</clus>
<clus scale="  148.193">  2  5  1 -1</clus>
<clus scale="   33.476">  2  5  1 -1</clus>
</clustering>
</event>
<event>
 9    2  0.3764910E-005  0.1019658E+03  0.7546771E-02  0.1278205E+00
          2   -1    0    0  502    0 -0.00000000000E+00  0.00000000000E+00  0.21070599219E+03  0.21070599219E+03  0.00000000000E+00 0. -1.
         21   -1    0    0  501  502  0.00000000000E+00 -0.00000000000E+00 -0.75976504879E+02  0.75976504879E+02  0.00000000000E+00 0. -1.
         23    2    1    2    0    0 -0.43494729341E+02  0.29052420319E+02  0.10750079913E+03  0.14854757637E+03  0.88171004436E+02 0.  0.
         24    2    1    2    0    0  0.19925636383E+02 -0.52238709920E+02  0.10956675211E+02  0.10128543530E+03  0.83742324262E+02 0.  0.
        -13    1    4    4    0    0 -0.19083337794E+02 -0.51083225746E+02  0.24761191335E+02  0.59889784858E+02  0.00000000000E+00 0.  1.
         14    1    4    4    0    0  0.39008974178E+02 -0.11554841740E+01 -0.13804516124E+02  0.41395650442E+02  0.00000000000E+00 0. -1.
        -13    1    3    3    0    0 -0.66654091241E+02  0.35775508269E+02  0.65259561190E+02  0.99907283006E+02  0.00000000000E+00 0. -1.
         13    1    3    3    0    0  0.23159361900E+02 -0.67230879493E+01  0.42241237943E+02  0.48640293360E+02  0.00000000000E+00 0.  1.
          1    1    1    2  501    0  0.23569092958E+02  0.23186289601E+02  0.16272012962E+02  0.36849485398E+02  0.00000000000E+00 0. -1.
<scales pt_clust_5="13000.00000" pt_clust_6="13000.00000" pt_clust_7="13000.00000" pt_clust_8="13000.00000" pt_clust_9="33.06216"></scales>
<clustering>
<clus scale="   33.062">  2  9  1 -1</clus>
<clus scale="   83.742">  5  6 -1 -1</clus>
<clus scale="   88.171">  7  8 -1 -1</clus>
<clus scale="   98.161">  2  5  1 -1</clus>
<clus scale="   33.062">  2  5  1 -1</clus>
</clustering>
</event>
<event>
 9    2  0.3764910E-005  0.1528116E+03  0.7546771E-02  0.1208863E+00
         21   -1    0    0  501  502  0.00000000000E+00  0.00000000000E+00  0.21691490909E+03  0.21691490909E+03  0.00000000000E+00 0. -1.
          2   -1    0    0  502    0 -0.00000000000E+00 -0.00000000000E+00 -0.41694577079E+03  0.41694577079E+03  0.00000000000E+00 0. -1.
         23    2    1    2    0    0 -0.66844980422E+02 -0.30899511004E+02  0.13692152317E+03  0.18101983439E+03  0.92723490796E+02 0.  0.
         24    2    1    2    0    0 -0.10037352524E+03 -0.30927618960E-01 -0.12729932060E+03  0.18289061299E+03  0.84670028770E+02 0.  0.
        -13    1    4    4    0    0 -0.21324155223E+02 -0.37860609303E+02 -0.37197873507E+02  0.57199887467E+02  0.00000000000E+00 0.  1.
         14    1    4    4    0    0 -0.79049370012E+02  0.37829681684E+02 -0.90101447092E+02  0.12569072553E+03  0.00000000000E+00 0. -1.
        -13    1    3    3    0    0 -0.39248436239E+02 -0.54852606946E+02  0.42368810347E+02  0.79651518041E+02  0.00000000000E+00 0.  1.
         13    1    3    3    0    0 -0.27596544183E+02  0.23953095942E+02  0.94552712825E+02  0.10136831634E+03  0.00000000000E+00 0. -1.
          1    1    1    2  501    0  0.16721850566E+03  0.30930438623E+02 -0.20965306427E+03  0.26995023250E+03  0.00000000000E+00 0. -1.
<scales pt_clust_5="13000.00000" pt_clust_6="13000.00000" pt_clust_7="13000.00000" pt_clust_8="13000.00000" pt_clust_9="127.21000"></scales>
<clustering>
<clus scale="   84.670">  5  6 -1 -1</clus>
<clus scale="   92.723">  7  8 -1 -1</clus>
<clus scale="  118.409">  2  7  1 -1</clus>
<clus scale="  127.210">  1  9  2 -1</clus>
<clus scale="  127.210">  1  5  2 -1</clus>
</clustering>
</event>
<event>
 9    2  0.3764910E-005  0.1744926E+03  0.7546771E-02  0.1195811E+00
         21   -1    0    0  501  502  0.00000000000E+00  0.00000000000E+00  0.54179619110E+02  0.54179619110E+02  0.00000000000E+00 0.  1.
          2   -1    0    0  502    0 -0.00000000000E+00 -0.00000000000E+00 -0.88182875453E+03  0.88182875453E+03  0.00000000000E+00 0. -1.
         23    2    1    2    0    0  0.31104691638E+02 -0.11700539507E+02 -0.19272347388E+03  0.21969849745E+03  0.10010338621E+03 0.  0.
         24    2    1    2    0    0 -0.23932530167E+02  0.16015158305E+03 -0.30941555031E+03  0.35847473993E+03  0.80900314208E+02 0.  0.
        -13    1    4    4    0    0 -0.30299616615E+02  0.12807820108E+02 -0.68754996032E+02  0.76219134752E+02  0.00000000000E+00 0.  1.
         14    1    4    4    0    0  0.63670864486E+01  0.14734376294E+03 -0.24066055428E+03  0.28225560518E+03  0.00000000000E+00 0. -1.
        -13    1    3    3    0    0  0.24140643778E+02  0.26858333499E+02 -0.17125234973E+03  0.17501859344E+03  0.00000000000E+00 0.  1.
         13    1    3    3    0    0  0.69640478604E+01 -0.38558873006E+02 -0.21471124141E+02  0.44679904006E+02  0.00000000000E+00 0. -1.
          1    1    1    2  501    0 -0.71721614714E+01 -0.14845104355E+03 -0.32551011124E+03  0.35783513627E+03  0.00000000000E+00 0. -1.
<scales pt_clust_5="13000.00000" pt_clust_6="13000.00000" pt_clust_7="13000.00000" pt_clust_8="13000.00000" pt_clust_9="154.60535"></scales>
<clustering>
<clus scale="   80.900">  5  6 -1 -1</clus>
<clus scale="  100.103">  7  8 -1 -1</clus>
<clus scale="  105.476">  2  7  1 -1</clus>
<clus scale="  154.605">  1  9  2 -1</clus>
<clus scale="  154.605">  1  5  2 -1</clus>
</clustering>
</event>
<event>
 9    2  0.3764910E-005  0.9355947E+02  0.7546771E-02  0.1300402E+00
         21   -1    0    0  501  502  0.00000000000E+00  0.00000000000E+00  0.91366331097E+02  0.91366331097E+02  0.00000000000E+00 0.  1.
         -3   -1    0    0    0  501 -0.00000000000E+00 -0.00000000000E+00 -0.26823460695E+03  0.26823460695E+03  0.00000000000E+00 0.  1.
         23    2    1    2    0    0 -0.44532687617E+01  0.11185363304E+02 -0.12402287519E+03  0.15499195250E+03  0.92173140423E+02 0.  0.
         24    2    1    2    0    0 -0.38653527696E+02  0.41300797420E+02 -0.83449599063E+02  0.13011328145E+03  0.82254357671E+02 0.  0.
        -11    1    4    4    0    0 -0.47754703134E+02  0.32274019916E+02 -0.13763991060E+02  0.59258514012E+02  0.00000000000E+00 0.  1.
         12    1    4    4    0    0  0.91011754379E+01  0.90267775038E+01 -0.69685608003E+02  0.70854767442E+02  0.00000000000E+00 0. -1.
        -13    1    3    3    0    0 -0.26852786880E+02 -0.29965088459E+02 -0.84905350162E+02  0.93956889985E+02  0.00000000000E+00 0.  1.
         13    1    3    3    0    0  0.22399518118E+02  0.41150451763E+02 -0.39117525026E+02  0.61035062516E+02  0.00000000000E+00 0. -1.
         -4    1    1    2    0  502  0.43106796458E+02 -0.52486160724E+02  0.30604198399E+02  0.74495704091E+02  0.00000000000E+00 0.  1.
<scales pt_clust_5="13000.00000" pt_clust_6="13000.00000" pt_clust_7="13000.00000" pt_clust_8="13000.00000" pt_clust_9="67.91902"></scales>
<clustering>
<clus scale="   67.919">  1  9  2 -1</clus>
<clus scale="   82.254">  5  6 -1 -1</clus>
<clus scale="   83.805">  1  5  2 -1</clus>
<clus scale="   92.173">  7  8 -1 -1</clus>
<clus scale="   67.919">  1  5  2 -1</clus>
</clustering>
</event>
<event>
 9    2  0.3764910E-005  0.1123530E+03  0.7546771E-02  0.1263278E+00
         21   -1    0    0  501  502  0.00000000000E+00  0.00000000000E+00  0.15053561696E+03  0.15053561696E+03  0.00000000000E+00 0. -1.
         -3   -1    0    0    0  501 -0.00000000000E+00 -0.00000000000E+00 -0.21783332750E+03  0.21783332750E+03  0.00000000000E+00 0.  1.
         23    2    1    2    0    0 -0.58959739757E+02  0.13811761381E+02 -0.17739272118E+03  0.21075402456E+03  0.96343477589E+02 0.  0.
         24    2    1    2    0    0  0.40332912889E+02  0.16864794917E+00  0.94334021474E+02  0.12949341028E+03  0.79011792761E+02 0.  0.
        -13    1    4    4    0    0 -0.66950438312E+01  0.22794357256E+02  0.25286458394E+01  0.23891429099E+02  0.00000000000E+00 0.  1.
         14    1    4    4    0    0  0.47027956720E+02 -0.22625709306E+02  0.91805375635E+02  0.10560198119E+03  0.00000000000E+00 0. -1.
        -13    1    3    3    0    0 -0.81742119199E+02 -0.59006901998E+01 -0.14469984398E+03  0.16629683413E+03  0.00000000000E+00 0.  1.
         13    1    3    3    0    0  0.22782379442E+02  0.19712451581E+02 -0.32692877205E+02  0.44457190423E+02  0.00000000000E+00 0. -1.
         -4    1    1    2    0  502  0.18626826868E+02 -0.13980409330E+02  0.15760989167E+02  0.28121509627E+02  0.00000000000E+00 0.  1.
<scales pt_clust_5="13000.00000" pt_clust_6="13000.00000" pt_clust_7="13000.00000" pt_clust_8="13000.00000" pt_clust_9="23.28971"></scales>
<clustering>
<clus scale="   23.290">  1  9  2 -1</clus>
<clus scale="   79.012">  5  6 -1 -1</clus>
<clus scale="   96.343">  7  8 -1 -1</clus>
<clus scale="   97.898">  1  5  2 -1</clus>
<clus scale="   23.290">  1  5  2 -1</clus>
</clustering>
</event>
<event>
 9    2  0.3764910E-005  0.9687017E+02  0.7546771E-02  0.1292352E+00
          2   -1    0    0  502    0 -0.00000000000E+00  0.00000000000E+00  0.42212964797E+03  0.42212964797E+03  0.00000000000E+00 0. -1.
         21   -1    0    0  501  502  0.00000000000E+00 -0.00000000000E+00 -0.82419419739E+02  0.82419419739E+02  0.00000000000E+00 0.  1.
         23    2    1    2    0    0 -0.20837623805E+02 -0.83761714833E+01  0.27297387728E+03  0.28834853396E+03  0.90143067076E+02 0.  0.
         24    2    1    2    0    0  0.67442464173E+02  0.48490473077E+02  0.94066267175E+02  0.14890942989E+03  0.80160736886E+02 0.  0.
        -13    1    4    4    0    0  0.67912160114E+02  0.63374759025E+02  0.57049429978E+02  0.10900944470E+03  0.00000000000E+00 0.  1.
         14    1    4    4    0    0 -0.46969594074E+00 -0.14884285948E+02  0.37016837198E+02  0.39899985195E+02  0.00000000000E+00 0. -1.
        -13    1    3    3    0    0  0.28797086318E+02 -0.17473941022E+02  0.54070537670E+02  0.63704268610E+02  0.00000000000E+00 0. -1.
         13    1    3    3    0    0 -0.49634710123E+02  0.90977695388E+01  0.21890333961E+03  0.22464426535E+03  0.00000000000E+00 0.  1.
          1    1    1    2  501    0 -0.46604840368E+02 -0.40114301594E+02 -0.27329916224E+02  0.67291103861E+02  0.00000000000E+00 0. -1.
<scales pt_clust_5="13000.00000" pt_clust_6="13000.00000" pt_clust_7="13000.00000" pt_clust_8="13000.00000" pt_clust_9="61.49121"></scales>
<clustering>
<clus scale="   61.491">  2  9  1 -1</clus>
<clus scale="   80.161">  5  6 -1 -1</clus>
<clus scale="   87.657">  2  5  1 -1</clus>
<clus scale="   90.143">  7  8 -1 -1</clus>
<clus scale="   61.491">  2  5  1 -1</clus>
</clustering>
</event>
<event>
 9    2  0.3764910E-005  0.9935468E+02  0.7546771E-02  0.1289009E+00
         21   -1    0    0  501  502  0.00000000000E+00  0.00000000000E+00  0.27877632141E+02  0.27877632141E+02  0.00000000000E+00 0. -1.
         -1   -1    0    0    0  501 -0.00000000000E+00 -0.00000000000E+00 -0.64424354410E+03  0.64424354410E+03  0.00000000000E+00 0.  1.
         24    2    1    2    0    0  0.30381031195E+02  0.36227379042E+02 -0.34938348568E+03  0.36070547189E+03  0.76185217299E+02 0.  0.
         23    2    1    2    0    0 -0.95499182139E+01 -0.32143508669E+02 -0.27282250688E+03  0.28939935119E+03  0.90528769575E+02 0.  0.
        -11    1    3    3    0    0  0.50258939971E+02  0.43494843790E+02 -0.29390561288E+03  0.30132751578E+03  0.00000000000E+00 0.  1.
         12    1    3    3    0    0 -0.19877908776E+02 -0.72674647484E+01 -0.55477872799E+02  0.59377956108E+02  0.00000000000E+00 0. -1.
        -13    1    4    4    0    0 -0.30768448504E+02  0.22308493735E+02 -0.10130797698E+03  0.10820199867E+03  0.00000000000E+00 0. -1.
         13    1    4    4    0    0  0.21218530290E+02 -0.54452002405E+02 -0.17151452990E+03  0.18119735252E+03  0.00000000000E+00 0.  1.
         -2    1    1    2    0  502 -0.20831112981E+02 -0.40838703722E+01  0.58400806015E+01  0.22016353165E+02  0.00000000000E+00 0.  1.
<scales pt_clust_5="13000.00000" pt_clust_6="13000.00000" pt_clust_7="13000.00000" pt_clust_8="13000.00000" pt_clust_9="21.22765"></scales>
<clustering>
<clus scale="   21.228">  1  9  2 -1</clus>
<clus scale="   76.185">  5  6 -1 -1</clus>
<clus scale="   86.487">  2  5  1 -1</clus>
<clus scale="   90.529">  7  8 -1 -1</clus>
<clus scale="   21.228">  1  5  2 -1</clus>
</clustering>
</event>
<event>
 9    2  0.3764910E-005  0.1723136E+03  0.7546771E-02  0.1178929E+00
          2   -1    0    0  502    0 -0.00000000000E+00  0.00000000000E+00  0.14606753769E+04  0.14606753769E+04  0.00000000000E+00 0. -1.
         21   -1    0    0  501  502  0.00000000000E+00 -0.00000000000E+00 -0.59586942950E+02  0.59586942950E+02  0.00000000000E+00 0. -1.
         24    2    1    2    0    0  0.47870077366E+00 -0.14814685784E+03  0.11686065238E+04  0.11807129128E+04  0.80585695114E+02 0.  0.
         23    2    1    2    0    0 -0.63286659234E+02  0.69591322420E+02  0.95579433883E+02  0.16967268768E+03  0.10394825333E+03 0.  0.
        -11    1    3    3    0    0 -0.25437627558E+02 -0.58582911722E+02  0.27814788714E+03  0.28538619021E+03  0.00000000000E+00 0.  1.
         12    1    3    3    0    0  0.25916328332E+02 -0.89563946119E+02  0.89045863665E+03  0.89532672254E+03  0.00000000000E+00 0. -1.
        -11    1    4    4    0    0  0.25442508901E+02  0.33248706288E+02  0.44240505540E+02  0.60909933996E+02  0.00000000000E+00 0.  1.
         11    1    4    4    0    0 -0.88729168135E+02  0.36342616132E+02  0.51338928343E+02  0.10876275368E+03  0.00000000000E+00 0. -1.
          1    1    1    2  501    0  0.62807958460E+02  0.78555535421E+02  0.13690247631E+03  0.16987671945E+03  0.00000000000E+00 0. -1.
<scales pt_clust_5="13000.00000" pt_clust_6="13000.00000" pt_clust_7="13000.00000" pt_clust_8="13000.00000" pt_clust_9="100.57739"></scales>
<clustering>
<clus scale="   80.586">  5  6 -1 -1</clus>
<clus scale="  100.577">  2  9  1 -1</clus>
<clus scale="  103.948">  7  8 -1 -1</clus>
<clus scale="  159.314">  1  5  2 -1</clus>
<clus scale="  100.577">  2  5  1 -1</clus>
</clustering>
</event>
<event>
 9    2  0.3764910E-005  0.1512716E+03  0.7546771E-02  0.1215286E+00
         -1   -1    0    0    0  501 -0.00000000000E+00  0.00000000000E+00  0.63555609270E+02  0.63555609270E+02  0.00000000000E+00 0.  1.
         21   -1    0    0  501  502  0.00000000000E+00 -0.00000000000E+00 -0.11610991761E+04  0.11610991761E+04  0.00000000000E+00 0.  1.
         23    2    1    2    0    0 -0.53843208408E+02  0.89375780065E+01 -0.28470180361E+02  0.11020897261E+03  0.91413867014E+02 0.  0.
         24    2    1    2    0    0  0.14128944940E+02  0.11869153378E+03 -0.28812414182E+03  0.32214023053E+03  0.80445632275E+02 0.  0.
        -11    1    4    4    0    0  0.23623824882E+02  0.12609834821E+03 -0.23572368631E+03  0.26837387132E+03  0.00000000000E+00 0.  1.
         12    1    4    4    0    0 -0.94948799418E+01 -0.74068144217E+01 -0.52400455512E+02  0.53766359212E+02  0.00000000000E+00 0. -1.
        -13    1    3    3    0    0 -0.13657599259E+02 -0.38477281964E+02  0.22234198602E+01  0.40889788954E+02  0.00000000000E+00 0. -1.
         13    1    3    3    0    0 -0.40185609149E+02  0.47414859970E+02 -0.30693600222E+02  0.69319183660E+02  0.00000000000E+00 0.  1.
         -2    1    1    2    0  502  0.39714263468E+02 -0.12762911179E+03 -0.78094924462E+03  0.79230558220E+03  0.00000000000E+00 0.  1.
<scales pt_clust_5="13000.00000" pt_clust_6="13000.00000" pt_clust_7="13000.00000" pt_clust_8="13000.00000" pt_clust_9="128.10777"></scales>
<clustering>
<clus scale="   80.446">  5  6 -1 -1</clus>
<clus scale="   91.414">  7  8 -1 -1</clus>
<clus scale="  106.468">  1  7  2 -1</clus>
<clus scale="  128.108">  2  9  1 -1</clus>
<clus scale="  128.108">  2  5  1 -1</clus>
</clustering>
</event>
<event>
 9    2  0.3764910E-005  0.1064183E+03  0.7546771E-02  0.1271924E+00
          2   -1    0    0  502    0 -0.00000000000E+00  0.00000000000E+00  0.47262222873E+03  0.47262222873E+03  0.00000000000E+00 0. -1.
         21   -1    0    0  501  502  0.00000000000E+00 -0.00000000000E+00 -0.69578141595E+02  0.69578141595E+02  0.00000000000E+00 0.  1.
         23    2    1    2    0    0 -0.49928090903E+02  0.51086030916E+02  0.31176679026E+03  0.33249831829E+03  0.90851545594E+02 0.  0.
         24    2    1    2    0    0  0.24049126113E+02  0.34423827711E+02  0.13887955420E+02  0.91504053277E+02  0.80104657039E+02 0.  0.
        -13    1    4    4    0    0  0.96653996146E+01  0.26725916919E+02 -0.32002408176E+02  0.42800101799E+02  0.00000000000E+00 0.  1.
         14    1    4    4    0    0  0.14383726498E+02  0.76979107917E+01  0.45890363597E+02  0.48703951478E+02  0.00000000000E+00 0. -1.
        -11    1    3    3    0    0 -0.52737260002E+02  0.74690581288E+02  0.25759060266E+03  0.27333645952E+03  0.00000000000E+00 0. -1.
         11    1    3    3    0    0  0.28091690987E+01 -0.23604550372E+02  0.54176187605E+02  0.59161858766E+02  0.00000000000E+00 0.  1.
          1    1    1    2  501    0  0.25878964790E+02 -0.85509858628E+02  0.77389341456E+02  0.11819799877E+03  0.00000000000E+00 0. -1.
<scales pt_clust_5="13000.00000" pt_clust_6="13000.00000" pt_clust_7="13000.00000" pt_clust_8="13000.00000" pt_clust_9="89.34012"></scales>
<clustering>
<clus scale="   80.105">  5  6 -1 -1</clus>
<clus scale="   89.340">  2  9  1 -1</clus>
<clus scale="   90.852">  7  8 -1 -1</clus>
<clus scale="   97.404">  2  5  1 -1</clus>
<clus scale="   89.340">  2  5  1 -1</clus>
</clustering>
</event>
<event>
 9    2  0.3764910E-005  0.1043665E+03  0.7546771E-02  0.1277448E+00
         -1   -1    0    0    0  501 -0.00000000000E+00  0.00000000000E+00  0.49357307410E+02  0.49357307410E+02  0.00000000000E+00 0.  1.
         21   -1    0    0  501  502  0.00000000000E+00 -0.00000000000E+00 -0.38844147322E+03  0.38844147322E+03  0.00000000000E+00 0.  1.
         24    2    1    2    0    0 -0.25900900250E+01  0.60549489527E+02 -0.50271497975E+02  0.10973006404E+03  0.76423256907E+02 0.  0.
         23    2    1    2    0    0 -0.16446244732E+02 -0.39203744108E+02 -0.11586435230E+03  0.15277141846E+03  0.90039689279E+02 0.  0.
        -13    1    3    3    0    0 -0.21982763392E+02  0.66923112426E+02 -0.54278252053E+02  0.88927349612E+02  0.00000000000E+00 0.  1.
         14    1    3    3    0    0  0.19392673367E+02 -0.63736228985E+01  0.40067540780E+01  0.20802714424E+02  0.00000000000E+00 0. -1.
        -13    1    4    4    0    0 -0.35071644958E+02 -0.48864488560E+02 -0.35783003579E+02  0.69987012134E+02  0.00000000000E+00 0. -1.
         13    1    4    4    0    0  0.18625400226E+02  0.96607444528E+01 -0.80081348725E+02  0.82784406325E+02  0.00000000000E+00 0.  1.
         -2    1    1    2    0  502  0.19036334757E+02 -0.21345745419E+02 -0.17294831553E+03  0.17529729813E+03  0.00000000000E+00 0.  1.
<scales pt_clust_5="13000.00000" pt_clust_6="13000.00000" pt_clust_7="13000.00000" pt_clust_8="13000.00000" pt_clust_9="28.60110"></scales>
<clustering>
<clus scale="   28.601">  2  9  1 -1</clus>
<clus scale="   76.423">  5  6 -1 -1</clus>
<clus scale="   90.040">  7  8 -1 -1</clus>
<clus scale="   92.875">  1  5  2 -1</clus>
<clus scale="   28.601">  2  5  1 -1</clus>
</clustering>
</event>
<event>
 9    2  0.3764910E-005  0.1280955E+03  0.7546771E-02  0.1233235E+00
         21   -1    0    0  501  502  0.00000000000E+00  0.00000000000E+00  0.41232294958E+03  0.41232294958E+03  0.00000000000E+00 0. -1.
         -1   -1    0    0    0  501 -0.00000000000E+00 -0.00000000000E+00 -0.10988246552E+03  0.10988246552E+03  0.00000000000E+00 0.  1.
         23    2    1    2    0    0  0.41642296106E+02 -0.69101830629E+02 -0.25808153344E+02  0.12458493693E+03  0.91357549820E+02 0.  0.
         24    2    1    2    0    0 -0.32803053668E+02  0.13028622921E+03  0.19043013445E+03  0.24657213295E+03  0.80521045631E+02 0.  0.
        -11    1    4    4    0    0 -0.37813774331E+02  0.21612107693E+02  0.30592510383E+02  0.53224678671E+02  0.00000000000E+00 0.  1.
         12    1    4    4    0    0  0.50107206632E+01  0.10867412152E+03  0.15983762407E+03  0.19334745428E+03  0.00000000000E+00 0. -1.
        -11    1    3    3    0    0  0.21752345468E+02 -0.87978362612E+02 -0.32638522979E+02  0.96325645617E+02  0.00000000000E+00 0.  1.
         11    1    3    3    0    0  0.19889950638E+02  0.18876531983E+02  0.68303696348E+01  0.28259291312E+02  0.00000000000E+00 0. -1.
         -2    1    1    2    0  502 -0.88392424383E+01 -0.61184398580E+02  0.13781850296E+03  0.15104834522E+03  0.00000000000E+00 0.  1.
<scales pt_clust_5="13000.00000" pt_clust_6="13000.00000" pt_clust_7="13000.00000" pt_clust_8="13000.00000" pt_clust_9="61.81960"></scales>
<clustering>
<clus scale="   61.820">  1  9  2 -1</clus>
<clus scale="   80.521">  5  6 -1 -1</clus>
<clus scale="   91.358">  7  8 -1 -1</clus>
<clus scale="  120.606">  1  5  2 -1</clus>
<clus scale="   61.820">  1  5  2 -1</clus>
</clustering>
</event>
<event>
 9    2  0.3764910E-005  0.1454725E+03  0.7546771E-02  0.1206556E+00
         21   -1    0    0  501  502  0.00000000000E+00  0.00000000000E+00  0.61980024487E+02  0.61980024487E+02  0.00000000000E+00 0. -1.
          2   -1    0    0  502    0 -0.00000000000E+00 -0.00000000000E+00 -0.73374136316E+03  0.73374136316E+03  0.00000000000E+00 0. -1.
         23    2    1    2    0    0  0.47893870867E+02  0.11027580286E+03 -0.45139843861E+03  0.47623079805E+03  0.92631782183E+02 0.  0.
         24    2    1    2    0    0 -0.59821614819E+02 -0.62618910363E+02 -0.38537912063E+02  0.13114575495E+03  0.90632691894E+02 0.  0.
        -13    1    4    4    0    0 -0.58742196955E+02 -0.84356803479E+02 -0.26014388039E+02  0.10603520350E+03  0.00000000000E+00 0.  1.
         14    1    4    4    0    0 -0.10794178643E+01  0.21737893116E+02 -0.12523524024E+02  0.25110551448E+02  0.00000000000E+00 0. -1.
        -11    1    3    3    0    0  0.51198061714E+02  0.48802997522E+02 -0.35408024356E+03  0.36107588257E+03  0.00000000000E+00 0. -1.
         11    1    3    3    0    0 -0.33041908470E+01  0.61472805334E+02 -0.97318195050E+02  0.11515491549E+03  0.00000000000E+00 0.  1.
          1    1    1    2  501    0  0.11927743952E+02 -0.47656892494E+02 -0.18182498800E+03  0.18834483465E+03  0.00000000000E+00 0. -1.
<scales pt_clust_5="13000.00000" pt_clust_6="13000.00000" pt_clust_7="13000.00000" pt_clust_8="13000.00000" pt_clust_9="49.12691"></scales>
<clustering>
<clus scale="   49.127">  1  9  2 -1</clus>
<clus scale="   90.633">  5  6 -1 -1</clus>
<clus scale="   92.632">  7  8 -1 -1</clus>
<clus scale="  144.208">  1  5  2 -1</clus>
<clus scale="   49.127">  1  5  2 -1</clus>
</clustering>
</event>
<event>
 9    2  0.3764910E-005  0.1793634E+03  0.7546771E-02  0.1204833E+00
         21   -1    0    0  501  502  0.00000000000E+00  0.00000000000E+00  0.69934216168E+02  0.69934216168E+02  0.00000000000E+00 0.  1.
         -3   -1    0    0    0  501 -0.00000000000E+00 -0.00000000000E+00 -0.74213240022E+03  0.74213240022E+03  0.00000000000E+00 0.  1.
         24    2    1    2    0    0 -0.31207593408E+01  0.20310147014E+02 -0.17473045602E+03  0.19210737246E+03  0.77150949984E+02 0.  0.
         23    2    1    2    0    0  0.11919434435E+03  0.93198537406E+02 -0.13319159109E+03  0.22114299234E+03  0.90944840570E+02 0.  0.
        -11    1    3    3    0    0  0.22712204174E+02 -0.19953138793E+02 -0.88148391804E+02  0.93188577324E+02  0.00000000000E+00 0.  1.
         12    1    3    3    0    0 -0.25832963515E+02  0.40263285807E+02 -0.86582064214E+02  0.98918795138E+02  0.00000000000E+00 0. -1.
        -13    1    4    4    0    0  0.82465845890E+02  0.35489416064E+02 -0.12254713805E+03  0.15191417128E+03  0.00000000000E+00 0. -1.
         13    1    4    4    0    0  0.36728498464E+02  0.57709121342E+02 -0.10644453033E+02  0.69228821064E+02  0.00000000000E+00 0.  1.
         -4    1    1    2    0  502 -0.11607358501E+03 -0.11350868442E+03 -0.36427613695E+03  0.39881625158E+03  0.00000000000E+00 0.  1.
<scales pt_clust_5="13000.00000" pt_clust_6="13000.00000" pt_clust_7="13000.00000" pt_clust_8="13000.00000" pt_clust_9="154.59719"></scales>
<clustering>
<clus scale="   77.151">  5  6 -1 -1</clus>
<clus scale="   79.841">  2  5  1 -1</clus>
<clus scale="   90.945">  7  8 -1 -1</clus>
<clus scale="  154.597">  1  9  2 -1</clus>
<clus scale="  154.597">  1  5  2 -1</clus>
</clustering>
</event>
<event>
 9    2  0.3764910E-005  0.9363610E+02  0.7546771E-02  0.1299914E+00
          2   -1    0    0  502    0 -0.00000000000E+00  0.00000000000E+00  0.20829829065E+03  0.20829829065E+03  0.00000000000E+00 0. -1.
         21   -1    0    0  501  502  0.00000000000E+00 -0.00000000000E+00 -0.90891466941E+02  0.90891466941E+02  0.00000000000E+00 0.  1.
         23    2    1    2    0    0 -0.37877233358E+00  0.13763204271E+02  0.13077548438E+03  0.15999837003E+03  0.91146485602E+02 0.  0.
         24    2    1    2    0    0  0.10890010346E+02 -0.51895452599E+02 -0.19294096372E+02  0.99195571835E+02  0.81582896437E+02 0.  0.
        -13    1    4    4    0    0 -0.29244514207E+02 -0.17675906636E+02 -0.29890155291E+02  0.45399346581E+02  0.00000000000E+00 0.  1.
         14    1    4    4    0    0  0.40134524553E+02 -0.34219545962E+02  0.10596058919E+02  0.53796225254E+02  0.00000000000E+00 0. -1.
        -11    1    3    3    0    0 -0.32417886004E+02  0.79607726244E+01  0.12170274180E+03  0.12619766478E+03  0.00000000000E+00 0.  1.
         11    1    3    3    0    0  0.32039113670E+02  0.58024316466E+01  0.90727425818E+01  0.33800705255E+02  0.00000000000E+00 0. -1.
          1    1    1    2  501    0 -0.10511238012E+02  0.38132248327E+02  0.59254356971E+01  0.39995815722E+02  0.00000000000E+00 0. -1.
<scales pt_clust_5="13000.00000" pt_clust_6="13000.00000" pt_clust_7="13000.00000" pt_clust_8="13000.00000" pt_clust_9="39.55445"></scales>
<clustering>
<clus scale="   39.554">  2  9  1 -1</clus>
<clus scale="   81.583">  5  6 -1 -1</clus>
<clus scale="   84.355">  2  5  1 -1</clus>
<clus scale="   91.146">  7  8 -1 -1</clus>
<clus scale="   39.554">  2  5  1 -1</clus>
</clustering>
</event>
<event>
 9    2  0.3764910E-005  0.1475556E+03  0.7546771E-02  0.1206221E+00
         21   -1    0    0  501  502  0.00000000000E+00  0.00000000000E+00  0.11915875148E+03  0.11915875148E+03  0.00000000000E+00 0.  1.
          2   -1    0    0  502    0 -0.00000000000E+00 -0.00000000000E+00 -0.35267266013E+03  0.35267266013E+03  0.00000000000E+00 0. -1.
         24    2    1    2    0    0 -0.15865022317E+02  0.13099180608E+03 -0.18054408553E+03  0.23811563395E+03  0.81806699711E+02 0.  0.
         23    2    1    2    0    0  0.70926068060E+02 -0.57610647981E+02 -0.10109463668E+02  0.13245609401E+03  0.95356812516E+02 0.  0.
        -13    1    3    3    0    0 -0.12753792280E+02  0.23304299194E+02  0.14717311276E+01  0.26606682825E+02  0.00000000000E+00 0.  1.
         14    1    3    3    0    0 -0.31112300375E+01  0.10768750688E+03 -0.18201581666E+03  0.21150895113E+03  0.00000000000E+00 0. -1.
        -13    1    4    4    0    0  0.17650272782E+02 -0.74055988702E+02 -0.23881211161E+01  0.76167740642E+02  0.00000000000E+00 0. -1.
         13    1    4    4    0    0  0.53275795278E+02  0.16445340722E+02 -0.77213425516E+01  0.56288353367E+02  0.00000000000E+00 0.  1.
          1    1    1    2  501    0 -0.55061045743E+02 -0.73381158097E+02 -0.42860359443E+02  0.10125968365E+03  0.00000000000E+00 0. -1.
<scales pt_clust_5="13000.00000" pt_clust_6="13000.00000" pt_clust_7="13000.00000" pt_clust_8="13000.00000" pt_clust_9="91.74156"></scales>
<clustering>
<clus scale="   81.807">  5  6 -1 -1</clus>
<clus scale="   91.742">  1  9  2 -1</clus>
<clus scale="   95.357">  7  8 -1 -1</clus>
<clus scale="  139.184">  2  5  1 -1</clus>
<clus scale="   91.742">  1  5  2 -1</clus>
</clustering>
</event>
<event>
 9    2  0.3764910E-005  0.2142321E+03  0.7546771E-02  0.1139161E+00
         21   -1    0    0  501  502  0.00000000000E+00  0.00000000000E+00  0.18612887190E+03  0.18612887190E+03  0.00000000000E+00 0.  1.
          2   -1    0    0  502    0 -0.00000000000E+00 -0.00000000000E+00 -0.43617994516E+03  0.43617994516E+03  0.00000000000E+00 0. -1.
         23    2    1    2    0    0 -0.17432772501E+03  0.85459341713E+02 -0.19897765772E+03  0.29243807751E+03  0.90743959087E+02 0.  0.
         24    2    1    2    0    0  0.16317701796E+03 -0.10660723303E+03  0.57973254606E+02  0.21823406169E+03  0.79204583873E+02 0.  0.
        -13    1    4    4    0    0  0.10914147775E+03 -0.91591780797E+02  0.73110857947E+02  0.16014404149E+03  0.00000000000E+00 0.  1.
         14    1    4    4    0    0  0.54035540214E+02 -0.15015452234E+02 -0.15137603342E+02  0.58090020201E+02  0.00000000000E+00 0. -1.
        -13    1    3    3    0    0 -0.29549124679E+02  0.21341136616E+02  0.20879382857E+01  0.36509647597E+02  0.00000000000E+00 0.  1.
         13    1    3    3    0    0 -0.14477860033E+03  0.64118205097E+02 -0.20106559601E+03  0.25592842991E+03  0.00000000000E+00 0. -1.
          1    1    1    2  501    0  0.11150707047E+02  0.21147891317E+02 -0.10904667014E+03  0.11163667786E+03  0.00000000000E+00 0. -1.
<scales pt_clust_5="13000.00000" pt_clust_6="13000.00000" pt_clust_7="13000.00000" pt_clust_8="13000.00000" pt_clust_9="23.90758"></scales>
<clustering>
<clus scale="   23.908">  1  9  2 -1</clus>
<clus scale="   79.205">  5  6 -1 -1</clus>
<clus scale="   90.744">  7  8 -1 -1</clus>
<clus scale="  209.605">  1  5  2 -1</clus>
<clus scale="   23.908">  1  5  2 -1</clus>
</clustering>
</event>
<event>
 9    2  0.3764910E-005  0.5925700E+03  0.7546771E-02  0.9920942E-01
          2   -1    0    0  502    0 -0.00000000000E+00  0.00000000000E+00  0.20674779790E+04  0.20674779790E+04  0.00000000000E+00 0. -1.
         21   -1    0    0  501  502  0.00000000000E+00 -0.00000000000E+00 -0.19504952425E+03  0.19504952425E+03  0.00000000000E+00 0. -1.
         24    2    1    2    0    0 -0.32325980574E+03  0.60333191323E+02  0.90077144592E+03  0.96221810575E+03  0.79608349254E+02 0.  0.
         23    2    1    2    0    0 -0.16563884908E+03 -0.17054577915E+03  0.66701073525E+03  0.71381296854E+03  0.90019675668E+02 0.  0.
        -13    1    3    3    0    0 -0.17009165852E+02  0.18077622531E+02  0.11854430360E+03  0.12111508607E+03  0.00000000000E+00 0.  1.
         14    1    3    3    0    0 -0.30625063989E+03  0.42255568792E+02  0.78222714232E+03  0.84110301968E+03  0.00000000000E+00 0. -1.
        -13    1    4    4    0    0 -0.13550383260E+03 -0.76855370195E+02  0.41267821249E+03  0.44110241854E+03  0.00000000000E+00 0.  1.
         13    1    4    4    0    0 -0.30135016475E+02 -0.93690408951E+02  0.25433252276E+03  0.27271055000E+03  0.00000000000E+00 0. -1.
          1    1    1    2  501    0  0.48889865482E+03  0.11021258782E+03  0.30464627362E+03  0.58649642900E+03  0.00000000000E+00 0. -1.
<scales pt_clust_5="13000.00000" pt_clust_6="13000.00000" pt_clust_7="13000.00000" pt_clust_8="13000.00000" pt_clust_9="501.16735"></scales>
<clustering>
<clus scale="   79.608">  5  6 -1 -1</clus>
<clus scale="   90.020">  7  8 -1 -1</clus>
<clus scale="  242.085">  5  7 -1 -1</clus>
<clus scale="  501.167">  2  9  1 -1</clus>
<clus scale="  501.167">  2  5  1 -1</clus>
</clustering>
</event>
<event>
 9    2  0.3764910E-005  0.1646353E+03  0.7546771E-02  0.1206732E+00
          4   -1    0    0  502    0 -0.00000000000E+00  0.00000000000E+00  0.21362351892E+03  0.21362351892E+03  0.00000000000E+00 0. -1.
         21   -1    0    0  501  502  0.00000000000E+00 -0.00000000000E+00 -0.24476721521E+03  0.24476721521E+03  0.00000000000E+00 0. -1.
         24    2    1    2    0    0  0.82785715896E+01  0.57258576951E+02  0.84537323175E+02  0.13026741768E+03  0.80473360305E+02 0.  0.
         23    2    1    2    0    0 -0.11875499202E+03 -0.10350345464E+03 -0.97492530148E+02  0.20698517494E+03  0.92316607178E+02 0.  0.
        -11    1    3    3    0    0  0.84158137029E+01  0.42346560062E+02 -0.12507582732E+01  0.43192840444E+02  0.00000000000E+00 0.  1.
         12    1    3    3    0    0 -0.13724211330E+00  0.14912016889E+02  0.85788081448E+02  0.87074577241E+02  0.00000000000E+00 0. -1.
        -11    1    4    4    0    0 -0.40954690210E+02 -0.17383760979E+02 -0.77291377732E+02  0.89182054628E+02  0.00000000000E+00 0. -1.
         11    1    4    4    0    0 -0.77800301806E+02 -0.86119693659E+02 -0.20201152416E+02  0.11780312032E+03  0.00000000000E+00 0.  1.
          3    1    1    2  501    0  0.11047642043E+03  0.46244877687E+02 -0.18188489323E+02  0.12113814150E+03  0.00000000000E+00 0. -1.
<scales pt_clust_5="13000.00000" pt_clust_6="13000.00000" pt_clust_7="13000.00000" pt_clust_8="13000.00000" pt_clust_9="136.31746"></scales>
<clustering>
<clus scale="   80.473">  5  6 -1 -1</clus>
<clus scale="   92.317">  7  8 -1 -1</clus>
<clus scale="   99.111">  1  5  2 -1</clus>
<clus scale="  136.317">  2  9  1 -1</clus>
<clus scale="  136.317">  2  5  1 -1</clus>
</clustering>
</event>
<event>
 9    2  0.3764910E-005  0.9046131E+02  0.7546771E-02  0.1306072E+00
         -1   -1    0    0    0  501 -0.00000000000E+00  0.00000000000E+00  0.13012860903E+03  0.13012860903E+03  0.00000000000E+00 0.  1.
         21   -1    0    0  501  502  0.00000000000E+00 -0.00000000000E+00 -0.10440289848E+03  0.10440289848E+03  0.00000000000E+00 0.  1.
         24    2    1    2    0    0 -0.25067129830E+02 -0.16006220625E+02  0.38151878866E+02  0.94222181400E+02  0.80856004787E+02 0.  0.
         23    2    1    2    0    0  0.24946331447E+01  0.14190207066E+02  0.28453417364E+02  0.93576510689E+02  0.87973753028E+02 0.  0.
        -11    1    3    3    0    0 -0.10220949190E+02  0.27854789259E+02 -0.59658129277E+01  0.30264633004E+02  0.00000000000E+00 0.  1.
         12    1    3    3    0    0 -0.14846180640E+02 -0.43861009883E+02  0.44117691793E+02  0.63957548396E+02  0.00000000000E+00 0. -1.
        -13    1    4    4    0    0 -0.33282460875E+02 -0.19849664389E+02  0.19523151567E+02  0.43392220793E+02  0.00000000000E+00 0.  1.
         13    1    4    4    0    0  0.35777094020E+02  0.34039871455E+02  0.89302657976E+01  0.50184289896E+02  0.00000000000E+00 0. -1.
         -2    1    1    2    0  502  0.22572496685E+02  0.18160135589E+01 -0.40879585678E+02  0.46732815420E+02  0.00000000000E+00 0.  1.
<scales pt_clust_5="13000.00000" pt_clust_6="13000.00000" pt_clust_7="13000.00000" pt_clust_8="13000.00000" pt_clust_9="22.64543"></scales>
<clustering>
<clus scale="   22.645">  2  9  1 -1</clus>
<clus scale="   80.856">  5  6 -1 -1</clus>
<clus scale="   83.556">  1  5  2 -1</clus>
<clus scale="   87.974">  7  8 -1 -1</clus>
<clus scale="   22.645">  2  5  1 -1</clus>
</clustering>
</event>
<event>
 9    2  0.3764910E-005  0.1340714E+03  0.7546771E-02  0.1224901E+00
         21   -1    0    0  501  502  0.00000000000E+00  0.00000000000E+00  0.10308007979E+03  0.10308007979E+03  0.00000000000E+00 0. -1.
          2   -1    0    0  502    0 -0.00000000000E+00 -0.00000000000E+00 -0.85314035113E+03  0.85314035113E+03  0.00000000000E+00 0. -1.
         24    2    1    2    0    0  0.15256198564E+02 -0.10085902382E+03 -0.61925359727E+03  0.63248593234E+03  0.78473833810E+02 0.  0.
         23    2    1    2    0    0  0.95634783109E+02  0.78632866453E+02 -0.14239283938E+03  0.21004610377E+03  0.92274078565E+02 0.  0.
        -13    1    3    3    0    0 -0.20167078466E+02 -0.20157255140E+01 -0.56607412984E+02  0.60126312110E+02  0.00000000000E+00 0.  1.
         14    1    3    3    0    0  0.35423277030E+02 -0.98843298309E+02 -0.56264618429E+03  0.57235962023E+03  0.00000000000E+00 0. -1.
        -11    1    4    4    0    0  0.40555194446E+02 -0.11754633853E+02 -0.15922545557E+02  0.45126740083E+02  0.00000000000E+00 0.  1.
         11    1    4    4    0    0  0.55079588663E+02  0.90387500306E+02 -0.12647029382E+03  0.16491936368E+03  0.00000000000E+00 0. -1.
          1    1    1    2  501    0 -0.11089098167E+03  0.22226157370E+02  0.11586165309E+02  0.11368839481E+03  0.00000000000E+00 0. -1.
<scales pt_clust_5="13000.00000" pt_clust_6="13000.00000" pt_clust_7="13000.00000" pt_clust_8="13000.00000" pt_clust_9="113.09647"></scales>
<clustering>
<clus scale="   78.474">  5  6 -1 -1</clus>
<clus scale="   92.274">  7  8 -1 -1</clus>
<clus scale="  113.096">  1  9  2 -1</clus>
<clus scale="  124.975">  2  5  1 -1</clus>
<clus scale="  113.096">  1  5  2 -1</clus>
</clustering>
</event>
<event>
 9    2  0.3764910E-005  0.1075691E+03  0.7546771E-02  0.1269756E+00
          2   -1    0    0  502    0 -0.00000000000E+00  0.00000000000E+00  0.35697066296E+03  0.35697066296E+03  0.00000000000E+00 0. -1.
         21   -1    0    0  501  502  0.00000000000E+00 -0.00000000000E+00 -0.62347369683E+02  0.62347369683E+02  0.00000000000E+00 0. -1.
         23    2    1    2    0    0 -0.36085231961E+02  0.41095764509E+02  0.20018761229E+03  0.22699529455E+03  0.91982486419E+02 0.  0.
         24    2    1    2    0    0 -0.98740442947E+01 -0.74640006501E+02  0.64652708735E+02  0.12810049365E+03  0.81000842005E+02 0.  0.
        -13    1    4    4    0    0 -0.35754206438E+02 -0.66653885315E+02  0.66825113138E+02  0.10092918038E+03  0.00000000000E+00 0.  1.
         14    1    4    4    0    0  0.25880162143E+02 -0.79861211859E+01 -0.21724044026E+01  0.27171313274E+02  0.00000000000E+00 0. -1.
        -13    1    3    3    0    0 -0.18107764015E+02  0.65418741490E+02  0.89973412094E+02  0.11270633407E+03  0.00000000000E+00 0.  1.
         13    1    3    3    0    0 -0.17977467947E+02 -0.24322976981E+02  0.11021420020E+03  0.11428896048E+03  0.00000000000E+00 0. -1.
          1    1    1    2  501    0  0.45959276256E+02  0.33544241992E+02  0.29782972249E+02  0.64222244439E+02  0.00000000000E+00 0. -1.
<scales pt_clust_5="13000.00000" pt_clust_6="13000.00000" pt_clust_7="13000.00000" pt_clust_8="13000.00000" pt_clust_9="56.89878"></scales>
<clustering>
<clus scale="   56.899">  2  9  1 -1</clus>
<clus scale="   81.001">  5  6 -1 -1</clus>
<clus scale="   91.982">  7  8 -1 -1</clus>
<clus scale="   98.344">  2  5  1 -1</clus>
<clus scale="   56.899">  2  5  1 -1</clus>
</clustering>
</event>
<event>
 9    2  0.3764910E-005  0.1734933E+03  0.7546771E-02  0.1175791E+00
          2   -1    0    0  502    0 -0.00000000000E+00  0.00000000000E+00  0.16017073495E+04  0.16017073495E+04  0.00000000000E+00 0. -1.
         21   -1    0    0  501  502  0.00000000000E+00 -0.00000000000E+00 -0.37425742226E+02  0.37425742226E+02  0.00000000000E+00 0. -1.
         24    2    1    2    0    0  0.81616261481E+01 -0.16814037939E+03  0.87583366876E+03  0.89762510647E+03  0.10153037530E+03 0.  0.
         23    2    1    2    0    0  0.41406794255E+02  0.84535198890E+02  0.17290220826E+03  0.21688025582E+03  0.91000820225E+02 0.  0.
        -11    1    3    3    0    0 -0.18449894425E+02 -0.17232306624E+02  0.36267032042E+02  0.44188783747E+02  0.00000000000E+00 0.  1.
         12    1    3    3    0    0  0.26611520574E+02 -0.15090807277E+03  0.83956663671E+03  0.85343632272E+03  0.00000000000E+00 0. -1.
        -13    1    4    4    0    0 -0.23976093424E+02  0.50933903505E+02  0.61147015207E+02  0.83114818480E+02  0.00000000000E+00 0.  1.
         13    1    4    4    0    0  0.65382887678E+02  0.33601295385E+02  0.11175519305E+03  0.13376543734E+03  0.00000000000E+00 0. -1.
          1    1    1    2  501    0 -0.49568420403E+02  0.83605180503E+02  0.51554573029E+03  0.52462772947E+03  0.00000000000E+00 0. -1.
<scales pt_clust_5="13000.00000" pt_clust_6="13000.00000" pt_clust_7="13000.00000" pt_clust_8="13000.00000" pt_clust_9="97.19498"></scales>
<clustering>
<clus scale="   91.001">  7  8 -1 -1</clus>
<clus scale="   97.195">  2  9  1 -1</clus>
<clus scale="  101.530">  5  6 -1 -1</clus>
<clus scale="  167.549">  2  7  1 -1</clus>
<clus scale="   97.195">  2  5  1 -1</clus>
</clustering>
</event>
<event>
 9    2  0.5131329E-005  0.1646007E+03  0.7546771E-02  0.1206283E+00
         -1   -1    0    0    0  501 -0.00000000000E+00  0.00000000000E+00  0.60072364193E+03  0.60072364193E+03  0.00000000000E+00 0.  1.
         21   -1    0    0  501  502  0.00000000000E+00 -0.00000000000E+00 -0.93380218964E+02  0.93380218964E+02  0.00000000000E+00 0.  1.
         23    2    1    2    0    0  0.32562402118E+02 -0.34703865050E+02  0.29515857106E+03  0.31168135951E+03  0.88102324113E+02 0.  0.
         24    2    1    2    0    0  0.12537713237E+03  0.56033883230E+02  0.86599643508E+02  0.17951486033E+03  0.76595466118E+02 0.  0.
        -11    1    4    4    0    0  0.12611658060E+03  0.41685715362E+02  0.94599089965E+02  0.16307077785E+03  0.00000000000E+00 0.  1.
         12    1    4    4    0    0 -0.73944822152E+00  0.14348167867E+02 -0.79994464575E+01  0.16444082475E+02  0.00000000000E+00 0. -1.
        -11    1    3    3    0    0  0.56352617219E+02 -0.23267881204E+02  0.26350471757E+03  0.27046579810E+03  0.00000000000E+00 0. -1.
         11    1    3    3    0    0 -0.23790215102E+02 -0.11435983846E+02  0.31653853495E+02  0.41215561408E+02  0.00000000000E+00 0.  1.
         -2    1    1    2    0  502 -0.15793953449E+03 -0.21330018180E+02  0.12558520839E+03  0.20290764106E+03  0.00000000000E+00 0.  1.
<scales pt_clust_5="13000.00000" pt_clust_6="13000.00000" pt_clust_7="13000.00000" pt_clust_8="13000.00000" pt_clust_9="145.69334"></scales>
<clustering>
<clus scale="   76.595">  5  6 -1 -1</clus>
<clus scale="   88.102">  7  8 -1 -1</clus>
<clus scale="  100.133">  1  7  2 -1</clus>
<clus scale="  145.693">  2  9  1 -1</clus>
<clus scale="  145.693">  2  5  1 -1</clus>
</clustering>
</event>
<event>
 9    2  0.3764910E-005  0.1009552E+03  0.7546771E-02  0.1283448E+00
          2   -1    0    0  502    0 -0.00000000000E+00  0.00000000000E+00  0.51684157050E+03  0.51684157050E+03  0.00000000000E+00 0. -1.
         21   -1    0    0  501  502  0.00000000000E+00 -0.00000000000E+00 -0.35637990838E+02  0.35637990838E+02  0.00000000000E+00 0. -1.
         23    2    1    2    0    0  0.13139781371E+02  0.28378718704E+02  0.26066772449E+03  0.27723462334E+03  0.89069457494E+02 0.  0.
         24    2    1    2    0    0  0.22800483546E+02 -0.10775193481E+02  0.21068939971E+03  0.23403159759E+03  0.98715746842E+02 0.  0.
        -11    1    4    4    0    0  0.23455255052E+02  0.10171965470E+02  0.35226460220E+01  0.25807497091E+02  0.00000000000E+00 0.  1.
         12    1    4    4    0    0 -0.65477150647E+00 -0.20947158951E+02  0.20716675369E+03  0.20822410050E+03  0.00000000000E+00 0. -1.
        -11    1    3    3    0    0  0.35179918278E+02  0.43987734661E+02  0.22797059642E+03  0.23482576580E+03  0.00000000000E+00 0.  1.
         11    1    3    3    0    0 -0.22040136907E+02 -0.15609015957E+02  0.32697128070E+02  0.42408857543E+02  0.00000000000E+00 0. -1.
          1    1    1    2  501    0 -0.35940264917E+02 -0.17603525224E+02  0.98464554620E+01  0.41213340410E+02  0.00000000000E+00 0. -1.
<scales pt_clust_5="13000.00000" pt_clust_6="13000.00000" pt_clust_7="13000.00000" pt_clust_8="13000.00000" pt_clust_9="40.01983"></scales>
<clustering>
<clus scale="   40.020">  2  9  1 -1</clus>
<clus scale="   89.069">  7  8 -1 -1</clus>
<clus scale="   91.545">  1  7  2 -1</clus>
<clus scale="   98.716">  5  6 -1 -1</clus>
<clus scale="   40.020">  2  5  1 -1</clus>
</clustering>
</event>
<event>
 9    2  0.3764910E-005  0.9341407E+02  0.7546771E-02  0.1306527E+00
         21   -1    0    0  501  502  0.00000000000E+00  0.00000000000E+00  0.18054446653E+03  0.18054446653E+03  0.00000000000E+00 0.  1.
          4   -1    0    0  502    0 -0.00000000000E+00 -0.00000000000E+00 -0.77647904950E+02  0.77647904950E+02  0.00000000000E+00 0. -1.
         24    2    1    2    0    0 -0.13746786941E+01  0.24325382426E+01  0.10518369201E+02  0.73721741857E+02  0.72914005156E+02 0.  0.
         23    2    1    2    0    0  0.49433267150E+02 -0.24267467967E+02  0.64185469563E+02  0.12462732006E+03  0.91540354482E+02 0.  0.
        -11    1    3    3    0    0 -0.26502691007E+02  0.24718910925E+02  0.16130767485E+02  0.39668864965E+02  0.00000000000E+00 0.  1.
         12    1    3    3    0    0  0.25128012313E+02 -0.22286372683E+02 -0.56123982837E+01  0.34052876892E+02  0.00000000000E+00 0. -1.
        -11    1    4    4    0    0  0.57413378019E+02 -0.50729182926E+02  0.34365779354E+02  0.83968760659E+02  0.00000000000E+00 0.  1.
         11    1    4    4    0    0 -0.79801108696E+01  0.26461714960E+02  0.29819690209E+02  0.40658559398E+02  0.00000000000E+00 0. -1.
          3    1    1    2  501    0 -0.48058588456E+02  0.21834929724E+02  0.28192722820E+02  0.59843309571E+02  0.00000000000E+00 0. -1.
<scales pt_clust_5="13000.00000" pt_clust_6="13000.00000" pt_clust_7="13000.00000" pt_clust_8="13000.00000" pt_clust_9="52.78629"></scales>
<clustering>
<clus scale="   52.786">  1  9  2 -1</clus>
<clus scale="   72.914">  5  6 -1 -1</clus>
<clus scale="   75.253">  2  5  1 -1</clus>
<clus scale="   91.540">  7  8 -1 -1</clus>
<clus scale="   52.786">  1  5  2 -1</clus>
</clustering>
</event>
<event>
 9    2  0.3764910E-005  0.2995931E+03  0.7546771E-02  0.1085761E+00
         21   -1    0    0  501  502  0.00000000000E+00  0.00000000000E+00  0.71811853522E+03  0.71811853522E+03  0.00000000000E+00 0.  1.
          2   -1    0    0  502    0 -0.00000000000E+00 -0.00000000000E+00 -0.26775618570E+03  0.26775618570E+03  0.00000000000E+00 0. -1.
         23    2    1    2    0    0 -0.28317879633E+03 -0.37431533507E+02 -0.12359092011E+03  0.32400816634E+03  0.90084548778E+02 0.  0.
         24    2    1    2    0    0  0.28751762054E+03  0.70952784514E+01  0.52497917458E+03  0.60409479893E+03  0.81306009945E+02 0.  0.
        -13    1    4    4    0    0  0.24437003685E+03 -0.20989133082E+02  0.45884396534E+03  0.52028361799E+03  0.00000000000E+00 0.  1.
         14    1    4    4    0    0  0.43147583693E+02  0.28084411533E+02  0.66135209235E+02  0.83811180938E+02  0.00000000000E+00 0. -1.
        -13    1    3    3    0    0 -0.78365495032E+02  0.22463887435E+02 -0.96176932008E+01  0.82087009160E+02  0.00000000000E+00 0.  1.
         13    1    3    3    0    0 -0.20481330130E+03 -0.59895420942E+02 -0.11397322691E+03  0.24192115718E+03  0.00000000000E+00 0. -1.
          1    1    1    2  501    0 -0.43388242118E+01  0.30336255056E+02  0.48974095052E+02  0.57771755664E+02  0.00000000000E+00 0. -1.
<scales pt_clust_5="13000.00000" pt_clust_6="13000.00000" pt_clust_7="13000.00000" pt_clust_8="13000.00000" pt_clust_9="30.64496"></scales>
<clustering>
<clus scale="   30.645">  1  9  2 -1</clus>
<clus scale="   81.306">  5  6 -1 -1</clus>
<clus scale="   90.085">  7  8 -1 -1</clus>
<clus scale="  297.071">  1  5  2 -1</clus>
<clus scale="   30.645">  1  5  2 -1</clus>
</clustering>
</event>
<event>
 9    2  0.3764910E-005  0.1296681E+03  0.7546771E-02  0.1230569E+00
         -3   -1    0    0    0  501 -0.00000000000E+00  0.00000000000E+00  0.64365556618E+03  0.64365556618E+03  0.00000000000E+00 0.  1.
         21   -1    0    0  501  502  0.00000000000E+00 -0.00000000000E+00 -0.12250029324E+03  0.12250029324E+03  0.00000000000E+00 0.  1.
         23    2    1    2    0    0  0.10165520591E+03  0.16759796963E+02  0.50794477335E+03  0.52597713807E+03  0.89606837457E+02 0.  0.
         24    2    1    2    0    0 -0.64755234251E+02 -0.31109822752E+02  0.98917609004E+02  0.14576876555E+03  0.79390038453E+02 0.  0.
        -11    1    4    4    0    0  0.96465301702E+00  0.20527936089E+02  0.74330666496E+01  0.21853539652E+02  0.00000000000E+00 0.  1.
         12    1    4    4    0    0 -0.65719887268E+02 -0.51637758841E+02  0.91484542355E+02  0.12391522590E+03  0.00000000000E+00 0. -1.
        -11    1    3    3    0    0  0.80980811367E+02  0.14159994028E+02  0.49425484464E+03  0.50104515634E+03  0.00000000000E+00 0.  1.
         11    1    3    3    0    0  0.20674394543E+02  0.25998029352E+01  0.13689928706E+02  0.24931981731E+02  0.00000000000E+00 0. -1.
         -4    1    1    2    0  502 -0.36899971660E+02  0.14350025789E+02 -0.85707109411E+02  0.94409955790E+02  0.00000000000E+00 0.  1.
<scales pt_clust_5="13000.00000" pt_clust_6="13000.00000" pt_clust_7="13000.00000" pt_clust_8="13000.00000" pt_clust_9="39.59206"></scales>
<clustering>
<clus scale="   39.592">  2  9  1 -1</clus>
<clus scale="   79.390">  5  6 -1 -1</clus>
<clus scale="   89.607">  7  8 -1 -1</clus>
<clus scale="  122.830">  2  5  1 -1</clus>
<clus scale="   39.592">  2  5  1 -1</clus>
</clustering>
</event>
<event>
 9    2  0.3764910E-005  0.9368356E+02  0.7546771E-02  0.1300874E+00
          2   -1    0    0  502    0 -0.00000000000E+00  0.00000000000E+00  0.35236952351E+02  0.35236952351E+02  0.00000000000E+00 0. -1.
         21   -1    0    0  501  502  0.00000000000E+00 -0.00000000000E+00 -0.46129576612E+03  0.46129576612E+03  0.00000000000E+00 0. -1.
         24    2    1    2    0    0 -0.25566545497E+02 -0.17854963534E+02 -0.10860760500E+03  0.13915003253E+03  0.81207584104E+02 0.  0.
         23    2    1    2    0    0 -0.35738914083E+01 -0.34537959450E+02 -0.23970452836E+03  0.25920565321E+03  0.92323704429E+02 0.  0.
        -13    1    3    3    0    0  0.15247009993E+02 -0.14403727305E+02 -0.92970907076E+02  0.95307545539E+02  0.00000000000E+00 0.  1.
         14    1    3    3    0    0 -0.40813555489E+02 -0.34512362290E+01 -0.15636697927E+02  0.43842486987E+02  0.00000000000E+00 0. -1.
        -13    1    4    4    0    0  0.17819581836E+02  0.27311536895E+02 -0.66939115887E+02  0.74460075074E+02  0.00000000000E+00 0.  1.
         13    1    4    4    0    0 -0.21393473244E+02 -0.61849496345E+02 -0.17276541247E+03  0.18474557814E+03  0.00000000000E+00 0. -1.
          1    1    1    2  501    0  0.29140436905E+02  0.52392922984E+02 -0.77746680410E+02  0.98177032735E+02  0.00000000000E+00 0. -1.
<scales pt_clust_5="13000.00000" pt_clust_6="13000.00000" pt_clust_7="13000.00000" pt_clust_8="13000.00000" pt_clust_9="59.95154"></scales>
<clustering>
<clus scale="   59.952">  2  9  1 -1</clus>
<clus scale="   81.208">  5  6 -1 -1</clus>
<clus scale="   82.750">  1  5  2 -1</clus>
<clus scale="   92.324">  7  8 -1 -1</clus>
<clus scale="   59.952">  2  5  1 -1</clus>
</clustering>
</event>
<event>
 9    2  0.3764910E-005  0.9828426E+02  0.7546771E-02  0.1289678E+00
         21   -1    0    0  501  502  0.00000000000E+00  0.00000000000E+00  0.60486939910E+03  0.60486939910E+03  0.00000000000E+00 0. -1.
         -3   -1    0    0    0  501 -0.00000000000E+00 -0.00000000000E+00 -0.24377813883E+02  0.24377813883E+02  0.00000000000E+00 0.  1.
         24    2    1    2    0    0  0.42506180588E+02 -0.14183725419E+02  0.16274992552E+03  0.18687839048E+03  0.80175065418E+02 0.  0.
         23    2    1    2    0    0 -0.14066674881E+02  0.15180036496E+02  0.39511191668E+03  0.40601083316E+03  0.91121156098E+02 0.  0.
        -11    1    3    3    0    0  0.19865226784E+02  0.32652316770E+02  0.86560015124E+02  0.94622604297E+02  0.00000000000E+00 0.  1.
         12    1    3    3    0    0  0.22640953804E+02 -0.46836042190E+02  0.76189910397E+02  0.92255786179E+02  0.00000000000E+00 0. -1.
        -11    1    4    4    0    0 -0.16925053680E+02  0.51532972377E+02  0.28190807844E+03  0.28707885567E+03  0.00000000000E+00 0. -1.
         11    1    4    4    0    0  0.28583787990E+01 -0.36352935880E+02  0.11320383824E+03  0.11893197749E+03  0.00000000000E+00 0.  1.
         -4    1    1    2    0  502 -0.28439505706E+02 -0.99631107703E+00  0.22629743018E+02  0.36357989351E+02  0.00000000000E+00 0.  1.
<scales pt_clust_5="13000.00000" pt_clust_6="13000.00000" pt_clust_7="13000.00000" pt_clust_8="13000.00000" pt_clust_9="28.45697"></scales>
<clustering>
<clus scale="   28.457">  1  9  2 -1</clus>
<clus scale="   80.175">  5  6 -1 -1</clus>
<clus scale="   88.231">  2  5  1 -1</clus>
<clus scale="   91.121">  7  8 -1 -1</clus>
<clus scale="   28.457">  1  5  2 -1</clus>
</clustering>
</event>
<event>
 9    2  0.3764910E-005  0.9382647E+02  0.7546771E-02  0.1299309E+00
         21   -1    0    0  501  502  0.00000000000E+00  0.00000000000E+00  0.12811800962E+03  0.12811800962E+03  0.00000000000E+00 0.  1.
          2   -1    0    0  502    0 -0.00000000000E+00 -0.00000000000E+00 -0.27190634553E+03  0.27190634553E+03  0.00000000000E+00 0. -1.
         23    2    1    2    0    0 -0.69412224222E+01 -0.18124168257E+02 -0.23930947195E+03  0.25714157009E+03  0.92065724667E+02 0.  0.
         24    2    1    2    0    0 -0.12651584688E+02  0.83281244369E+01  0.78810421948E+02  0.11533122375E+03  0.82829875718E+02 0.  0.
        -11    1    4    4    0    0  0.17338833727E+02  0.31716017117E+02  0.65910211481E+02  0.75171117288E+02  0.00000000000E+00 0.  1.
         12    1    4    4    0    0 -0.29990418415E+02 -0.23387892680E+02  0.12900210467E+02  0.40160106459E+02  0.00000000000E+00 0. -1.
        -13    1    3    3    0    0 -0.33125105553E+02 -0.22582246716E+02 -0.22164901607E+03  0.22524545902E+03  0.00000000000E+00 0. -1.
         13    1    3    3    0    0  0.26183883131E+02  0.44580784589E+01 -0.17660455882E+02  0.31896111069E+02  0.00000000000E+00 0.  1.
          1    1    1    2  501    0  0.19592807110E+02  0.97960438203E+01  0.16710714093E+02  0.27551561307E+02  0.00000000000E+00 0. -1.
<scales pt_clust_5="13000.00000" pt_clust_6="13000.00000" pt_clust_7="13000.00000" pt_clust_8="13000.00000" pt_clust_9="21.90526"></scales>
<clustering>
<clus scale="   21.905">  1  9  2 -1</clus>
<clus scale="   82.830">  5  6 -1 -1</clus>
<clus scale="   84.783">  1  5  2 -1</clus>
<clus scale="   92.066">  7  8 -1 -1</clus>
<clus scale="   21.905">  1  5  2 -1</clus>
</clustering>
</event>
<event>
 9    2  0.3764910E-005  0.8803353E+02  0.7546771E-02  0.1317930E+00
          2   -1    0    0  502    0 -0.00000000000E+00  0.00000000000E+00  0.32974555701E+03  0.32974555701E+03  0.00000000000E+00 0. -1.
         21   -1    0    0  501  502  0.00000000000E+00 -0.00000000000E+00 -0.43942582041E+02  0.43942582041E+02  0.00000000000E+00 0.  1.
         24    2    1    2    0    0 -0.10029269457E+02 -0.13698293052E+02  0.17369849470E+03  0.18910092480E+03  0.72799472654E+02 0.  0.
         23    2    1    2    0    0 -0.24116415648E+01 -0.36305788856E+02  0.68871471962E+02  0.11732446467E+03  0.87737244317E+02 0.  0.
        -11    1    3    3    0    0 -0.26670943770E+02 -0.34396311728E+02  0.13736412539E+03  0.14409492859E+03  0.00000000000E+00 0.  1.
         12    1    3    3    0    0  0.16641674313E+02  0.20698018676E+02  0.36334369316E+02  0.45005996208E+02  0.00000000000E+00 0. -1.
        -13    1    4    4    0    0 -0.13346800461E+02  0.26998901392E+02  0.15885424465E+02  0.34050322603E+02  0.00000000000E+00 0.  1.
         13    1    4    4    0    0  0.10935158897E+02 -0.63304690249E+02  0.52986047497E+02  0.83274142066E+02  0.00000000000E+00 0. -1.
          1    1    1    2  501    0  0.12440911022E+02  0.50004081909E+02  0.43233008306E+02  0.67262749585E+02  0.00000000000E+00 0. -1.
<scales pt_clust_5="13000.00000" pt_clust_6="13000.00000" pt_clust_7="13000.00000" pt_clust_8="13000.00000" pt_clust_9="51.52848"></scales>
<clustering>
<clus scale="   51.528">  2  9  1 -1</clus>
<clus scale="   72.799">  5  6 -1 -1</clus>
<clus scale="   73.156">  1  5  2 -1</clus>
<clus scale="   87.737">  7  8 -1 -1</clus>
<clus scale="   51.528">  2  5  1 -1</clus>
</clustering>
</event>
<event>
 9    2  0.1739366E-004  0.9360612E+02  0.7546771E-02  0.1300402E+00
         21   -1    0    0  501  502  0.00000000000E+00  0.00000000000E+00  0.17430642096E+03  0.17430642096E+03  0.00000000000E+00 0. -1.
          2   -1    0    0  502    0 -0.00000000000E+00 -0.00000000000E+00 -0.10724453297E+04  0.10724453297E+04  0.00000000000E+00 0. -1.
         24    2    1    2    0    0  0.16341522523E+00 -0.27139521120E+02 -0.94663807103E+03  0.95037180709E+03  0.79664006184E+02 0.  0.
         23    2    1    2    0    0 -0.29692186883E+02  0.86351739280E+01 -0.10339174617E+03  0.14054282581E+03  0.90034662874E+02 0.  0.
        -11    1    3    3    0    0 -0.17892182028E+02  0.15279106634E+02 -0.11115849483E+03  0.11362126672E+03  0.00000000000E+00 0.  1.
         12    1    3    3    0    0  0.18055597253E+02 -0.42418627755E+02 -0.83547957619E+03  0.83675054037E+03  0.00000000000E+00 0. -1.
        -11    1    4    4    0    0 -0.57946895395E+01  0.47669088703E+02 -0.64940626663E+02  0.80766363271E+02  0.00000000000E+00 0.  1.
         11    1    4    4    0    0 -0.23897497343E+02 -0.39033914775E+02 -0.38451119508E+02  0.59776462536E+02  0.00000000000E+00 0. -1.
          1    1    1    2  501    0  0.29528771658E+02  0.18504347192E+02  0.15189090843E+03  0.15583711780E+03  0.00000000000E+00 0. -1.
<scales pt_clust_5="13000.00000" pt_clust_6="13000.00000" pt_clust_7="13000.00000" pt_clust_8="13000.00000" pt_clust_9="34.84766"></scales>
<clustering>
<clus scale="   34.848">  1  9  2 -1</clus>
<clus scale="   79.664">  5  6 -1 -1</clus>
<clus scale="   83.679">  2  5  1 -1</clus>
<clus scale="   90.035">  7  8 -1 -1</clus>
<clus scale="   34.848">  1  5  2 -1</clus>
</clustering>
</event>
<event>
 9    2  0.3764910E-005  0.1804714E+03  0.7546771E-02  0.1182749E+00
          2   -1    0    0  502    0 -0.00000000000E+00  0.00000000000E+00  0.33962544814E+03  0.33962544814E+03  0.00000000000E+00 0. -1.
         21   -1    0    0  501  502  0.00000000000E+00 -0.00000000000E+00 -0.31240028816E+03  0.31240028816E+03  0.00000000000E+00 0. -1.
         23    2    1    2    0    0 -0.80882194360E+02 -0.37239144924E+02  0.18065633521E+03  0.22098857289E+03  0.90942589666E+02 0.  0.
         24    2    1    2    0    0 -0.99214653800E+02  0.11503350545E+03 -0.15874005845E+03  0.23478472015E+03  0.82759916357E+02 0.  0.
        -13    1    4    4    0    0 -0.34592387972E+02 -0.55200738845E+01 -0.44064085572E+02  0.56291634890E+02  0.00000000000E+00 0.  1.
         14    1    4    4    0    0 -0.64622265828E+02  0.12055357933E+03 -0.11467597288E+03  0.17849308526E+03  0.00000000000E+00 0. -1.
        -11    1    3    3    0    0 -0.95144034155E+02 -0.89114756728E+01  0.13536615166E+03  0.16569790780E+03  0.00000000000E+00 0. -1.
         11    1    3    3    0    0  0.14261839795E+02 -0.28327669251E+02  0.45290183551E+02  0.55290665086E+02  0.00000000000E+00 0.  1.
          1    1    1    2  501    0  0.18009684816E+03 -0.77794360521E+02  0.53088832259E+01  0.19625244326E+03  0.00000000000E+00 0. -1.
<scales pt_clust_5="13000.00000" pt_clust_6="13000.00000" pt_clust_7="13000.00000" pt_clust_8="13000.00000" pt_clust_9="160.37690"></scales>
<clustering>
<clus scale="   82.760">  5  6 -1 -1</clus>
<clus scale="   90.943">  7  8 -1 -1</clus>
<clus scale="  127.276">  1  7  2 -1</clus>
<clus scale="  160.377">  2  9  1 -1</clus>
<clus scale="  160.377">  2  5  1 -1</clus>
</clustering>
</event>
<event>
 9    2  0.3772445E-005  0.1402720E+03  0.7546771E-02  0.1225791E+00
          2   -1    0    0  502    0 -0.00000000000E+00  0.00000000000E+00  0.27399235696E+03  0.27399235696E+03  0.00000000000E+00 0. -1.
         21   -1    0    0  501  502  0.00000000000E+00 -0.00000000000E+00 -0.63787664222E+03  0.63787664222E+03  0.00000000000E+00 0. -1.
         23    2    1    2    0    0 -0.54810002773E+02  0.20812091450E+02  0.19497144472E+03  0.22246026269E+03  0.89651685234E+02 0.  0.
         24    2    1    2    0    0 -0.62906658647E+02 -0.27670912883E+02  0.10127560553E+02  0.10833538422E+03  0.83132790580E+02 0.  0.
        -13    1    4    4    0    0  0.17993604640E+02 -0.19318274364E+02  0.19515676104E+00  0.26400826095E+02  0.00000000000E+00 0.  1.
         14    1    4    4    0    0 -0.80900263287E+02 -0.83526385198E+01  0.99324037924E+01  0.81934558126E+02  0.00000000000E+00 0. -1.
        -13    1    3    3    0    0  0.11765719118E+02  0.22111069889E+02  0.12047506750E+02  0.27793416071E+02  0.00000000000E+00 0.  1.
         13    1    3    3    0    0 -0.66575721891E+02 -0.12989784385E+01  0.18292393797E+03  0.19466684662E+03  0.00000000000E+00 0. -1.
          1    1    1    2  501    0  0.11771666142E+03  0.68588214330E+01 -0.56898329053E+03  0.58107335227E+03  0.00000000000E+00 0. -1.
<scales pt_clust_5="13000.00000" pt_clust_6="13000.00000" pt_clust_7="13000.00000" pt_clust_8="13000.00000" pt_clust_9="112.98304"></scales>
<clustering>
<clus scale="   83.133">  5  6 -1 -1</clus>
<clus scale="   89.652">  7  8 -1 -1</clus>
<clus scale="  107.120">  1  7  2 -1</clus>
<clus scale="  112.983">  2  9  1 -1</clus>
<clus scale="  112.983">  2  5  1 -1</clus>
</clustering>
</event>
<event>
 9    2  0.3764910E-005  0.1615610E+03  0.7546771E-02  0.1209331E+00
         21   -1    0    0  501  502  0.00000000000E+00  0.00000000000E+00  0.43449902194E+03  0.43449902194E+03  0.00000000000E+00 0. -1.
         -3   -1    0    0    0  501 -0.00000000000E+00 -0.00000000000E+00 -0.16919436146E+03  0.16919436146E+03  0.00000000000E+00 0.  1.
         23    2    1    2    0    0 -0.34148267910E+02  0.23679343817E+02  0.23415843506E+03  0.25430293089E+03  0.90072151209E+02 0.  0.
         24    2    1    2    0    0 -0.68063053685E+02 -0.12077420208E+03 -0.70395168794E+02  0.17565150897E+03  0.81725061323E+02 0.  0.
        -13    1    4    4    0    0 -0.72378539893E+02 -0.11070766938E+03 -0.85127153156E+02  0.15729422526E+03  0.00000000000E+00 0.  1.
         14    1    4    4    0    0  0.43154862078E+01 -0.10066532701E+02  0.14731984362E+02  0.18357283706E+02  0.00000000000E+00 0. -1.
        -11    1    3    3    0    0  0.27191809504E+02 -0.80523222664E+01  0.91737000137E+02  0.96020370715E+02  0.00000000000E+00 0.  1.
         11    1    3    3    0    0 -0.61340077414E+02  0.31731666084E+02  0.14242143492E+03  0.15828256017E+03  0.00000000000E+00 0. -1.
         -4    1    1    2    0  502  0.10221132160E+03  0.97094858266E+02  0.10154139421E+03  0.17373894354E+03  0.00000000000E+00 0.  1.
<scales pt_clust_5="13000.00000" pt_clust_6="13000.00000" pt_clust_7="13000.00000" pt_clust_8="13000.00000" pt_clust_9="139.36629"></scales>
<clustering>
<clus scale="   81.725">  5  6 -1 -1</clus>
<clus scale="   90.072">  7  8 -1 -1</clus>
<clus scale="   99.196">  2  7  1 -1</clus>
<clus scale="  139.366">  1  9  2 -1</clus>
<clus scale="  139.366">  1  5  2 -1</clus>
</clustering>
</event>
<event>
 9    2  0.3764910E-005  0.9121081E+02  0.7546771E-02  0.1309024E+00
         21   -1    0    0  501  502  0.00000000000E+00  0.00000000000E+00  0.15673124642E+03  0.15673124642E+03  0.00000000000E+00 0.  1.
          2   -1    0    0  502    0 -0.00000000000E+00 -0.00000000000E+00 -0.17132939545E+03  0.17132939545E+03  0.00000000000E+00 0. -1.
         23    2    1    2    0    0  0.12112765824E+02 -0.35144497921E+02 -0.12843932285E+03  0.14976944819E+03  0.67471276304E+02 0.  0.
         24    2    1    2    0    0  0.20276205833E+02  0.48893264673E+02  0.64760348049E+02  0.11790078442E+03  0.83096428531E+02 0.  0.
        -13    1    4    4    0    0  0.47492747959E+02  0.46868823892E+02  0.60897781455E+02  0.90337077371E+02  0.00000000000E+00 0.  1.
         14    1    4    4    0    0 -0.27216542126E+02  0.20244407817E+01  0.38625665940E+01  0.27563707052E+02  0.00000000000E+00 0. -1.
        -11    1    3    3    0    0 -0.20046872138E+02 -0.16028088592E+01 -0.98346735823E+01  0.22386756871E+02  0.00000000000E+00 0.  1.
         11    1    3    3    0    0  0.32159637962E+02 -0.33541689062E+02 -0.11860464927E+03  0.12738269132E+03  0.00000000000E+00 0. -1.
          1    1    1    2  501    0 -0.32388971658E+02 -0.13748766753E+02  0.49080825768E+02  0.60390409258E+02  0.00000000000E+00 0. -1.
<scales pt_clust_5="13000.00000" pt_clust_6="13000.00000" pt_clust_7="13000.00000" pt_clust_8="13000.00000" pt_clust_9="35.18628"></scales>
<clustering>
<clus scale="   35.186">  1  9  2 -1</clus>
<clus scale="   67.471">  7  8 -1 -1</clus>
<clus scale="   77.245">  2  7  1 -1</clus>
<clus scale="   83.096">  5  6 -1 -1</clus>
<clus scale="   35.186">  1  5  2 -1</clus>
</clustering>
</event>
<event>
 9    2  0.3764910E-005  0.9297335E+02  0.7546771E-02  0.1302683E+00
          2   -1    0    0  502    0 -0.00000000000E+00  0.00000000000E+00  0.18685682991E+03  0.18685682991E+03  0.00000000000E+00 0. -1.
         21   -1    0    0  501  502  0.00000000000E+00 -0.00000000000E+00 -0.88273662306E+02  0.88273662306E+02  0.00000000000E+00 0.  1.
         24    2    1    2    0    0 -0.96073878854E+00  0.15542132444E+02  0.80065488850E+02  0.11483537854E+03  0.80834403318E+02 0.  0.
         23    2    1    2    0    0 -0.29989152410E+02  0.18221515130E+01 -0.28922442593E+02  0.10105003594E+03  0.92043101749E+02 0.  0.
        -11    1    3    3    0    0 -0.32624894767E+02  0.28522573469E+02  0.63339451826E+02  0.76745078757E+02  0.00000000000E+00 0.  1.
         12    1    3    3    0    0  0.31664155979E+02 -0.12980441025E+02  0.16726037025E+02  0.38090299783E+02  0.00000000000E+00 0. -1.
        -13    1    4    4    0    0 -0.40639465925E+02 -0.23415674118E+02 -0.48431409584E+02  0.67420037224E+02  0.00000000000E+00 0.  1.
         13    1    4    4    0    0  0.10650313515E+02  0.25237825631E+02  0.19508966991E+02  0.33629998716E+02  0.00000000000E+00 0. -1.
          1    1    1    2  501    0  0.30949891199E+02 -0.17364283957E+02  0.47440121343E+02  0.59245077733E+02  0.00000000000E+00 0. -1.
<scales pt_clust_5="13000.00000" pt_clust_6="13000.00000" pt_clust_7="13000.00000" pt_clust_8="13000.00000" pt_clust_9="35.48824"></scales>
<clustering>
<clus scale="   35.488">  2  9  1 -1</clus>
<clus scale="   80.834">  5  6 -1 -1</clus>
<clus scale="   81.892">  1  5  2 -1</clus>
<clus scale="   92.043">  7  8 -1 -1</clus>
<clus scale="   35.488">  2  5  1 -1</clus>
</clustering>
</event>
<event>
 9    2  0.3764910E-005  0.1148164E+03  0.7546771E-02  0.1259466E+00
          2   -1    0    0  502    0 -0.00000000000E+00  0.00000000000E+00  0.16193119070E+03  0.16193119070E+03  0.00000000000E+00 0. -1.
         21   -1    0    0  501  502  0.00000000000E+00 -0.00000000000E+00 -0.12734379230E+03  0.12734379230E+03  0.00000000000E+00 0.  1.
         23    2    1    2    0    0 -0.52691737093E+02  0.36698844206E+02  0.91248572861E+01  0.11854277257E+03  0.99226516537E+02 0.  0.
         24    2    1    2    0    0 -0.14856690787E+01 -0.66744184687E+02  0.16902921178E+01  0.10437685160E+03  0.80216436345E+02 0.  0.
        -11    1    4    4    0    0 -0.66608920297E+01 -0.75163744094E+02 -0.22089560216E+02  0.78625088740E+02  0.00000000000E+00 0.  1.
         12    1    4    4    0    0  0.51752229511E+01  0.84195594076E+01  0.23779852334E+02  0.25751762857E+02  0.00000000000E+00 0. -1.
        -11    1    3    3    0    0 -0.22956707584E+02  0.66719562516E+02  0.22767338813E+02  0.74140826554E+02  0.00000000000E+00 0.  1.
         11    1    3    3    0    0 -0.29735029510E+02 -0.30020718310E+02 -0.13642481527E+02  0.44401946016E+02  0.00000000000E+00 0. -1.
          1    1    1    2  501    0  0.54177406172E+02  0.30045340480E+02  0.23772248997E+02  0.66355358837E+02  0.00000000000E+00 0. -1.
<scales pt_clust_5="13000.00000" pt_clust_6="13000.00000" pt_clust_7="13000.00000" pt_clust_8="13000.00000" pt_clust_9="61.95093"></scales>
<clustering>
<clus scale="   61.951">  2  9  1 -1</clus>
<clus scale="   80.216">  5  6 -1 -1</clus>
<clus scale="   98.851">  2  5  1 -1</clus>
<clus scale="   99.227">  7  8 -1 -1</clus>
<clus scale="   61.951">  2  5  1 -1</clus>
</clustering>
</event>
<event>
 9    2  0.3764910E-005  0.9948825E+02  0.7546771E-02  0.1290213E+00
         21   -1    0    0  501  502  0.00000000000E+00  0.00000000000E+00  0.24991539070E+02  0.24991539070E+02  0.00000000000E+00 0. -1.
          2   -1    0    0  502    0 -0.00000000000E+00 -0.00000000000E+00 -0.72953508820E+03  0.72953508820E+03  0.00000000000E+00 0. -1.
         23    2    1    2    0    0 -0.42209758919E+02  0.63592272865E+01 -0.29176543986E+03  0.31020356988E+03  0.96317596251E+02 0.  0.
         24    2    1    2    0    0 -0.96643899474E+01  0.43938804725E+02 -0.23231846944E+03  0.24993555534E+03  0.80448067655E+02 0.  0.
        -11    1    4    4    0    0  0.14466757482E+02 -0.19465297923E+02 -0.65856561533E+02  0.70180279226E+02  0.00000000000E+00 0.  1.
         12    1    4    4    0    0 -0.24131147430E+02  0.63404102648E+02 -0.16646190790E+03  0.17975527612E+03  0.00000000000E+00 0. -1.
        -13    1    3    3    0    0 -0.36219380747E+02  0.36269793292E+02 -0.26408083693E+03  0.26900934906E+03  0.00000000000E+00 0.  1.
         13    1    3    3    0    0 -0.59903781717E+01 -0.29910566005E+02 -0.27684602930E+02  0.41194220818E+02  0.00000000000E+00 0. -1.
          1    1    1    2  501    0  0.51874148866E+02 -0.50298032012E+02 -0.18045963983E+03  0.19438750205E+03  0.00000000000E+00 0. -1.
<scales pt_clust_5="13000.00000" pt_clust_6="13000.00000" pt_clust_7="13000.00000" pt_clust_8="13000.00000" pt_clust_9="72.25524"></scales>
<clustering>
<clus scale="   72.255">  1  9  2 -1</clus>
<clus scale="   80.448">  5  6 -1 -1</clus>
<clus scale="   84.218">  1  5  2 -1</clus>
<clus scale="   96.318">  7  8 -1 -1</clus>
<clus scale="   72.255">  1  5  2 -1</clus>
</clustering>
</event>
<event>
 9    2  0.3764910E-005  0.2395349E+03  0.7546771E-02  0.1120902E+00
         21   -1    0    0  501  502  0.00000000000E+00  0.00000000000E+00  0.14437659126E+03  0.14437659126E+03  0.00000000000E+00 0. -1.
          2   -1    0    0  502    0 -0.00000000000E+00 -0.00000000000E+00 -0.70699953887E+03  0.70699953887E+03  0.00000000000E+00 0. -1.
         23    2    1    2    0    0  0.66504473676E+02  0.15424510478E+03 -0.14137347209E+03  0.23800389786E+03  0.91896677949E+02 0.  0.
         24    2    1    2    0    0 -0.99689830773E+02 -0.28322263400E+03 -0.26566089580E+03  0.40856921201E+03  0.78739867131E+02 0.  0.
        -13    1    4    4    0    0  0.12721101988E+02 -0.17399707014E+02 -0.22730779016E+02  0.31325142531E+02  0.00000000000E+00 0.  1.
         14    1    4    4    0    0 -0.11241093276E+03 -0.26582292698E+03 -0.24293011679E+03  0.37724406948E+03  0.00000000000E+00 0. -1.
        -11    1    3    3    0    0  0.85448310860E+02  0.13576753432E+03 -0.10046208182E+03  0.18927986446E+03  0.00000000000E+00 0. -1.
         11    1    3    3    0    0 -0.18943837183E+02  0.18477570459E+02 -0.40911390273E+02  0.48724033406E+02  0.00000000000E+00 0.  1.
          1    1    1    2  501    0  0.33185357097E+02  0.12897752921E+03 -0.15558857972E+03  0.20480302026E+03  0.00000000000E+00 0. -1.
<scales pt_clust_5="13000.00000" pt_clust_6="13000.00000" pt_clust_7="13000.00000" pt_clust_8="13000.00000" pt_clust_9="133.17841"></scales>
<clustering>
<clus scale="   78.740">  5  6 -1 -1</clus>
<clus scale="   91.897">  7  8 -1 -1</clus>
<clus scale="  133.178">  1  9  2 -1</clus>
<clus scale="  234.802">  1  5  2 -1</clus>
<clus scale="  133.178">  1  5  2 -1</clus>
</clustering>
</event>
<event>
 9    2  0.3764910E-005  0.2862815E+03  0.7546771E-02  0.1139087E+00
          2   -1    0    0  502    0 -0.00000000000E+00  0.00000000000E+00  0.78438436915E+03  0.78438436915E+03  0.00000000000E+00 0. -1.
         21   -1    0    0  501  502  0.00000000000E+00 -0.00000000000E+00 -0.26493379161E+03  0.26493379161E+03  0.00000000000E+00 0. -1.
         23    2    1    2    0    0  0.15173246345E+02 -0.21383887705E+02 -0.30256847147E+02  0.93050390883E+02  0.83996430794E+02 0.  0.
         24    2    1    2    0    0 -0.26240004304E+03  0.13360602537E+03  0.60644320213E+03  0.67889825889E+03  0.80156945506E+02 0.  0.
        -11    1    4    4    0    0 -0.45488483259E+02  0.60179620137E+02  0.17130336261E+03  0.18717807251E+03  0.00000000000E+00 0.  1.
         12    1    4    4    0    0 -0.21691155978E+03  0.73426405235E+02  0.43513983952E+03  0.49172018638E+03  0.00000000000E+00 0. -1.
        -13    1    3    3    0    0  0.27439962462E+02  0.59742320283E+01  0.20036711813E+02  0.34498011661E+02  0.00000000000E+00 0.  1.
         13    1    3    3    0    0 -0.12266716117E+02 -0.27358119733E+02 -0.50293558961E+02  0.58552379222E+02  0.00000000000E+00 0. -1.
          1    1    1    2  501    0  0.24722679669E+03 -0.11222213767E+03 -0.56735777441E+02  0.27736951099E+03  0.00000000000E+00 0. -1.
<scales pt_clust_5="13000.00000" pt_clust_6="13000.00000" pt_clust_7="13000.00000" pt_clust_8="13000.00000" pt_clust_9="274.83078"></scales>
<clustering>
<clus scale="   80.157">  5  6 -1 -1</clus>
<clus scale="   83.996">  7  8 -1 -1</clus>
<clus scale="   87.994">  1  7  2 -1</clus>
<clus scale="  274.831">  2  9  1 -1</clus>
<clus scale="  274.831">  2  5  1 -1</clus>
</clustering>
</event>
<event>
 9    2  0.3764910E-005  0.9084536E+02  0.7546771E-02  0.1304855E+00
         21   -1    0    0  501  502  0.00000000000E+00  0.00000000000E+00  0.52618971136E+02  0.52618971136E+02  0.00000000000E+00 0.  1.
         -1   -1    0    0    0  501 -0.00000000000E+00 -0.00000000000E+00 -0.28339091339E+03  0.28339091339E+03  0.00000000000E+00 0.  1.
         23    2    1    2    0    0 -0.25908575535E+01  0.24910424149E+02 -0.12737528142E+03  0.15727420616E+03  0.88788917283E+02 0.  0.
         24    2    1    2    0    0 -0.37383291787E+02  0.45054826394E+01 -0.89537562013E+02  0.12720604798E+03  0.82137651251E+02 0.  0.
        -13    1    4    4    0    0 -0.22021365302E+02  0.43080876317E+02 -0.54490502414E+02  0.72870551579E+02  0.00000000000E+00 0.  1.
         14    1    4    4    0    0 -0.15361926485E+02 -0.38575393678E+02 -0.35047059598E+02  0.54335496401E+02  0.00000000000E+00 0. -1.
        -11    1    3    3    0    0  0.36317677003E+02 -0.56483300381E+01 -0.83165037792E+02  0.90924698548E+02  0.00000000000E+00 0.  1.
         11    1    3    3    0    0 -0.38908534557E+02  0.30558754187E+02 -0.44210243631E+02  0.66349507615E+02  0.00000000000E+00 0. -1.
         -2    1    1    2    0  502  0.39974149341E+02 -0.29415906788E+02 -0.13859098823E+02  0.51529630387E+02  0.00000000000E+00 0.  1.
<scales pt_clust_5="13000.00000" pt_clust_6="13000.00000" pt_clust_7="13000.00000" pt_clust_8="13000.00000" pt_clust_9="49.63092"></scales>
<clustering>
<clus scale="   49.631">  1  9  2 -1</clus>
<clus scale="   82.138">  5  6 -1 -1</clus>
<clus scale="   84.356">  1  5  2 -1</clus>
<clus scale="   88.789">  7  8 -1 -1</clus>
<clus scale="   49.631">  1  5  2 -1</clus>
</clustering>
</event>
<event>
 9    2  0.3764910E-005  0.1509587E+03  0.7546771E-02  0.1211667E+00
         -1   -1    0    0    0  501 -0.00000000000E+00  0.00000000000E+00  0.24539661316E+03  0.24539661316E+03  0.00000000000E+00 0.  1.
         21   -1    0    0  501  502  0.00000000000E+00 -0.00000000000E+00 -0.18291107925E+03  0.18291107925E+03  0.00000000000E+00 0.  1.
         23    2    1    2    0    0 -0.72503566089E+01 -0.70336616110E+02  0.41724651815E+02  0.12298126020E+03  0.91562200471E+02 0.  0.
         24    2    1    2    0    0 -0.92517323596E+02 -0.60120838283E+02 -0.16405684587E+02  0.13693970144E+03  0.79431511272E+02 0.  0.
        -13    1    4    4    0    0 -0.10282217750E+03 -0.43152705127E+02 -0.51593583510E+00  0.11151153454E+03  0.00000000000E+00 0.  1.
         14    1    4    4    0    0  0.10304853901E+02 -0.16968133156E+02 -0.15889748752E+02  0.25428166904E+02  0.00000000000E+00 0. -1.
        -11    1    3    3    0    0 -0.17294365724E+01 -0.90775208551E+02  0.45373171904E+02  0.10149805006E+03  0.00000000000E+00 0.  1.
         11    1    3    3    0    0 -0.55209200365E+01  0.20438592440E+02 -0.36485200884E+01  0.21483210138E+02  0.00000000000E+00 0. -1.
         -2    1    1    2    0  502  0.99767680205E+02  0.13045745439E+03  0.37166566674E+02  0.16838673077E+03  0.00000000000E+00 0.  1.
<scales pt_clust_5="13000.00000" pt_clust_6="13000.00000" pt_clust_7="13000.00000" pt_clust_8="13000.00000" pt_clust_9="128.37126"></scales>
<clustering>
<clus scale="   79.432">  5  6 -1 -1</clus>
<clus scale="   91.562">  7  8 -1 -1</clus>
<clus scale="  115.687">  1  7  2 -1</clus>
<clus scale="  128.371">  2  9  1 -1</clus>
<clus scale="  128.371">  2  5  1 -1</clus>
</clustering>
</event>
<event>
 9    2  0.3764910E-005  0.1778878E+03  0.7546771E-02  0.1171495E+00
          2   -1    0    0  502    0 -0.00000000000E+00  0.00000000000E+00  0.77400786799E+03  0.77400786799E+03  0.00000000000E+00 0. -1.
         21   -1    0    0  501  502  0.00000000000E+00 -0.00000000000E+00 -0.54009968619E+02  0.54009968619E+02  0.00000000000E+00 0. -1.
         23    2    1    2    0    0 -0.92803338611E+02 -0.13025352462E+03  0.47218755813E+03  0.50726916669E+03  0.93714871219E+02 0.  0.
         24    2    1    2    0    0  0.67325131733E+02  0.11638466700E+03  0.14375773672E+03  0.21272816842E+03  0.80677894709E+02 0.  0.
        -11    1    4    4    0    0  0.27998820233E+02  0.34193321116E+02  0.10460397896E+03  0.11355663590E+03  0.00000000000E+00 0.  1.
         12    1    4    4    0    0  0.39326311500E+02  0.82191345888E+02  0.39153757768E+02  0.99171532521E+02  0.00000000000E+00 0. -1.
        -13    1    3    3    0    0 -0.69792203144E+00 -0.64674142073E+02  0.10750822592E+03  0.12546413985E+03  0.00000000000E+00 0.  1.
         13    1    3    3    0    0 -0.92105416580E+02 -0.65579382551E+02  0.36467933221E+03  0.38180502684E+03  0.00000000000E+00 0. -1.
          1    1    1    2  501    0  0.25478206879E+02  0.13868857620E+02  0.10405260451E+03  0.10802050150E+03  0.00000000000E+00 0. -1.
<scales pt_clust_5="13000.00000" pt_clust_6="13000.00000" pt_clust_7="13000.00000" pt_clust_8="13000.00000" pt_clust_9="29.00836"></scales>
<clustering>
<clus scale="   29.008">  2  9  1 -1</clus>
<clus scale="   80.678">  5  6 -1 -1</clus>
<clus scale="   93.715">  7  8 -1 -1</clus>
<clus scale="  171.378">  2  5  1 -1</clus>
<clus scale="   29.008">  2  5  1 -1</clus>
</clustering>
</event>
<event>
 9    2  0.3764910E-005  0.1742788E+03  0.7546771E-02  0.1203831E+00
          2   -1    0    0  502    0 -0.00000000000E+00  0.00000000000E+00  0.12313926861E+04  0.12313926861E+04  0.00000000000E+00 0. -1.
         21   -1    0    0  501  502  0.00000000000E+00 -0.00000000000E+00 -0.27518690275E+03  0.27518690275E+03  0.00000000000E+00 0. -1.
         24    2    1    2    0    0  0.36226415883E+02  0.14836194875E+02  0.59833653121E+03  0.60491007837E+03  0.79856949904E+02 0.  0.
         23    2    1    2    0    0 -0.10797232386E+03 -0.14187057987E+03  0.59226288998E+03  0.62557969221E+03  0.93751460306E+02 0.  0.
        -13    1    3    3    0    0  0.14147703856E+02  0.46628699922E+02  0.27732365755E+03  0.28157202315E+03  0.00000000000E+00 0.  1.
         14    1    3    3    0    0  0.22078712026E+02 -0.31792505048E+02  0.32101287366E+03  0.32333805523E+03  0.00000000000E+00 0. -1.
        -13    1    4    4    0    0  0.13092625044E+02 -0.20010347616E+02  0.13531414726E+03  0.13741087763E+03  0.00000000000E+00 0.  1.
         13    1    4    4    0    0 -0.12106494890E+03 -0.12186023226E+03  0.45694874271E+03  0.48816881458E+03  0.00000000000E+00 0. -1.
          1    1    1    2  501    0  0.71745907974E+02  0.12703438500E+03 -0.23439363785E+03  0.27608981826E+03  0.00000000000E+00 0. -1.
<scales pt_clust_5="13000.00000" pt_clust_6="13000.00000" pt_clust_7="13000.00000" pt_clust_8="13000.00000" pt_clust_9="146.91411"></scales>
<clustering>
<clus scale="   79.857">  5  6 -1 -1</clus>
<clus scale="   88.936">  1  5  2 -1</clus>
<clus scale="   93.751">  7  8 -1 -1</clus>
<clus scale="  146.914">  2  9  1 -1</clus>
<clus scale="  146.914">  2  5  1 -1</clus>
</clustering>
</event>
<event>
 9    2  0.3764910E-005  0.1136255E+03  0.7546771E-02  0.1257121E+00
         21   -1    0    0  501  502  0.00000000000E+00  0.00000000000E+00  0.65692039140E+02  0.65692039140E+02  0.00000000000E+00 0.  1.
          2   -1    0    0  502    0 -0.00000000000E+00 -0.00000000000E+00 -0.40034283348E+03  0.40034283348E+03  0.00000000000E+00 0. -1.
         23    2    1    2    0    0  0.27111354960E+02  0.66293271676E+02 -0.24232092694E+03  0.26819472126E+03  0.89884111184E+02 0.  0.
         24    2    1    2    0    0  0.61958791134E+01 -0.67304553986E+02 -0.65083449520E+01  0.10577643294E+03  0.81104890766E+02 0.  0.
        -13    1    4    4    0    0 -0.20150771180E+02 -0.74752826450E+02  0.84921590452E+00  0.77425834248E+02  0.00000000000E+00 0.  1.
         14    1    4    4    0    0  0.26346650293E+02  0.74482724645E+01 -0.73575608565E+01  0.28350598691E+02  0.00000000000E+00 0. -1.
        -11    1    3    3    0    0  0.57110809363E+02  0.59594656582E+02 -0.19519984844E+03  0.21193430225E+03  0.00000000000E+00 0.  1.
         11    1    3    3    0    0 -0.29999454403E+02  0.66986150940E+01 -0.47121078503E+02  0.56260419017E+02  0.00000000000E+00 0. -1.
          1    1    1    2  501    0 -0.33307234074E+02  0.10112823099E+01 -0.85821522443E+02  0.92063718413E+02  0.00000000000E+00 0. -1.
<scales pt_clust_5="13000.00000" pt_clust_6="13000.00000" pt_clust_7="13000.00000" pt_clust_8="13000.00000" pt_clust_9="33.32260"></scales>
<clustering>
<clus scale="   33.323">  1  9  2 -1</clus>
<clus scale="   81.105">  5  6 -1 -1</clus>
<clus scale="   89.884">  7  8 -1 -1</clus>
<clus scale="  106.816">  1  5  2 -1</clus>
<clus scale="   33.323">  1  5  2 -1</clus>
</clustering>
</event>
<event>
 9    2  0.3764910E-005  0.1749992E+03  0.7546771E-02  0.1187056E+00
         -3   -1    0    0    0  501 -0.00000000000E+00  0.00000000000E+00  0.78213665853E+02  0.78213665853E+02  0.00000000000E+00 0.  1.
         21   -1    0    0  501  502  0.00000000000E+00 -0.00000000000E+00 -0.78995953558E+03  0.78995953558E+03  0.00000000000E+00 0.  1.
         23    2    1    2    0    0  0.58436872146E+02  0.58023329354E+02 -0.33980004446E+03  0.36269280468E+03  0.96438714126E+02 0.  0.
         24    2    1    2    0    0  0.11937059793E+03 -0.59519328109E+02 -0.11754569027E+03  0.19509811131E+03  0.80339241130E+02 0.  0.
        -13    1    4    4    0    0  0.20725383531E+02 -0.51791173347E+02 -0.32081545135E+02  0.64351322421E+02  0.00000000000E+00 0.  1.
         14    1    4    4    0    0  0.98645214400E+02 -0.77281547623E+01 -0.85464145134E+02  0.13074678888E+03  0.00000000000E+00 0. -1.
        -13    1    3    3    0    0  0.61987866087E+02  0.27433758426E+01 -0.10983016961E+03  0.12614550254E+03  0.00000000000E+00 0.  1.
         13    1    3    3    0    0 -0.35509939416E+01  0.55279953511E+02 -0.22996987484E+03  0.23654730215E+03  0.00000000000E+00 0. -1.
         -4    1    1    2    0  502 -0.17780747008E+03  0.14959987557E+01 -0.25440013500E+03  0.31038228544E+03  0.00000000000E+00 0.  1.
<scales pt_clust_5="13000.00000" pt_clust_6="13000.00000" pt_clust_7="13000.00000" pt_clust_8="13000.00000" pt_clust_9="155.46808"></scales>
<clustering>
<clus scale="   80.339">  5  6 -1 -1</clus>
<clus scale="   96.439">  7  8 -1 -1</clus>
<clus scale="  126.815">  1  7  2 -1</clus>
<clus scale="  155.468">  2  9  1 -1</clus>
<clus scale="  155.468">  2  5  1 -1</clus>
</clustering>
</event>
<event>
 9    2  0.3764910E-005  0.1327545E+03  0.7546771E-02  0.1226037E+00
         21   -1    0    0  501  502  0.00000000000E+00  0.00000000000E+00  0.17086917375E+03  0.17086917375E+03  0.00000000000E+00 0.  1.
         -1   -1    0    0    0  501 -0.00000000000E+00 -0.00000000000E+00 -0.27694776061E+03  0.27694776061E+03  0.00000000000E+00 0.  1.
         24    2    1    2    0    0  0.75255141387E+01  0.82312114215E+02 -0.90310218058E+02  0.14656287283E+03  0.80578053442E+02 0.  0.
         23    2    1    2    0    0 -0.14091673117E+02 -0.11228090731E+03 -0.12258841552E+03  0.19011556513E+03  0.91161565843E+02 0.  0.
        -11    1    3    3    0    0  0.15698025830E+02  0.18448897492E+02 -0.77128901647E+02  0.80843412241E+02  0.00000000000E+00 0.  1.
         12    1    3    3    0    0 -0.81725116909E+01  0.63863216723E+02 -0.13181316411E+02  0.65719460587E+02  0.00000000000E+00 0. -1.
        -13    1    4    4    0    0  0.30788589778E+02 -0.85249927938E+02 -0.93363202429E+02  0.13012369132E+03  0.00000000000E+00 0.  1.
         13    1    4    4    0    0 -0.44880262895E+02 -0.27030979375E+02 -0.29225213089E+02  0.59991873813E+02  0.00000000000E+00 0. -1.
         -2    1    1    2    0  502  0.65661589783E+01  0.29968793097E+02  0.10682004671E+03  0.11113849640E+03  0.00000000000E+00 0.  1.
<scales pt_clust_5="13000.00000" pt_clust_6="13000.00000" pt_clust_7="13000.00000" pt_clust_8="13000.00000" pt_clust_9="30.67968"></scales>
<clustering>
<clus scale="   30.680">  1  9  2 -1</clus>
<clus scale="   80.578">  5  6 -1 -1</clus>
<clus scale="   91.162">  7  8 -1 -1</clus>
<clus scale="  125.723">  2  5  1 -1</clus>
<clus scale="   30.680">  1  5  2 -1</clus>
</clustering>
</event>
<event>
 9    2  0.3764910E-005  0.9980746E+02  0.7546771E-02  0.1286776E+00
         21   -1    0    0  501  502  0.00000000000E+00  0.00000000000E+00  0.26646861172E+03  0.26646861172E+03  0.00000000000E+00 0.  1.
          2   -1    0    0  502    0 -0.00000000000E+00 -0.00000000000E+00 -0.29219681852E+03  0.29219681852E+03  0.00000000000E+00 0. -1.
         24    2    1    2    0    0 -0.35506173153E+02 -0.15285599378E+02 -0.25662122907E+03  0.27146561712E+03  0.79654178745E+02 0.  0.
         23    2    1    2    0    0  0.42836940083E+02  0.35331286099E+02  0.77208044331E+02  0.13203975981E+03  0.91597559180E+02 0.  0.
        -13    1    3    3    0    0 -0.23593225497E+02 -0.35831026966E+02 -0.61970369986E+02  0.75371277945E+02  0.00000000000E+00 0.  1.
         14    1    3    3    0    0 -0.11912947657E+02  0.20545427588E+02 -0.19465085908E+03  0.19609433918E+03  0.00000000000E+00 0. -1.
        -11    1    4    4    0    0  0.23513895219E+02  0.64688655207E+02  0.65447397542E+02  0.94978351353E+02  0.00000000000E+00 0.  1.
         11    1    4    4    0    0  0.19323044864E+02 -0.29357369108E+02  0.11760646789E+02  0.37061408455E+02  0.00000000000E+00 0. -1.
          1    1    1    2  501    0 -0.73307669301E+01 -0.20045686721E+02  0.15368497793E+03  0.15516005330E+03  0.00000000000E+00 0. -1.
<scales pt_clust_5="13000.00000" pt_clust_6="13000.00000" pt_clust_7="13000.00000" pt_clust_8="13000.00000" pt_clust_9="21.34408"></scales>
<clustering>
<clus scale="   21.344">  1  9  2 -1</clus>
<clus scale="   79.654">  5  6 -1 -1</clus>
<clus scale="   88.973">  2  5  1 -1</clus>
<clus scale="   91.598">  7  8 -1 -1</clus>
<clus scale="   21.344">  1  5  2 -1</clus>
</clustering>
</event>
<event>
 9    2  0.3764910E-005  0.1120651E+03  0.7546771E-02  0.1266217E+00
          2   -1    0    0  502    0 -0.00000000000E+00  0.00000000000E+00  0.15119685694E+03  0.15119685694E+03  0.00000000000E+00 0. -1.
         21   -1    0    0  501  502  0.00000000000E+00 -0.00000000000E+00 -0.18368628487E+03  0.18368628487E+03  0.00000000000E+00 0. -1.
         23    2    1    2    0    0 -0.38281987919E+02  0.10217960289E+02  0.59165617350E+02  0.12311874697E+03  0.10043773329E+03 0.  0.
         24    2    1    2    0    0  0.64157952859E+02 -0.37761683979E+01  0.14145666727E+02  0.10265503270E+03  0.78787394220E+02 0.  0.
        -13    1    4    4    0    0  0.23292641618E+02  0.36177179741E+02  0.14796577422E+02  0.45500265834E+02  0.00000000000E+00 0.  1.
         14    1    4    4    0    0  0.40865311241E+02 -0.39953348139E+02 -0.65091069551E+00  0.57154766863E+02  0.00000000000E+00 0. -1.
        -11    1    3    3    0    0  0.30707883837E+02 -0.14888466820E+02  0.23958681491E+02  0.41697230037E+02  0.00000000000E+00 0. -1.
         11    1    3    3    0    0 -0.68989871756E+02  0.25106427109E+02  0.35206935859E+02  0.81421516933E+02  0.00000000000E+00 0.  1.
          1    1    1    2  501    0 -0.25875964940E+02 -0.64417918912E+01 -0.10580071201E+03  0.10910936214E+03  0.00000000000E+00 0. -1.
<scales pt_clust_5="13000.00000" pt_clust_6="13000.00000" pt_clust_7="13000.00000" pt_clust_8="13000.00000" pt_clust_9="26.66575"></scales>
<clustering>
<clus scale="   26.666">  2  9  1 -1</clus>
<clus scale="   78.787">  5  6 -1 -1</clus>
<clus scale="   93.157">  2  5  1 -1</clus>
<clus scale="  100.438">  7  8 -1 -1</clus>
<clus scale="   26.666">  2  5  1 -1</clus>
</clustering>
</event>
<event>
 9    2  0.3764910E-005  0.1109194E+03  0.7546771E-02  0.1262535E+00
          2   -1    0    0  502    0 -0.00000000000E+00  0.00000000000E+00  0.11762073130E+03  0.11762073130E+03  0.00000000000E+00 0. -1.
         21   -1    0    0  501  502  0.00000000000E+00 -0.00000000000E+00 -0.60614065257E+03  0.60614065257E+03  0.00000000000E+00 0. -1.
         23    2    1    2    0    0  0.76610998721E+02  0.22522398372E+02  0.69374992753E+02  0.13806017753E+03  0.88719893179E+02 0.  0.
         24    2    1    2    0    0 -0.12319941132E+02  0.45635051475E+01 -0.13363015735E+03  0.15573891729E+03  0.78898573354E+02 0.  0.
        -13    1    4    4    0    0 -0.45073174023E+02 -0.37866913402E+01 -0.88106401001E+02  0.99038719425E+02  0.00000000000E+00 0.  1.
         14    1    4    4    0    0  0.32753232891E+02  0.83501964878E+01 -0.45523756346E+02  0.56700197866E+02  0.00000000000E+00 0. -1.
        -11    1    3    3    0    0  0.46629517125E+02 -0.24635556121E+02  0.52427993044E+01  0.52997258771E+02  0.00000000000E+00 0.  1.
         11    1    3    3    0    0  0.29981481595E+02  0.47157954492E+02  0.64132193449E+02  0.85062918755E+02  0.00000000000E+00 0. -1.
          1    1    1    2  501    0 -0.64291057588E+02 -0.27085903519E+02 -0.42426475668E+03  0.42996228906E+03  0.00000000000E+00 0. -1.
<scales pt_clust_5="13000.00000" pt_clust_6="13000.00000" pt_clust_7="13000.00000" pt_clust_8="13000.00000" pt_clust_9="69.76379"></scales>
<clustering>
<clus scale="   69.764">  2  9  1 -1</clus>
<clus scale="   78.899">  5  6 -1 -1</clus>
<clus scale="   88.720">  7  8 -1 -1</clus>
<clus scale="  103.232">  2  5  1 -1</clus>
<clus scale="   69.764">  2  5  1 -1</clus>
</clustering>
</event>
<event>
 9    2  0.3764910E-005  0.9592117E+02  0.7546771E-02  0.1295796E+00
         21   -1    0    0  501  502  0.00000000000E+00  0.00000000000E+00  0.17136072129E+03  0.17136072129E+03  0.00000000000E+00 0.  1.
         -3   -1    0    0    0  501 -0.00000000000E+00 -0.00000000000E+00 -0.74794553901E+02  0.74794553901E+02  0.00000000000E+00 0.  1.
         23    2    1    2    0    0 -0.19039182964E+02  0.92402613742E+01  0.17373614038E+02  0.95115628598E+02  0.91089337579E+02 0.  0.
         24    2    1    2    0    0  0.34533382772E+02 -0.32202006669E+02  0.81770296248E+02  0.12321956872E+03  0.79165377575E+02 0.  0.
        -13    1    4    4    0    0  0.52430893838E+02 -0.21373159107E+02  0.84920484280E+02  0.10206517138E+03  0.00000000000E+00 0.  1.
         14    1    4    4    0    0 -0.17897511066E+02 -0.10828847562E+02 -0.31501880315E+01  0.21154397333E+02  0.00000000000E+00 0. -1.
        -13    1    3    3    0    0  0.46207576927E+01 -0.31597655715E+02 -0.17516872999E+02  0.36422576625E+02  0.00000000000E+00 0.  1.
         13    1    3    3    0    0 -0.23659940657E+02  0.40837917089E+02  0.34890487038E+02  0.58693051972E+02  0.00000000000E+00 0. -1.
         -4    1    1    2    0  502 -0.15494199807E+02  0.22961745295E+02 -0.25777428984E+01  0.27820077878E+02  0.00000000000E+00 0.  1.
<scales pt_clust_5="13000.00000" pt_clust_6="13000.00000" pt_clust_7="13000.00000" pt_clust_8="13000.00000" pt_clust_9="27.70041"></scales>
<clustering>
<clus scale="   27.700">  1  9  2 -1</clus>
<clus scale="   79.165">  5  6 -1 -1</clus>
<clus scale="   84.680">  1  5  2 -1</clus>
<clus scale="   91.089">  7  8 -1 -1</clus>
<clus scale="   27.700">  1  5  2 -1</clus>
</clustering>
</event>
<event>
 9    2  0.3764910E-005  0.8593895E+02  0.7546771E-02  0.1323302E+00
         -1   -1    0    0    0  501 -0.00000000000E+00  0.00000000000E+00  0.11033889775E+03  0.11033889775E+03  0.00000000000E+00 0.  1.
         21   -1    0    0  501  502  0.00000000000E+00 -0.00000000000E+00 -0.10145847191E+03  0.10145847191E+03  0.00000000000E+00 0.  1.
         24    2    1    2    0    0 -0.14713476538E+02  0.42994552208E+02  0.43523109362E+02  0.10130670082E+03  0.79396276173E+02 0.  0.
         23    2    1    2    0    0 -0.12094502282E+02 -0.15457470057E+02 -0.24205634373E+02  0.70667426675E+02  0.63425248060E+02 0.  0.
        -11    1    3    3    0    0 -0.86819874154E+01  0.18938880727E+02  0.65150608401E+02  0.68400730140E+02  0.00000000000E+00 0.  1.
         12    1    3    3    0    0 -0.60314891229E+01  0.24055671480E+02 -0.21627499039E+02  0.32905970675E+02  0.00000000000E+00 0. -1.
        -11    1    4    4    0    0 -0.10190584763E+01 -0.38248006917E+02 -0.24303994679E+02  0.45328056110E+02  0.00000000000E+00 0.  1.
         11    1    4    4    0    0 -0.11075443806E+02  0.22790536860E+02  0.98360305781E-01  0.25339370565E+02  0.00000000000E+00 0. -1.
         -2    1    1    2    0  502  0.26807978821E+02 -0.27537082151E+02 -0.10437049151E+02  0.39823242169E+02  0.00000000000E+00 0.  1.
<scales pt_clust_5="13000.00000" pt_clust_6="13000.00000" pt_clust_7="13000.00000" pt_clust_8="13000.00000" pt_clust_9="38.43122"></scales>
<clustering>
<clus scale="   38.431">  2  9  1 -1</clus>
<clus scale="   63.425">  7  8 -1 -1</clus>
<clus scale="   71.446">  2  7  1 -1</clus>
<clus scale="   79.396">  5  6 -1 -1</clus>
<clus scale="   38.431">  2  5  1 -1</clus>
</clustering>
</event>
<event>
 9    2  0.3764910E-005  0.9648949E+02  0.7546771E-02  0.1291935E+00
          2   -1    0    0  502    0 -0.00000000000E+00  0.00000000000E+00  0.14789173685E+03  0.14789173685E+03  0.00000000000E+00 0. -1.
         21   -1    0    0  501  502  0.00000000000E+00 -0.00000000000E+00 -0.15467794431E+03  0.15467794431E+03  0.00000000000E+00 0. -1.
         24    2    1    2    0    0  0.31250915759E+02 -0.16924901047E+02  0.95629553185E+02  0.13252243730E+03  0.84581989428E+02 0.  0.
         23    2    1    2    0    0  0.70612736600E+01  0.12417964360E+02 -0.52390728170E+02  0.10687572962E+03  0.92051973136E+02 0.  0.
        -11    1    3    3    0    0  0.32209320891E+02  0.22592478891E+02  0.13883433676E+02  0.41720620626E+02  0.00000000000E+00 0.  1.
         12    1    3    3    0    0 -0.95840513234E+00 -0.39517379938E+02  0.81746119508E+02  0.90801816679E+02  0.00000000000E+00 0. -1.
        -13    1    4    4    0    0 -0.36010960272E+02  0.14068721360E+02 -0.50673190904E+02  0.63737669057E+02  0.00000000000E+00 0.  1.
         13    1    4    4    0    0  0.43072233932E+02 -0.16507569998E+01 -0.17175372662E+01  0.43138060559E+02  0.00000000000E+00 0. -1.
          1    1    1    2  501    0 -0.38312189419E+02  0.45069366868E+01 -0.50025032481E+02  0.63171514238E+02  0.00000000000E+00 0. -1.
<scales pt_clust_5="13000.00000" pt_clust_6="13000.00000" pt_clust_7="13000.00000" pt_clust_8="13000.00000" pt_clust_9="38.57637"></scales>
<clustering>
<clus scale="   38.576">  2  9  1 -1</clus>
<clus scale="   84.582">  5  6 -1 -1</clus>
<clus scale="   89.391">  1  5  2 -1</clus>
<clus scale="   92.052">  7  8 -1 -1</clus>
<clus scale="   38.576">  2  5  1 -1</clus>
</clustering>
</event>
<event>
 9    2  0.3764910E-005  0.9709532E+02  0.7546771E-02  0.1290847E+00
          2   -1    0    0  502    0 -0.00000000000E+00  0.00000000000E+00  0.83438252794E+03  0.83438252794E+03  0.00000000000E+00 0. -1.
         21   -1    0    0  501  502  0.00000000000E+00 -0.00000000000E+00 -0.60131025578E+02  0.60131025578E+02  0.00000000000E+00 0.  1.
         24    2    1    2    0    0  0.10175794775E+02  0.26977916999E+02  0.70922174318E+03  0.71475942164E+03  0.83989255368E+02 0.  0.
         23    2    1    2    0    0 -0.18353733185E+02 -0.45288693466E+02  0.96782028323E+02  0.14219924129E+03  0.92010531673E+02 0.  0.
        -11    1    3    3    0    0 -0.16593985866E+02 -0.22412461126E+02  0.13851447404E+03  0.14129380134E+03  0.00000000000E+00 0.  1.
         12    1    3    3    0    0  0.26769780641E+02  0.49390378124E+02  0.57070726914E+03  0.57346562029E+03  0.00000000000E+00 0. -1.
        -13    1    4    4    0    0  0.18669134292E+02 -0.57894079956E+02  0.38427782648E+02  0.71951063567E+02  0.00000000000E+00 0.  1.
         13    1    4    4    0    0 -0.37022867477E+02  0.12605386490E+02  0.58354245675E+02  0.70248177721E+02  0.00000000000E+00 0. -1.
          1    1    1    2  501    0  0.81779384095E+01  0.18310776467E+02 -0.31752269143E+02  0.37554890589E+02  0.00000000000E+00 0. -1.
<scales pt_clust_5="13000.00000" pt_clust_6="13000.00000" pt_clust_7="13000.00000" pt_clust_8="13000.00000" pt_clust_9="20.05401"></scales>
<clustering>
<clus scale="   20.054">  2  9  1 -1</clus>
<clus scale="   83.989">  5  6 -1 -1</clus>
<clus scale="   89.531">  1  5  2 -1</clus>
<clus scale="   92.011">  7  8 -1 -1</clus>
<clus scale="   20.054">  2  5  1 -1</clus>
</clustering>
</event>
<event>
 9    2  0.3764910E-005  0.1808656E+03  0.7546771E-02  0.1170145E+00
         -1   -1    0    0    0  501 -0.00000000000E+00  0.00000000000E+00  0.56261388814E+03  0.56261388814E+03  0.00000000000E+00 0.  1.
         21   -1    0    0  501  502  0.00000000000E+00 -0.00000000000E+00 -0.80830861381E+02  0.80830861381E+02  0.00000000000E+00 0. -1.
         24    2    1    2    0    0  0.11519179662E+03  0.10365558642E+03  0.25661753404E+03  0.31051809953E+03  0.80964811831E+02 0.  0.
         23    2    1    2    0    0 -0.10676459966E+03 -0.79245438006E+02  0.83248932136E+02  0.18867969799E+03  0.10483856422E+03 0.  0.
        -11    1    3    3    0    0  0.12700750860E+03  0.98951028647E+02  0.24572236302E+03  0.29377149793E+03  0.00000000000E+00 0.  1.
         12    1    3    3    0    0 -0.11815711981E+02  0.47045577679E+01  0.10895171029E+02  0.16746601600E+02  0.00000000000E+00 0. -1.
        -13    1    4    4    0    0 -0.76495913623E+02 -0.71217395846E+01  0.79225335853E+02  0.11035849680E+03  0.00000000000E+00 0.  1.
         13    1    4    4    0    0 -0.30268686033E+02 -0.72123698421E+02  0.40235962831E+01  0.78321201185E+02  0.00000000000E+00 0. -1.
         -2    1    1    2    0  502 -0.84271969651E+01 -0.24410148410E+02  0.14191656058E+03  0.14424695200E+03  0.00000000000E+00 0.  1.
<scales pt_clust_5="13000.00000" pt_clust_6="13000.00000" pt_clust_7="13000.00000" pt_clust_8="13000.00000" pt_clust_9="25.82390"></scales>
<clustering>
<clus scale="   25.824">  2  9  1 -1</clus>
<clus scale="   80.965">  5  6 -1 -1</clus>
<clus scale="  104.839">  7  8 -1 -1</clus>
<clus scale="  168.156">  1  5  2 -1</clus>
<clus scale="   25.824">  2  5  1 -1</clus>
</clustering>
</event>
<event>
 9    2  0.3764910E-005  0.9589598E+02  0.7546771E-02  0.1295086E+00
          4   -1    0    0  502    0 -0.00000000000E+00  0.00000000000E+00  0.36926518114E+03  0.36926518114E+03  0.00000000000E+00 0. -1.
         21   -1    0    0  501  502  0.00000000000E+00 -0.00000000000E+00 -0.76464909560E+02  0.76464909560E+02  0.00000000000E+00 0. -1.
         24    2    1    2    0    0  0.38173689568E+02 -0.60069458830E+00  0.26103670856E+03  0.27598073485E+03  0.81040800751E+02 0.  0.
         23    2    1    2    0    0  0.73119367927E+01 -0.22158092598E+02  0.59625471247E+02  0.11175633446E+03  0.91596047860E+02 0.  0.
        -11    1    3    3    0    0 -0.19534207975E+02  0.76395855316E+01  0.23966051790E+02  0.31848393785E+02  0.00000000000E+00 0.  1.
         12    1    3    3    0    0  0.57707897542E+02 -0.82402801199E+01  0.23707065677E+03  0.24413234107E+03  0.00000000000E+00 0. -1.
        -13    1    4    4    0    0 -0.34533376947E+02  0.10511201187E+02  0.65490673646E+01  0.36686915339E+02  0.00000000000E+00 0. -1.
         13    1    4    4    0    0  0.41845313739E+02 -0.32669293785E+02  0.53076403883E+02  0.75069419123E+02  0.00000000000E+00 0.  1.
          3    1    1    2  501    0 -0.45485626360E+02  0.22758787186E+02 -0.27861908224E+02  0.57993021386E+02  0.00000000000E+00 0. -1.
<scales pt_clust_5="13000.00000" pt_clust_6="13000.00000" pt_clust_7="13000.00000" pt_clust_8="13000.00000" pt_clust_9="50.86162"></scales>
<clustering>
<clus scale="   50.862">  2  9  1 -1</clus>
<clus scale="   81.041">  5  6 -1 -1</clus>
<clus scale="   85.871">  1  5  2 -1</clus>
<clus scale="   91.596">  7  8 -1 -1</clus>
<clus scale="   50.862">  2  5  1 -1</clus>
</clustering>
</event>
<event>
 9    2  0.3764910E-005  0.9780487E+02  0.7546771E-02  0.1289429E+00
          4   -1    0    0  502    0 -0.00000000000E+00  0.00000000000E+00  0.19638496201E+03  0.19638496201E+03  0.00000000000E+00 0. -1.
         21   -1    0    0  501  502  0.00000000000E+00 -0.00000000000E+00 -0.13120174981E+03  0.13120174981E+03  0.00000000000E+00 0. -1.
         23    2    1    2    0    0  0.66777285710E+01  0.51462273790E+02  0.10865725231E+03  0.14943165102E+03  0.88489898649E+02 0.  0.
         24    2    1    2    0    0 -0.40100170998E+02 -0.12559853606E+02  0.24130772757E+02  0.93297128484E+02  0.79726321581E+02 0.  0.
        -13    1    4    4    0    0 -0.44921274252E+02 -0.38598597084E+02  0.27988137611E+01  0.59292545365E+02  0.00000000000E+00 0.  1.
         14    1    4    4    0    0  0.48211032547E+01  0.26038743478E+02  0.21331958996E+02  0.34004583120E+02  0.00000000000E+00 0. -1.
        -11    1    3    3    0    0  0.31747085336E+02  0.28830509585E+02  0.84806553769E+01  0.43714954259E+02  0.00000000000E+00 0.  1.
         11    1    3    3    0    0 -0.25069356765E+02  0.22631764204E+02  0.10017659694E+03  0.10571669676E+03  0.00000000000E+00 0. -1.
          3    1    1    2  501    0  0.33422442427E+02 -0.38902420183E+02 -0.67604812873E+02  0.84857932319E+02  0.00000000000E+00 0. -1.
<scales pt_clust_5="13000.00000" pt_clust_6="13000.00000" pt_clust_7="13000.00000" pt_clust_8="13000.00000" pt_clust_9="51.28799"></scales>
<clustering>
<clus scale="   51.288">  2  9  1 -1</clus>
<clus scale="   79.726">  5  6 -1 -1</clus>
<clus scale="   88.490">  7  8 -1 -1</clus>
<clus scale="   89.953">  2  5  1 -1</clus>
<clus scale="   51.288">  2  5  1 -1</clus>
</clustering>
</event>
<event>
 9    2  0.3764910E-005  0.1096600E+03  0.7546771E-02  0.1265817E+00
         21   -1    0    0  501  502  0.00000000000E+00  0.00000000000E+00  0.10333897679E+03  0.10333897679E+03  0.00000000000E+00 0.  1.
         -3   -1    0    0    0  501 -0.00000000000E+00 -0.00000000000E+00 -0.16872172298E+03  0.16872172298E+03  0.00000000000E+00 0.  1.
         24    2    1    2    0    0  0.66457906204E+02 -0.16236899278E+02 -0.26125325528E+02  0.10891694300E+03  0.80623059005E+02 0.  0.
         23    2    1    2    0    0 -0.39635196728E+02  0.30201258941E+02  0.10144787508E+02  0.10522105608E+03  0.92116714374E+02 0.  0.
        -13    1    3    3    0    0  0.43728496281E+02  0.30776068840E+02 -0.11625680848E+02  0.54722063699E+02  0.00000000000E+00 0.  1.
         14    1    3    3    0    0  0.22729409923E+02 -0.47012968118E+02 -0.14499644680E+02  0.54194879302E+02  0.00000000000E+00 0. -1.
        -11    1    4    4    0    0 -0.11305667943E+02  0.35220466532E+02  0.46142217974E+02  0.59138850767E+02  0.00000000000E+00 0.  1.
         11    1    4    4    0    0 -0.28329528785E+02 -0.50192075916E+01 -0.35997430467E+02  0.46082205310E+02  0.00000000000E+00 0. -1.
         -4    1    1    2    0  502 -0.26822709476E+02 -0.13964359663E+02 -0.49402208167E+02  0.57922700699E+02  0.00000000000E+00 0.  1.
<scales pt_clust_5="13000.00000" pt_clust_6="13000.00000" pt_clust_7="13000.00000" pt_clust_8="13000.00000" pt_clust_9="30.24007"></scales>
<clustering>
<clus scale="   30.240">  1  9  2 -1</clus>
<clus scale="   80.623">  5  6 -1 -1</clus>
<clus scale="   92.117">  7  8 -1 -1</clus>
<clus scale="  100.199">  2  5  1 -1</clus>
<clus scale="   30.240">  1  5  2 -1</clus>
</clustering>
</event>
<event>
 9    2  0.3764910E-005  0.1054948E+03  0.7546771E-02  0.1280540E+00
         21   -1    0    0  501  502  0.00000000000E+00  0.00000000000E+00  0.13453109633E+03  0.13453109633E+03  0.00000000000E+00 0.  1.
         -1   -1    0    0    0  501 -0.00000000000E+00 -0.00000000000E+00 -0.14646805225E+03  0.14646805225E+03  0.00000000000E+00 0.  1.
         23    2    1    2    0    0  0.14467757702E+02  0.58502200590E+02 -0.20599738156E+02  0.11300538302E+03  0.93349043343E+02 0.  0.
         24    2    1    2    0    0  0.49890903003E+02 -0.32453922523E+02  0.28931402068E+02  0.95665576393E+02  0.69083407497E+02 0.  0.
        -13    1    4    4    0    0  0.22270899151E+02 -0.29402766740E+01  0.46460722958E+02  0.51606559212E+02  0.00000000000E+00 0.  1.
         14    1    4    4    0    0  0.27620003852E+02 -0.29513645849E+02 -0.17529320890E+02  0.44059017181E+02  0.00000000000E+00 0. -1.
        -11    1    3    3    0    0  0.51695911044E+02  0.34562478210E+02  0.40970873760E+01  0.62320287577E+02  0.00000000000E+00 0. -1.
         11    1    3    3    0    0 -0.37228153342E+02  0.23939722379E+02 -0.24696825532E+02  0.50685095445E+02  0.00000000000E+00 0.  1.
         -2    1    1    2    0  502 -0.64358660705E+02 -0.26048278066E+02 -0.20268619830E+02  0.72328189164E+02  0.00000000000E+00 0.  1.
<scales pt_clust_5="13000.00000" pt_clust_6="13000.00000" pt_clust_7="13000.00000" pt_clust_8="13000.00000" pt_clust_9="69.43022"></scales>
<clustering>
<clus scale="   69.083">  5  6 -1 -1</clus>
<clus scale="   69.430">  1  9  2 -1</clus>
<clus scale="   84.780">  1  5  2 -1</clus>
<clus scale="   93.349">  7  8 -1 -1</clus>
<clus scale="   69.430">  1  5  2 -1</clus>
</clustering>
</event>
<event>
 9    2  0.3764910E-005  0.1674566E+03  0.7546771E-02  0.1182051E+00
          2   -1    0    0  502    0 -0.00000000000E+00  0.00000000000E+00  0.41608197726E+03  0.41608197726E+03  0.00000000000E+00 0. -1.
         21   -1    0    0  501  502  0.00000000000E+00 -0.00000000000E+00 -0.10001732942E+03  0.10001732942E+03  0.00000000000E+00 0.  1.
         23    2    1    2    0    0 -0.22742342280E+02 -0.14453888488E+03  0.15462665387E+03  0.23131216029E+03  0.90483203064E+02 0.  0.
         24    2    1    2    0    0  0.86380689881E+02  0.11506456002E+03  0.11040140302E+03  0.19805013741E+03  0.79585869225E+02 0.  0.
        -13    1    4    4    0    0  0.28512112806E+02  0.10081488985E+03  0.67831041511E+02  0.12481038733E+03  0.00000000000E+00 0.  1.
         14    1    4    4    0    0  0.57868577075E+02  0.14249670172E+02  0.42570361513E+02  0.73239750082E+02  0.00000000000E+00 0. -1.
        -13    1    3    3    0    0  0.12238948273E+02 -0.48407524281E+02  0.10780784112E+03  0.11880913630E+03  0.00000000000E+00 0. -1.
         13    1    3    3    0    0 -0.34981290553E+02 -0.96131360596E+02  0.46818812750E+02  0.11250302399E+03  0.00000000000E+00 0.  1.
          1    1    1    2  501    0 -0.63638347600E+02  0.29474324855E+02  0.51036590948E+02  0.86737008979E+02  0.00000000000E+00 0. -1.
<scales pt_clust_5="13000.00000" pt_clust_6="13000.00000" pt_clust_7="13000.00000" pt_clust_8="13000.00000" pt_clust_9="70.13255"></scales>
<clustering>
<clus scale="   70.133">  2  9  1 -1</clus>
<clus scale="   79.586">  5  6 -1 -1</clus>
<clus scale="   90.483">  7  8 -1 -1</clus>
<clus scale="  161.828">  2  5  1 -1</clus>
<clus scale="   70.133">  2  5  1 -1</clus>
</clustering>
</event>
<event>
 9    2  0.3764910E-005  0.8936082E+02  0.7546771E-02  0.1306481E+00
         21   -1    0    0  501  502  0.00000000000E+00  0.00000000000E+00  0.64340007990E+02  0.64340007990E+02  0.00000000000E+00 0. -1.
         -1   -1    0    0    0  501 -0.00000000000E+00 -0.00000000000E+00 -0.17898609585E+03  0.17898609585E+03  0.00000000000E+00 0.  1.
         23    2    1    2    0    0  0.10802313125E+02 -0.30794845057E+02 -0.79948253371E+02  0.12187682877E+03  0.86007125996E+02 0.  0.
         24    2    1    2    0    0  0.15335635356E+02  0.14879202571E+02 -0.30508076925E+02  0.90561508973E+02  0.82547391048E+02 0.  0.
        -13    1    4    4    0    0 -0.33698788281E+02 -0.84981165713E+00 -0.13778862367E+02  0.36416858178E+02  0.00000000000E+00 0.  1.
         14    1    4    4    0    0  0.49034423636E+02  0.15729014228E+02 -0.16729214558E+02  0.54144650795E+02  0.00000000000E+00 0. -1.
        -13    1    3    3    0    0 -0.25247058865E+02  0.17478968813E+02 -0.18650741112E+02  0.35927405641E+02  0.00000000000E+00 0.  1.
         13    1    3    3    0    0  0.36049371989E+02 -0.48273813870E+02 -0.61297512259E+02  0.85949423125E+02  0.00000000000E+00 0. -1.
         -2    1    1    2    0  502 -0.26137948480E+02  0.15915642486E+02 -0.41897575664E+01  0.30887766105E+02  0.00000000000E+00 0.  1.
<scales pt_clust_5="13000.00000" pt_clust_6="13000.00000" pt_clust_7="13000.00000" pt_clust_8="13000.00000" pt_clust_9="30.60229"></scales>
<clustering>
<clus scale="   30.602">  1  9  2 -1</clus>
<clus scale="   82.547">  5  6 -1 -1</clus>
<clus scale="   86.007">  7  8 -1 -1</clus>
<clus scale="   86.036">  1  5  2 -1</clus>
<clus scale="   30.602">  1  5  2 -1</clus>
</clustering>
</event>
<event>
 9    2  0.3764910E-005  0.1019538E+03  0.7546771E-02  0.1289105E+00
         21   -1    0    0  501  502  0.00000000000E+00  0.00000000000E+00  0.30727180130E+03  0.30727180130E+03  0.00000000000E+00 0. -1.
         -3   -1    0    0    0  501 -0.00000000000E+00 -0.00000000000E+00 -0.54889311935E+02  0.54889311935E+02  0.00000000000E+00 0.  1.
         23    2    1    2    0    0 -0.50765091823E+01  0.31447609714E+02  0.46266358365E+02  0.11503364615E+03  0.10038645690E+03 0.  0.
         24    2    1    2    0    0 -0.19211521968E+02  0.11644893668E+02  0.16064123086E+03  0.17993491654E+03  0.77886346782E+02 0.  0.
        -11    1    4    4    0    0  0.16975744805E+02 -0.22061916066E+02  0.33759659696E+02  0.43756355824E+02  0.00000000000E+00 0.  1.
         12    1    4    4    0    0 -0.36187266773E+02  0.33706809735E+02  0.12688157116E+03  0.13617856072E+03  0.00000000000E+00 0. -1.
        -11    1    3    3    0    0  0.23742338027E+02  0.60102327432E+02  0.26550001258E+02  0.69863373412E+02  0.00000000000E+00 0.  1.
         11    1    3    3    0    0 -0.28818847210E+02 -0.28654717718E+02  0.19716357107E+02  0.45170272742E+02  0.00000000000E+00 0. -1.
         -4    1    1    2    0  502  0.24288031150E+02 -0.43092503382E+02  0.45474900146E+02  0.67192550541E+02  0.00000000000E+00 0.  1.
<scales pt_clust_5="13000.00000" pt_clust_6="13000.00000" pt_clust_7="13000.00000" pt_clust_8="13000.00000" pt_clust_9="49.46589"></scales>
<clustering>
<clus scale="   49.466">  1  9  2 -1</clus>
<clus scale="   77.886">  5  6 -1 -1</clus>
<clus scale="   79.896">  1  5  2 -1</clus>
<clus scale="  100.386">  7  8 -1 -1</clus>
<clus scale="   49.466">  1  5  2 -1</clus>
</clustering>
</event>
<event>
 9    2  0.3764910E-005  0.1363830E+03  0.7546771E-02  0.1232582E+00
         21   -1    0    0  501  502  0.00000000000E+00  0.00000000000E+00  0.16882108504E+03  0.16882108504E+03  0.00000000000E+00 0. -1.
          2   -1    0    0  502    0 -0.00000000000E+00 -0.00000000000E+00 -0.66507850371E+03  0.66507850371E+03  0.00000000000E+00 0. -1.
         24    2    1    2    0    0  0.32157846442E+02  0.51476992370E+02 -0.20312292060E+02  0.10329772249E+03  0.81079112182E+02 0.  0.
         23    2    1    2    0    0  0.49690552296E+02 -0.11267219201E+03 -0.57100096942E+03  0.59103243519E+03  0.90072518134E+02 0.  0.
        -11    1    3    3    0    0 -0.25691414714E+02  0.18004965642E+02  0.51200541595E+01  0.31787458728E+02  0.00000000000E+00 0.  1.
         12    1    3    3    0    0  0.57849261155E+02  0.33472026728E+02 -0.25432346220E+02  0.71510263765E+02  0.00000000000E+00 0. -1.
        -13    1    4    4    0    0 -0.12466940143E+02 -0.18695081445E+02 -0.25375040905E+02  0.33894296979E+02  0.00000000000E+00 0.  1.
         13    1    4    4    0    0  0.62157492439E+02 -0.93977110565E+02 -0.54562592852E+03  0.55713813821E+03  0.00000000000E+00 0. -1.
          1    1    1    2  501    0 -0.81848398738E+02  0.61195199640E+02  0.95055842817E+02  0.13956943107E+03  0.00000000000E+00 0. -1.
<scales pt_clust_5="13000.00000" pt_clust_6="13000.00000" pt_clust_7="13000.00000" pt_clust_8="13000.00000" pt_clust_9="102.40730"></scales>
<clustering>
<clus scale="   81.079">  5  6 -1 -1</clus>
<clus scale="   90.073">  7  8 -1 -1</clus>
<clus scale="  101.281">  2  5  1 -1</clus>
<clus scale="  102.407">  1  9  2 -1</clus>
<clus scale="  102.407">  1  5  2 -1</clus>
</clustering>
</event>
<event>
 9    2  0.3764910E-005  0.9812925E+02  0.7546771E-02  0.1289018E+00
          2   -1    0    0  502    0 -0.00000000000E+00  0.00000000000E+00  0.30939398616E+03  0.30939398616E+03  0.00000000000E+00 0. -1.
         21   -1    0    0  501  502  0.00000000000E+00 -0.00000000000E+00 -0.12496782643E+03  0.12496782643E+03  0.00000000000E+00 0.  1.
         24    2    1    2    0    0  0.38255301976E+02  0.85942534207E+01  0.27125664652E+03  0.28586460962E+03  0.81247014897E+02 0.  0.
         23    2    1    2    0    0 -0.28682049415E+02  0.11801771296E+02 -0.57632707207E+02  0.11161691932E+03  0.90414965429E+02 0.  0.
        -13    1    3    3    0    0  0.36035874246E+02  0.29243777505E+02  0.72867129581E+02  0.86390979441E+02  0.00000000000E+00 0.  1.
         14    1    3    3    0    0  0.22194277296E+01 -0.20649524085E+02  0.19838951694E+03  0.19947363018E+03  0.00000000000E+00 0. -1.
        -11    1    4    4    0    0  0.11670953014E+02  0.42881669308E+02 -0.23169060207E+02  0.50118400391E+02  0.00000000000E+00 0.  1.
         11    1    4    4    0    0 -0.40353002430E+02 -0.31079898012E+02 -0.34463647000E+02  0.61498518926E+02  0.00000000000E+00 0. -1.
          1    1    1    2  501    0 -0.95732525607E+01 -0.20396024717E+02 -0.29197779596E+02  0.36880283651E+02  0.00000000000E+00 0. -1.
<scales pt_clust_5="13000.00000" pt_clust_6="13000.00000" pt_clust_7="13000.00000" pt_clust_8="13000.00000" pt_clust_9="22.53098"></scales>
<clustering>
<clus scale="   22.531">  2  9  1 -1</clus>
<clus scale="   81.247">  5  6 -1 -1</clus>
<clus scale="   89.753">  1  5  2 -1</clus>
<clus scale="   90.415">  7  8 -1 -1</clus>
<clus scale="   22.531">  2  5  1 -1</clus>
</clustering>
</event>
<event>
 9    2  0.3764910E-005  0.9922405E+02  0.7546771E-02  0.1287504E+00
         -3   -1    0    0    0  501 -0.00000000000E+00  0.00000000000E+00  0.13463360324E+03  0.13463360324E+03  0.00000000000E+00 0.  1.
         21   -1    0    0  501  502  0.00000000000E+00 -0.00000000000E+00 -0.11573231045E+03  0.11573231045E+03  0.00000000000E+00 0.  1.
         24    2    1    2    0    0 -0.25111864430E+02 -0.29832404783E+02  0.36448014853E+02  0.96640713251E+02  0.80562966434E+02 0.  0.
         23    2    1    2    0    0  0.48914480672E+02 -0.20669229303E+01  0.11657826834E+02  0.10435884222E+03  0.91421903464E+02 0.  0.
        -13    1    3    3    0    0 -0.31857351003E+02 -0.21501531944E+02 -0.17073686332E+02  0.42056122668E+02  0.00000000000E+00 0.  1.
         14    1    3    3    0    0  0.67454865729E+01 -0.83308728390E+01  0.53521701185E+02  0.54584590583E+02  0.00000000000E+00 0. -1.
        -11    1    4    4    0    0  0.65375403162E+02 -0.29479398882E+02  0.89091205737E+01  0.72265833742E+02  0.00000000000E+00 0.  1.
         11    1    4    4    0    0 -0.16460922490E+02  0.27412475952E+02  0.27487062602E+01  0.32093008477E+02  0.00000000000E+00 0. -1.
         -4    1    1    2    0  502 -0.23802616241E+02  0.31899327713E+02 -0.29204548897E+02  0.49366358229E+02  0.00000000000E+00 0.  1.
<scales pt_clust_5="13000.00000" pt_clust_6="13000.00000" pt_clust_7="13000.00000" pt_clust_8="13000.00000" pt_clust_9="39.80115"></scales>
<clustering>
<clus scale="   39.801">  2  9  1 -1</clus>
<clus scale="   80.563">  5  6 -1 -1</clus>
<clus scale="   89.319">  1  5  2 -1</clus>
<clus scale="   91.422">  7  8 -1 -1</clus>
<clus scale="   39.801">  2  5  1 -1</clus>
</clustering>
</event>
<event>
 9    2  0.4113432E-005  0.2743930E+03  0.7546771E-02  0.1127954E+00
         -1   -1    0    0    0  501 -0.00000000000E+00  0.00000000000E+00  0.66536798749E+03  0.66536798749E+03  0.00000000000E+00 0.  1.
         21   -1    0    0  501  502  0.00000000000E+00 -0.00000000000E+00 -0.17858511295E+03  0.17858511295E+03  0.00000000000E+00 0.  1.
         23    2    1    2    0    0  0.40718611725E+02  0.85881382210E+02  0.14991095215E+03  0.19916903930E+03  0.90340442163E+02 0.  0.
         24    2    1    2    0    0  0.23809140730E+03 -0.34650315423E+02  0.22751153558E+03  0.34094307787E+03  0.81194340547E+02 0.  0.
        -11    1    4    4    0    0  0.23767761579E+03 -0.21937916816E+02  0.22491545334E+03  0.32796170873E+03  0.00000000000E+00 0.  1.
         12    1    4    4    0    0  0.41379150669E+00 -0.12712398607E+02  0.25960822428E+01  0.12981369140E+02  0.00000000000E+00 0. -1.
        -13    1    3    3    0    0 -0.12752795221E+02  0.26826622821E+02  0.34080108289E+00  0.29705515032E+02  0.00000000000E+00 0. -1.
         13    1    3    3    0    0  0.53471406946E+02  0.59054759389E+02  0.14957015107E+03  0.16946352427E+03  0.00000000000E+00 0.  1.
         -2    1    1    2    0  502 -0.27881001902E+03 -0.51231066787E+02  0.10936038682E+03  0.30384098327E+03  0.00000000000E+00 0.  1.
<scales pt_clust_5="13000.00000" pt_clust_6="13000.00000" pt_clust_7="13000.00000" pt_clust_8="13000.00000" pt_clust_9="262.10489"></scales>
<clustering>
<clus scale="   81.194">  5  6 -1 -1</clus>
<clus scale="   90.340">  7  8 -1 -1</clus>
<clus scale="  131.130">  1  7  2 -1</clus>
<clus scale="  262.105">  2  9  1 -1</clus>
<clus scale="  262.105">  2  5  1 -1</clus>
</clustering>
</event>
<event>
 9    2  0.3764910E-005  0.9559373E+02  0.7546771E-02  0.1295971E+00
          2   -1    0    0  502    0 -0.00000000000E+00  0.00000000000E+00  0.13279350671E+03  0.13279350671E+03  0.00000000000E+00 0. -1.
         21   -1    0    0  501  502  0.00000000000E+00 -0.00000000000E+00 -0.96515972089E+02  0.96515972089E+02  0.00000000000E+00 0.  1.
         23    2    1    2    0    0 -0.17193854243E+02 -0.78076737954E+01  0.20626256915E+02  0.94074493762E+02  0.89821932224E+02 0.  0.
         24    2    1    2    0    0  0.20458643835E+02  0.47427986015E+02  0.15713302611E+02  0.95480339537E+02  0.78750348534E+02 0.  0.
        -11    1    4    4    0    0 -0.28501904821E+02  0.14030183681E+02 -0.60596203921E+01  0.32340742599E+02  0.00000000000E+00 0.  1.
         12    1    4    4    0    0  0.48960548656E+02  0.33397802334E+02  0.21772923003E+02  0.63139596938E+02  0.00000000000E+00 0. -1.
        -11    1    3    3    0    0  0.28516090191E+02 -0.13874045008E+01 -0.18115525681E+02  0.33812195459E+02  0.00000000000E+00 0.  1.
         11    1    3    3    0    0 -0.45709944435E+02 -0.64202692946E+01  0.38741782596E+02  0.60262298303E+02  0.00000000000E+00 0. -1.
          1    1    1    2  501    0 -0.32647895913E+01 -0.39620312219E+02 -0.62024908674E-01  0.39754645496E+02  0.00000000000E+00 0. -1.
<scales pt_clust_5="13000.00000" pt_clust_6="13000.00000" pt_clust_7="13000.00000" pt_clust_8="13000.00000" pt_clust_9="39.75460"></scales>
<clustering>
<clus scale="   39.755">  2  9  1 -1</clus>
<clus scale="   78.750">  5  6 -1 -1</clus>
<clus scale="   85.275">  2  5  1 -1</clus>
<clus scale="   89.822">  7  8 -1 -1</clus>
<clus scale="   39.755">  2  5  1 -1</clus>
</clustering>
</event>
<event>
 9    2  0.3764910E-005  0.1399347E+03  0.7546771E-02  0.1214675E+00
          2   -1    0    0  502    0 -0.00000000000E+00  0.00000000000E+00  0.15154780739E+04  0.15154780739E+04  0.00000000000E+00 0. -1.
         21   -1    0    0  501  502  0.00000000000E+00 -0.00000000000E+00 -0.52504550532E+02  0.52504550532E+02  0.00000000000E+00 0.  1.
         24    2    1    2    0    0  0.51429836195E+02 -0.96856184680E+02  0.11574964342E+04  0.11657655287E+04  0.84765111219E+02 0.  0.
         23    2    1    2    0    0 -0.12580307430E+03  0.24972352740E+02  0.20275936998E+03  0.25644469209E+03  0.90567577439E+02 0.  0.
        -13    1    3    3    0    0  0.66684882649E+00 -0.56711750556E+02  0.26893440646E+03  0.27484974498E+03  0.00000000000E+00 0.  1.
         14    1    3    3    0    0  0.50762987369E+02 -0.40144434124E+02  0.88856202774E+03  0.89091578368E+03  0.00000000000E+00 0. -1.
        -11    1    4    4    0    0 -0.64099938858E+02  0.56659782833E+02  0.13245857683E+03  0.15768451962E+03  0.00000000000E+00 0.  1.
         11    1    4    4    0    0 -0.61703135438E+02 -0.31687430093E+02  0.70300793149E+02  0.98760172469E+02  0.00000000000E+00 0. -1.
          1    1    1    2  501    0  0.74373238101E+02  0.71883831940E+02  0.10271771922E+03  0.14577240370E+03  0.00000000000E+00 0. -1.
<scales pt_clust_5="13000.00000" pt_clust_6="13000.00000" pt_clust_7="13000.00000" pt_clust_8="13000.00000" pt_clust_9="103.43435"></scales>
<clustering>
<clus scale="   84.765">  5  6 -1 -1</clus>
<clus scale="   90.568">  7  8 -1 -1</clus>
<clus scale="  103.434">  2  9  1 -1</clus>
<clus scale="  136.251">  1  5  2 -1</clus>
<clus scale="  103.434">  2  5  1 -1</clus>
</clustering>
</event>
<event>
 9    2  0.3764910E-005  0.1698398E+03  0.7546771E-02  0.1179985E+00
         -1   -1    0    0    0  501 -0.00000000000E+00  0.00000000000E+00  0.43778372578E+03  0.43778372578E+03  0.00000000000E+00 0.  1.
         21   -1    0    0  501  502  0.00000000000E+00 -0.00000000000E+00 -0.12408150687E+03  0.12408150687E+03  0.00000000000E+00 0.  1.
         24    2    1    2    0    0  0.95306898713E+02 -0.95068617327E+02  0.64136796295E+02  0.16887524677E+03  0.79270886145E+02 0.  0.
         23    2    1    2    0    0 -0.29406204082E+02  0.16162095202E+03  0.93209833125E+02  0.21072867575E+03  0.93447551193E+02 0.  0.
        -11    1    3    3    0    0  0.95989534645E+02 -0.47452787146E+02  0.33277961118E+02  0.11213019426E+03  0.00000000000E+00 0.  1.
         12    1    3    3    0    0 -0.68263593211E+00 -0.47615830181E+02  0.30858835177E+02  0.56745052508E+02  0.00000000000E+00 0. -1.
        -13    1    4    4    0    0  0.18011219551E+02  0.43631459956E+02  0.65243917084E+02  0.80528734276E+02  0.00000000000E+00 0.  1.
         13    1    4    4    0    0 -0.47417423632E+02  0.11798949206E+03  0.27965916041E+02  0.13019994148E+03  0.00000000000E+00 0. -1.
         -2    1    1    2    0  502 -0.65900694631E+02 -0.66552334688E+02  0.15635558948E+03  0.18226131012E+03  0.00000000000E+00 0.  1.
<scales pt_clust_5="13000.00000" pt_clust_6="13000.00000" pt_clust_7="13000.00000" pt_clust_8="13000.00000" pt_clust_9="93.65962"></scales>
<clustering>
<clus scale="   79.271">  5  6 -1 -1</clus>
<clus scale="   93.448">  7  8 -1 -1</clus>
<clus scale="   93.660">  2  9  1 -1</clus>
<clus scale="  162.471">  1  5  2 -1</clus>
<clus scale="   93.660">  2  5  1 -1</clus>
</clustering>
</event>
<event>
 9    2  0.3764910E-005  0.1608256E+03  0.7546771E-02  0.1190058E+00
         21   -1    0    0  501  502  0.00000000000E+00  0.00000000000E+00  0.15193966040E+03  0.15193966040E+03  0.00000000000E+00 0.  1.
          2   -1    0    0  502    0 -0.00000000000E+00 -0.00000000000E+00 -0.39029369946E+03  0.39029369946E+03  0.00000000000E+00 0. -1.
         24    2    1    2    0    0 -0.14991438544E+03 -0.97409674955E+02 -0.76034907141E+02  0.21086086847E+03  0.81963595650E+02 0.  0.
         23    2    1    2    0    0  0.36527666373E+02  0.10753017659E+03  0.27260989219E+01  0.13087585591E+03  0.64992682324E+02 0.  0.
        -11    1    3    3    0    0 -0.59789397130E+02  0.48386166586E+01 -0.29424900507E+02  0.66813239633E+02  0.00000000000E+00 0.  1.
         12    1    3    3    0    0 -0.90124988312E+02 -0.10224829161E+03 -0.46610006634E+02  0.14404762884E+03  0.00000000000E+00 0. -1.
        -13    1    4    4    0    0  0.13152236802E+02  0.10390889134E+03 -0.77107743753E+01  0.10502140293E+03  0.00000000000E+00 0.  1.
         13    1    4    4    0    0  0.23375429571E+02  0.36212852538E+01  0.10436873297E+02  0.25854452977E+02  0.00000000000E+00 0. -1.
          1    1    1    2  501    0  0.11338671907E+03 -0.10120501637E+02 -0.16504523084E+03  0.20049663548E+03  0.00000000000E+00 0. -1.
<scales pt_clust_5="13000.00000" pt_clust_6="13000.00000" pt_clust_7="13000.00000" pt_clust_8="13000.00000" pt_clust_9="113.83754"></scales>
<clustering>
<clus scale="   64.993">  7  8 -1 -1</clus>
<clus scale="   81.964">  5  6 -1 -1</clus>
<clus scale="  113.838">  1  9  2 -1</clus>
<clus scale="  152.875">  1  7  2 -1</clus>
<clus scale="  113.838">  1  5  2 -1</clus>
</clustering>
</event>
<event>
 9    2  0.3764910E-005  0.9579826E+02  0.7546771E-02  0.1293693E+00
         21   -1    0    0  501  502  0.00000000000E+00  0.00000000000E+00  0.48691737837E+03  0.48691737837E+03  0.00000000000E+00 0. -1.
          4   -1    0    0  502    0 -0.00000000000E+00 -0.00000000000E+00 -0.23116501138E+03  0.23116501138E+03  0.00000000000E+00 0. -1.
         23    2    1    2    0    0  0.24843057206E+02  0.11129377916E+02 -0.19459789031E+03  0.21675279719E+03  0.91500795796E+02 0.  0.
         24    2    1    2    0    0 -0.74243077437E+02  0.57535059843E+02  0.19261852403E+03  0.23007175701E+03  0.83718575701E+02 0.  0.
        -11    1    4    4    0    0 -0.25723094608E+02 -0.21075363724E+02  0.45557923164E+02  0.56403660478E+02  0.00000000000E+00 0.  1.
         12    1    4    4    0    0 -0.48519982829E+02  0.78610423568E+02  0.14706060087E+03  0.17366809654E+03  0.00000000000E+00 0. -1.
        -13    1    3    3    0    0  0.46969753745E+02 -0.17295869507E+02 -0.15655410397E+03  0.16436086012E+03  0.00000000000E+00 0. -1.
         13    1    3    3    0    0 -0.22126696538E+02  0.28425247423E+02 -0.38043786338E+02  0.52391937068E+02  0.00000000000E+00 0.  1.
          3    1    1    2  501    0  0.49400020231E+02 -0.68664437759E+02  0.25773173327E+03  0.27125783555E+03  0.00000000000E+00 0. -1.
<scales pt_clust_5="13000.00000" pt_clust_6="13000.00000" pt_clust_7="13000.00000" pt_clust_8="13000.00000" pt_clust_9="84.58822"></scales>
<clustering>
<clus scale="   83.719">  5  6 -1 -1</clus>
<clus scale="   84.588">  1  9  2 -1</clus>
<clus scale="   88.395">  1  5  2 -1</clus>
<clus scale="   91.501">  7  8 -1 -1</clus>
<clus scale="   84.588">  1  5  2 -1</clus>
</clustering>
</event>
<event>
 9    2  0.3764910E-005  0.9349759E+02  0.7546771E-02  0.1308341E+00
         21   -1    0    0  501  502  0.00000000000E+00  0.00000000000E+00  0.49630714801E+02  0.49630714801E+02  0.00000000000E+00 0. -1.
          2   -1    0    0  502    0 -0.00000000000E+00 -0.00000000000E+00 -0.59514085977E+03  0.59514085977E+03  0.00000000000E+00 0. -1.
         24    2    1    2    0    0 -0.19806737773E+02 -0.15333192607E+02 -0.29471177306E+03  0.30414189923E+03  0.70850914129E+02 0.  0.
         23    2    1    2    0    0  0.39458679248E+01 -0.26867873739E+01 -0.28459427007E+03  0.29917548854E+03  0.92137319722E+02 0.  0.
        -11    1    3    3    0    0 -0.21430801427E+02 -0.19874187308E+02 -0.40823228253E+02  0.50207554571E+02  0.00000000000E+00 0.  1.
         12    1    3    3    0    0  0.16240636537E+01  0.45409947011E+01 -0.25388854481E+03  0.25393434466E+03  0.00000000000E+00 0. -1.
        -11    1    4    4    0    0 -0.35046626679E+02  0.41061980363E+01 -0.49598399448E+02  0.60869763690E+02  0.00000000000E+00 0. -1.
         11    1    4    4    0    0  0.38992494604E+02 -0.67929854102E+01 -0.23499587062E+03  0.23830572485E+03  0.00000000000E+00 0.  1.
          1    1    1    2  501    0  0.15860869848E+02  0.18019979981E+02  0.33795898160E+02  0.41454186800E+02  0.00000000000E+00 0. -1.
<scales pt_clust_5="13000.00000" pt_clust_6="13000.00000" pt_clust_7="13000.00000" pt_clust_8="13000.00000" pt_clust_9="24.00598"></scales>
<clustering>
<clus scale="   24.006">  1  9  2 -1</clus>
<clus scale="   70.851">  5  6 -1 -1</clus>
<clus scale="   72.611">  2  5  1 -1</clus>
<clus scale="   92.137">  7  8 -1 -1</clus>
<clus scale="   24.006">  1  5  2 -1</clus>
</clustering>
</event>
<event>
 9    2  0.3764910E-005  0.2249528E+03  0.7546771E-02  0.1152697E+00
         -1   -1    0    0    0  501 -0.00000000000E+00  0.00000000000E+00  0.11253598676E+03  0.11253598676E+03  0.00000000000E+00 0.  1.
         21   -1    0    0  501  502  0.00000000000E+00 -0.00000000000E+00 -0.10100259177E+04  0.10100259177E+04  0.00000000000E+00 0.  1.
         24    2    1    2    0    0  0.82461260736E+02 -0.61573003575E+02 -0.12801239317E+02  0.13168444468E+03  0.81153108076E+02 0.  0.
         23    2    1    2    0    0 -0.25196639228E+03  0.82253257299E+01 -0.58492107782E+03  0.64239706345E+03  0.83585890073E+02 0.  0.
        -11    1    3    3    0    0  0.90438198988E+02 -0.36920567049E+02  0.86221935999E+01  0.98063950206E+02  0.00000000000E+00 0.  1.
         12    1    3    3    0    0 -0.79769382524E+01 -0.24652436525E+02 -0.21423432917E+02  0.33620494471E+02  0.00000000000E+00 0. -1.
        -13    1    4    4    0    0 -0.14998728000E+03  0.37589019207E+02 -0.28483249085E+03  0.32409669293E+03  0.00000000000E+00 0.  1.
         13    1    4    4    0    0 -0.10197911228E+03 -0.29363693477E+02 -0.30008858698E+03  0.31830037052E+03  0.00000000000E+00 0. -1.
         -2    1    1    2    0  502  0.16950513154E+03  0.53347677845E+02 -0.29976761379E+03  0.34848039633E+03  0.00000000000E+00 0.  1.
<scales pt_clust_5="13000.00000" pt_clust_6="13000.00000" pt_clust_7="13000.00000" pt_clust_8="13000.00000" pt_clust_9="208.84722"></scales>
<clustering>
<clus scale="   81.153">  5  6 -1 -1</clus>
<clus scale="   83.586">  7  8 -1 -1</clus>
<clus scale="  131.061">  1  5  2 -1</clus>
<clus scale="  208.847">  2  9  1 -1</clus>
<clus scale="  208.847">  2  5  1 -1</clus>
</clustering>
</event>
<event>
 9    2  0.3764910E-005  0.9269613E+02  0.7546771E-02  0.1303469E+00
         -1   -1    0    0    0  501 -0.00000000000E+00  0.00000000000E+00  0.85936979907E+03  0.85936979907E+03  0.00000000000E+00 0.  1.
         21   -1    0    0  501  502  0.00000000000E+00 -0.00000000000E+00 -0.23551992846E+02  0.23551992846E+02  0.00000000000E+00 0.  1.
         23    2    1    2    0    0 -0.50354295866E+02  0.74422777824E+01  0.30305262138E+03  0.32056069751E+03  0.91254188159E+02 0.  0.
         24    2    1    2    0    0 -0.26710162635E+02  0.22921045507E+01  0.15201718072E+03  0.17377039507E+03  0.79801255854E+02 0.  0.
        -11    1    4    4    0    0  0.95391013646E+01 -0.27513290756E+02  0.97900328552E+02  0.10213936535E+03  0.00000000000E+00 0.  1.
         12    1    4    4    0    0 -0.36249264000E+02  0.29805395306E+02  0.54116852169E+02  0.71631029719E+02  0.00000000000E+00 0. -1.
        -11    1    3    3    0    0  0.20012429897E+02 -0.15818031976E+02  0.41518827841E+02  0.48729052436E+02  0.00000000000E+00 0. -1.
         11    1    3    3    0    0 -0.70366725764E+02  0.23260309759E+02  0.26153379353E+03  0.27183164508E+03  0.00000000000E+00 0.  1.
         -2    1    1    2    0  502  0.77064458502E+02 -0.97343823331E+01  0.38074800413E+03  0.38859069934E+03  0.00000000000E+00 0.  1.
<scales pt_clust_5="13000.00000" pt_clust_6="13000.00000" pt_clust_7="13000.00000" pt_clust_8="13000.00000" pt_clust_9="77.67686"></scales>
<clustering>
<clus scale="   77.677">  2  9  1 -1</clus>
<clus scale="   79.801">  5  6 -1 -1</clus>
<clus scale="   81.446">  2  5  1 -1</clus>
<clus scale="   91.254">  7  8 -1 -1</clus>
<clus scale="   77.677">  2  5  1 -1</clus>
</clustering>
</event>
<event>
 9    2  0.3764910E-005  0.9349910E+02  0.7546771E-02  0.1301716E+00
         21   -1    0    0  501  502  0.00000000000E+00  0.00000000000E+00  0.17563886849E+02  0.17563886849E+02  0.00000000000E+00 0. -1.
          2   -1    0    0  502    0 -0.00000000000E+00 -0.00000000000E+00 -0.63881046500E+03  0.63881046500E+03  0.00000000000E+00 0. -1.
         24    2    1    2    0    0 -0.31608356937E+00 -0.25147401076E+02 -0.33897066434E+03  0.34899143450E+03  0.79129124711E+02 0.  0.
         23    2    1    2    0    0 -0.16890696087E+02  0.12784037703E+02 -0.26153917221E+03  0.27773602085E+03  0.91026542526E+02 0.  0.
        -13    1    3    3    0    0 -0.11153721549E+02 -0.26835237038E+02 -0.38086295861E+02  0.47907216405E+02  0.00000000000E+00 0.  1.
         14    1    3    3    0    0  0.10837637979E+02  0.16878359623E+01 -0.30088436848E+03  0.30108421809E+03  0.00000000000E+00 0. -1.
        -13    1    4    4    0    0  0.14586381529E+02  0.40764027251E+02 -0.18865186020E+03  0.19355617479E+03  0.00000000000E+00 0.  1.
         13    1    4    4    0    0 -0.31477077616E+02 -0.27979989548E+02 -0.72887312007E+02  0.84179846055E+02  0.00000000000E+00 0. -1.
          1    1    1    2  501    0  0.17206779656E+02  0.12363363373E+02 -0.20736741601E+02  0.29646896503E+02  0.00000000000E+00 0. -1.
<scales pt_clust_5="13000.00000" pt_clust_6="13000.00000" pt_clust_7="13000.00000" pt_clust_8="13000.00000" pt_clust_9="21.18787"></scales>
<clustering>
<clus scale="   21.188">  1  9  2 -1</clus>
<clus scale="   79.129">  5  6 -1 -1</clus>
<clus scale="   81.961">  2  5  1 -1</clus>
<clus scale="   91.027">  7  8 -1 -1</clus>
<clus scale="   21.188">  1  5  2 -1</clus>
</clustering>
</event>
<event>
 9    2  0.3764910E-005  0.4421760E+03  0.7546771E-02  0.1030239E+00
          2   -1    0    0  502    0 -0.00000000000E+00  0.00000000000E+00  0.84904583858E+03  0.84904583858E+03  0.00000000000E+00 0. -1.
         21   -1    0    0  501  502  0.00000000000E+00 -0.00000000000E+00 -0.62827824330E+03  0.62827824330E+03  0.00000000000E+00 0. -1.
         24    2    1    2    0    0 -0.46837652419E+03 -0.13095570640E+03  0.64138021062E+03  0.80896008448E+03  0.80758146679E+02 0.  0.
         23    2    1    2    0    0  0.26745222057E+03  0.71854582244E+02 -0.15543345541E+03  0.33045349813E+03  0.91357452270E+02 0.  0.
        -11    1    3    3    0    0 -0.46383241184E+02 -0.20923577510E+02  0.11246650238E+03  0.12344195120E+03  0.00000000000E+00 0.  1.
         12    1    3    3    0    0 -0.42199328301E+03 -0.11003212889E+03  0.52891370824E+03  0.68551813328E+03  0.00000000000E+00 0. -1.
        -11    1    4    4    0    0  0.19553841880E+03  0.91165703298E+02 -0.10099967605E+03  0.23821711368E+03  0.00000000000E+00 0.  1.
         11    1    4    4    0    0  0.71913801768E+02 -0.19311121054E+02 -0.54433779361E+02  0.92236384451E+02  0.00000000000E+00 0. -1.
          1    1    1    2  501    0  0.20092430362E+03  0.59101124156E+02 -0.26517915993E+03  0.33791049928E+03  0.00000000000E+00 0. -1.
<scales pt_clust_5="13000.00000" pt_clust_6="13000.00000" pt_clust_7="13000.00000" pt_clust_8="13000.00000" pt_clust_9="209.43619"></scales>
<clustering>
<clus scale="   80.758">  5  6 -1 -1</clus>
<clus scale="   91.357">  7  8 -1 -1</clus>
<clus scale="  209.436">  2  9  1 -1</clus>
<clus scale="  440.108">  1  5  2 -1</clus>
<clus scale="  209.436">  2  5  1 -1</clus>
</clustering>
</event>
<event>
 9    2  0.4831239E-005  0.1466318E+03  0.7546771E-02  0.1219456E+00
          2   -1    0    0  502    0 -0.00000000000E+00  0.00000000000E+00  0.30134470095E+03  0.30134470095E+03  0.00000000000E+00 0. -1.
         21   -1    0    0  501  502  0.00000000000E+00 -0.00000000000E+00 -0.45361229853E+03  0.45361229853E+03  0.00000000000E+00 0.  1.
         23    2    1    2    0    0 -0.20458097211E+02 -0.50408583071E+02 -0.92656330538E+02  0.14158584018E+03  0.92205181864E+02 0.  0.
         24    2    1    2    0    0 -0.93140368157E+02  0.83970636205E+02 -0.30614899398E+03  0.33985356653E+03  0.77762743311E+02 0.  0.
        -13    1    4    4    0    0 -0.74603298765E+02  0.68754849630E+02 -0.29755950265E+03  0.31437960995E+03  0.00000000000E+00 0.  1.
         14    1    4    4    0    0 -0.18537069392E+02  0.15215786575E+02 -0.85894913246E+01  0.25473956582E+02  0.00000000000E+00 0. -1.
        -13    1    3    3    0    0 -0.18901143554E+02  0.25038228389E+02 -0.31453357084E+02  0.44423864987E+02  0.00000000000E+00 0. -1.
         13    1    3    3    0    0 -0.15569536567E+01 -0.75446811460E+02 -0.61202973453E+02  0.97161975194E+02  0.00000000000E+00 0.  1.
          1    1    1    2  501    0  0.11359846537E+03 -0.33562053134E+02  0.24653772694E+03  0.27351759276E+03  0.00000000000E+00 0. -1.
<scales pt_clust_5="13000.00000" pt_clust_6="13000.00000" pt_clust_7="13000.00000" pt_clust_8="13000.00000" pt_clust_9="124.31358"></scales>
<clustering>
<clus scale="   77.763">  5  6 -1 -1</clus>
<clus scale="   92.205">  7  8 -1 -1</clus>
<clus scale="  107.058">  1  7  2 -1</clus>
<clus scale="  124.314">  2  9  1 -1</clus>
<clus scale="  124.314">  2  5  1 -1</clus>
</clustering>
</event>
<event>
 9    2  0.3764910E-005  0.2436336E+03  0.7546771E-02  0.1117396E+00
          2   -1    0    0  502    0 -0.00000000000E+00  0.00000000000E+00  0.14669020556E+04  0.14669020556E+04  0.00000000000E+00 0. -1.
         21   -1    0    0  501  502  0.00000000000E+00 -0.00000000000E+00 -0.27591617840E+02  0.27591617840E+02  0.00000000000E+00 0. -1.
         24    2    1    2    0    0  0.99244975577E+02  0.25271117770E+02  0.55038626605E+03  0.56626347882E+03  0.85094600450E+02 0.  0.
         23    2    1    2    0    0  0.40856936838E+02  0.44475468715E+02  0.40090318219E+03  0.41572885959E+03  0.91976989524E+02 0.  0.
        -11    1    3    3    0    0 -0.25472187209E+01  0.31021268870E+02  0.12104433080E+03  0.12498214858E+03  0.00000000000E+00 0.  1.
         12    1    3    3    0    0  0.10179219430E+03 -0.57501511004E+01  0.42934193525E+03  0.44128133024E+03  0.00000000000E+00 0. -1.
        -11    1    4    4    0    0  0.33259488588E+02  0.71496091648E+02  0.24681981211E+03  0.25910983068E+03  0.00000000000E+00 0. -1.
         11    1    4    4    0    0  0.75974482495E+01 -0.27020622934E+02  0.15408337008E+03  0.15661902892E+03  0.00000000000E+00 0.  1.
          1    1    1    2  501    0 -0.14010191241E+03 -0.69746586484E+02  0.48802098955E+03  0.51250133505E+03  0.00000000000E+00 0. -1.
<scales pt_clust_5="13000.00000" pt_clust_6="13000.00000" pt_clust_7="13000.00000" pt_clust_8="13000.00000" pt_clust_9="156.50282"></scales>
<clustering>
<clus scale="   85.095">  5  6 -1 -1</clus>
<clus scale="   91.977">  7  8 -1 -1</clus>
<clus scale="   98.630">  5  7 -1 -1</clus>
<clus scale="  156.503">  2  9  1 -1</clus>
<clus scale="  156.503">  2  5  1 -1</clus>
</clustering>
</event>
<event>
 9    2  0.3764910E-005  0.9453724E+02  0.7546771E-02  0.1298319E+00
         21   -1    0    0  501  502  0.00000000000E+00  0.00000000000E+00  0.25861338519E+02  0.25861338519E+02  0.00000000000E+00 0.  1.
          2   -1    0    0  502    0 -0.00000000000E+00 -0.00000000000E+00 -0.54785422600E+03  0.54785422600E+03  0.00000000000E+00 0. -1.
         23    2    1    2    0    0 -0.18020845115E+02  0.67812515045E+01 -0.22812602194E+03  0.24665639304E+03  0.91799553990E+02 0.  0.
         24    2    1    2    0    0 -0.19243210582E+02 -0.40886576705E+02 -0.19069572200E+03  0.21218503203E+03  0.81336437834E+02 0.  0.
        -11    1    4    4    0    0 -0.20581257162E+02 -0.56847949290E+02 -0.79685844528E+02  0.10002555325E+03  0.00000000000E+00 0.  1.
         12    1    4    4    0    0  0.13380465797E+01  0.15961372585E+02 -0.11100987747E+03  0.11215947878E+03  0.00000000000E+00 0. -1.
        -11    1    3    3    0    0  0.22892843758E+01 -0.38576122773E+02 -0.60243501541E+02  0.71572603341E+02  0.00000000000E+00 0. -1.
         11    1    3    3    0    0 -0.20310129491E+02  0.45357374277E+02 -0.16788252039E+03  0.17508378970E+03  0.00000000000E+00 0.  1.
          1    1    1    2  501    0  0.37264055697E+02  0.34105325200E+02 -0.10317114354E+03  0.11487413945E+03  0.00000000000E+00 0. -1.
<scales pt_clust_5="13000.00000" pt_clust_6="13000.00000" pt_clust_7="13000.00000" pt_clust_8="13000.00000" pt_clust_9="50.51518"></scales>
<clustering>
<clus scale="   50.515">  1  9  2 -1</clus>
<clus scale="   81.336">  5  6 -1 -1</clus>
<clus scale="   84.414">  1  5  2 -1</clus>
<clus scale="   91.800">  7  8 -1 -1</clus>
<clus scale="   50.515">  1  5  2 -1</clus>
</clustering>
</event>
<event>
 9    2  0.3764910E-005  0.1010465E+03  0.7546771E-02  0.1283570E+00
         21   -1    0    0  501  502  0.00000000000E+00  0.00000000000E+00  0.20359125192E+03  0.20359125192E+03  0.00000000000E+00 0. -1.
          2   -1    0    0  502    0 -0.00000000000E+00 -0.00000000000E+00 -0.23350682804E+03  0.23350682804E+03  0.00000000000E+00 0. -1.
         24    2    1    2    0    0 -0.37338329207E+02  0.65087099950E+02 -0.12195700761E+03  0.16422574768E+03  0.80412082973E+02 0.  0.
         23    2    1    2    0    0  0.23150026469E+02  0.23747121624E+02 -0.46334768040E+02  0.10782446210E+03  0.91538813556E+02 0.  0.
        -11    1    3    3    0    0 -0.85612712843E+01  0.41911050356E+02 -0.68345811616E+01  0.43319083643E+02  0.00000000000E+00 0.  1.
         12    1    3    3    0    0 -0.28777057922E+02  0.23176049594E+02 -0.11512242645E+03  0.12090666404E+03  0.00000000000E+00 0. -1.
        -13    1    4    4    0    0 -0.26724256101E+02  0.29238404863E+02 -0.41573773806E+02  0.57423417275E+02  0.00000000000E+00 0.  1.
         13    1    4    4    0    0  0.49874282570E+02 -0.54912832387E+01 -0.47609942338E+01  0.50401044826E+02  0.00000000000E+00 0. -1.
          1    1    1    2  501    0  0.14188302737E+02 -0.88834221574E+02  0.13837619952E+03  0.16504787018E+03  0.00000000000E+00 0. -1.
<scales pt_clust_5="13000.00000" pt_clust_6="13000.00000" pt_clust_7="13000.00000" pt_clust_8="13000.00000" pt_clust_9="89.96014"></scales>
<clustering>
<clus scale="   80.412">  5  6 -1 -1</clus>
<clus scale="   89.960">  1  9  2 -1</clus>
<clus scale="   91.089">  2  5  1 -1</clus>
<clus scale="   91.539">  7  8 -1 -1</clus>
<clus scale="   89.960">  1  5  2 -1</clus>
</clustering>
</event>
<event>
 9    2  0.3764910E-005  0.1028273E+03  0.7546771E-02  0.1282742E+00
          4   -1    0    0  502    0 -0.00000000000E+00  0.00000000000E+00  0.84345261728E+02  0.84345261728E+02  0.00000000000E+00 0. -1.
         21   -1    0    0  501  502  0.00000000000E+00 -0.00000000000E+00 -0.31524717819E+03  0.31524717819E+03  0.00000000000E+00 0. -1.
         24    2    1    2    0    0 -0.16547244598E+02  0.51236084410E+02  0.29598898733E+02  0.95559172912E+02  0.73188203093E+02 0.  0.
         23    2    1    2    0    0 -0.33934894852E+02 -0.27095770810E+02 -0.17590066579E+03  0.20260158347E+03  0.90667521846E+02 0.  0.
        -11    1    3    3    0    0 -0.24884875281E+02 -0.95112665460E+01  0.20404315012E+02  0.33556776964E+02  0.00000000000E+00 0.  1.
         12    1    3    3    0    0  0.83376306832E+01  0.60747350956E+02  0.91945837205E+01  0.62002395948E+02  0.00000000000E+00 0. -1.
        -13    1    4    4    0    0  0.28156194676E+02  0.78927536776E+01 -0.49434340688E+02  0.57435362787E+02  0.00000000000E+00 0.  1.
         13    1    4    4    0    0 -0.62091089528E+02 -0.34988524488E+02 -0.12646632510E+03  0.14516622069E+03  0.00000000000E+00 0. -1.
          3    1    1    2  501    0  0.50482139450E+02 -0.24140313599E+02 -0.84600149407E+02  0.10143168353E+03  0.00000000000E+00 0. -1.
<scales pt_clust_5="13000.00000" pt_clust_6="13000.00000" pt_clust_7="13000.00000" pt_clust_8="13000.00000" pt_clust_9="55.95714"></scales>
<clustering>
<clus scale="   55.957">  2  9  1 -1</clus>
<clus scale="   73.188">  5  6 -1 -1</clus>
<clus scale="   87.803">  1  5  2 -1</clus>
<clus scale="   90.668">  7  8 -1 -1</clus>
<clus scale="   55.957">  2  5  1 -1</clus>
</clustering>
</event>
<event>
 9    2  0.3764910E-005  0.9524094E+02  0.7546771E-02  0.1297584E+00
          2   -1    0    0  502    0 -0.00000000000E+00  0.00000000000E+00  0.21581373207E+03  0.21581373207E+03  0.00000000000E+00 0. -1.
         21   -1    0    0  501  502  0.00000000000E+00 -0.00000000000E+00 -0.91041017182E+02  0.91041017182E+02  0.00000000000E+00 0. -1.
         24    2    1    2    0    0 -0.43171676620E+01  0.15753217815E+02  0.11589031980E+03  0.14166702309E+03  0.79825919354E+02 0.  0.
         23    2    1    2    0    0 -0.19325527014E+02 -0.53569345677E+02  0.34868335832E+02  0.11357081368E+03  0.91866087787E+02 0.  0.
        -11    1    3    3    0    0 -0.28624108785E+02  0.37477617113E+02  0.82329296669E+02  0.94878999142E+02  0.00000000000E+00 0.  1.
         12    1    3    3    0    0  0.24306941124E+02 -0.21724399298E+02  0.33561023128E+02  0.46788023949E+02  0.00000000000E+00 0. -1.
        -11    1    4    4    0    0 -0.38593950998E+02 -0.69082999092E+02  0.12294942473E+02  0.80081954444E+02  0.00000000000E+00 0. -1.
         11    1    4    4    0    0  0.19268423984E+02  0.15513653415E+02  0.22573393359E+02  0.33488859235E+02  0.00000000000E+00 0.  1.
          1    1    1    2  501    0  0.23642694676E+02  0.37816127862E+02 -0.25985940741E+02  0.51616912482E+02  0.00000000000E+00 0. -1.
<scales pt_clust_5="13000.00000" pt_clust_6="13000.00000" pt_clust_7="13000.00000" pt_clust_8="13000.00000" pt_clust_9="44.59862"></scales>
<clustering>
<clus scale="   44.599">  2  9  1 -1</clus>
<clus scale="   79.826">  5  6 -1 -1</clus>
<clus scale="   83.688">  1  5  2 -1</clus>
<clus scale="   91.866">  7  8 -1 -1</clus>
<clus scale="   44.599">  2  5  1 -1</clus>
</clustering>
</event>
<event>
 9    2  0.3764910E-005  0.1396135E+03  0.7546771E-02  0.1229536E+00
         21   -1    0    0  501  502  0.00000000000E+00  0.00000000000E+00  0.11574759431E+03  0.11574759431E+03  0.00000000000E+00 0. -1.
          2   -1    0    0  502    0 -0.00000000000E+00 -0.00000000000E+00 -0.53753066678E+03  0.53753066678E+03  0.00000000000E+00 0. -1.
         23    2    1    2    0    0  0.30313266133E+02 -0.28447637522E+02  0.23254795273E+02  0.10318234243E+03  0.91529493073E+02 0.  0.
         24    2    1    2    0    0  0.82443728195E+02 -0.11183770404E+02 -0.40902330811E+03  0.42526869098E+03  0.81433088586E+02 0.  0.
        -11    1    4    4    0    0  0.47562371033E+02 -0.41787699769E+02 -0.16214586372E+03  0.17406801002E+03  0.00000000000E+00 0.  1.
         12    1    4    4    0    0  0.34881357162E+02  0.30603929365E+02 -0.24687744439E+03  0.25120068097E+03  0.00000000000E+00 0. -1.
        -13    1    3    3    0    0  0.50141861285E+02 -0.43881629187E+02 -0.31839130778E+01  0.66707877614E+02  0.00000000000E+00 0. -1.
         13    1    3    3    0    0 -0.19828595152E+02  0.15433991665E+02  0.26438708351E+02  0.36474464817E+02  0.00000000000E+00 0.  1.
          1    1    1    2  501    0 -0.11275699433E+03  0.39631407926E+02 -0.36014559633E+02  0.12482722768E+03  0.00000000000E+00 0. -1.
<scales pt_clust_5="13000.00000" pt_clust_6="13000.00000" pt_clust_7="13000.00000" pt_clust_8="13000.00000" pt_clust_9="113.40453"></scales>
<clustering>
<clus scale="   81.433">  5  6 -1 -1</clus>
<clus scale="   91.529">  7  8 -1 -1</clus>
<clus scale="  100.528">  2  7  1 -1</clus>
<clus scale="  113.405">  1  9  2 -1</clus>
<clus scale="  113.405">  1  5  2 -1</clus>
</clustering>
</event>
<event>
 9    2  0.3764910E-005  0.1182171E+03  0.7546771E-02  0.1249641E+00
         21   -1    0    0  501  502  0.00000000000E+00  0.00000000000E+00  0.19331183317E+03  0.19331183317E+03  0.00000000000E+00 0. -1.
         -1   -1    0    0    0  501 -0.00000000000E+00 -0.00000000000E+00 -0.14802021101E+03  0.14802021101E+03  0.00000000000E+00 0.  1.
         23    2    1    2    0    0  0.89541427708E+02 -0.44865029133E+02  0.65277149847E+01  0.13585316551E+03  0.91558360636E+02 0.  0.
         24    2    1    2    0    0 -0.45964756510E+02 -0.11518764243E+02  0.80008625854E+02  0.12314307086E+03  0.80730384112E+02 0.  0.
        -13    1    4    4    0    0 -0.69201217624E+02 -0.10847415600E+02  0.64325543907E+02  0.95101264686E+02  0.00000000000E+00 0.  1.
         14    1    4    4    0    0  0.23236461114E+02 -0.67134864288E+00  0.15683081948E+02  0.28041806174E+02  0.00000000000E+00 0. -1.
        -11    1    3    3    0    0  0.63628883748E+02 -0.48045487574E+02 -0.34780393632E+02  0.86986662796E+02  0.00000000000E+00 0. -1.
         11    1    3    3    0    0  0.25912543960E+02  0.31804584416E+01  0.41308108617E+02  0.48866502718E+02  0.00000000000E+00 0.  1.
         -2    1    1    2    0  502 -0.43576671198E+02  0.56383793376E+02 -0.41244718682E+02  0.82335807807E+02  0.00000000000E+00 0.  1.
<scales pt_clust_5="13000.00000" pt_clust_6="13000.00000" pt_clust_7="13000.00000" pt_clust_8="13000.00000" pt_clust_9="71.26053"></scales>
<clustering>
<clus scale="   71.261">  1  9  2 -1</clus>
<clus scale="   80.730">  5  6 -1 -1</clus>
<clus scale="   91.558">  7  8 -1 -1</clus>
<clus scale="  110.044">  1  5  2 -1</clus>
<clus scale="   71.261">  1  5  2 -1</clus>
</clustering>
</event>
<event>
 9    2  0.3764910E-005  0.1012766E+03  0.7546771E-02  0.1283580E+00
         21   -1    0    0  501  502  0.00000000000E+00  0.00000000000E+00  0.13643065591E+03  0.13643065591E+03  0.00000000000E+00 0.  1.
          2   -1    0    0  502    0 -0.00000000000E+00 -0.00000000000E+00 -0.16395623468E+03  0.16395623468E+03  0.00000000000E+00 0. -1.
         23    2    1    2    0    0  0.18156764883E+02 -0.34295035310E+02 -0.99374923917E+02  0.14054233449E+03  0.91492921708E+02 0.  0.
         24    2    1    2    0    0 -0.87105768436E+01  0.58382518440E+02  0.18579268828E+02  0.10062345899E+03  0.79344178489E+02 0.  0.
        -13    1    4    4    0    0 -0.38514506193E+02  0.13952341362E+02  0.22932424557E+02  0.46946044699E+02  0.00000000000E+00 0.  1.
         14    1    4    4    0    0  0.29803929350E+02  0.44430177079E+02 -0.43531557293E+01  0.53677414289E+02  0.00000000000E+00 0. -1.
        -11    1    3    3    0    0 -0.18120629605E+02  0.22307401090E+02 -0.47934807521E+02  0.55890277623E+02  0.00000000000E+00 0.  1.
         11    1    3    3    0    0  0.36277394488E+02 -0.56602436399E+02 -0.51440116395E+02  0.84652056868E+02  0.00000000000E+00 0. -1.
          1    1    1    2  501    0 -0.94461880398E+01 -0.24087483131E+02  0.53270076314E+02  0.59221097107E+02  0.00000000000E+00 0. -1.
<scales pt_clust_5="13000.00000" pt_clust_6="13000.00000" pt_clust_7="13000.00000" pt_clust_8="13000.00000" pt_clust_9="25.87349"></scales>
<clustering>
<clus scale="   25.873">  1  9  2 -1</clus>
<clus scale="   79.344">  5  6 -1 -1</clus>
<clus scale="   90.452">  1  5  2 -1</clus>
<clus scale="   91.493">  7  8 -1 -1</clus>
<clus scale="   25.873">  1  5  2 -1</clus>
</clustering>
</event>
<event>
 9    2  0.3764910E-005  0.1112307E+03  0.7546771E-02  0.1261997E+00
         -3   -1    0    0    0  501 -0.00000000000E+00  0.00000000000E+00  0.13026333165E+03  0.13026333165E+03  0.00000000000E+00 0.  1.
         21   -1    0    0  501  502  0.00000000000E+00 -0.00000000000E+00 -0.17984570611E+03  0.17984570611E+03  0.00000000000E+00 0.  1.
         23    2    1    2    0    0 -0.92197970187E+01  0.74843893359E+02  0.62676689252E+02  0.13357762482E+03  0.90708331734E+02 0.  0.
         24    2    1    2    0    0 -0.88298298217E+00 -0.30401247899E+02 -0.93119442745E+02  0.12709923728E+03  0.80981293939E+02 0.  0.
        -11    1    4    4    0    0  0.14872273757E+02  0.20911265996E+02 -0.87676490433E+01  0.27117102390E+02  0.00000000000E+00 0.  1.
         12    1    4    4    0    0 -0.15755256739E+02 -0.51312513896E+02 -0.84351793702E+02  0.99982134894E+02  0.00000000000E+00 0. -1.
        -13    1    3    3    0    0 -0.30492443390E+02  0.31437278430E+01  0.48623117764E+02  0.57479385085E+02  0.00000000000E+00 0. -1.
         13    1    3    3    0    0  0.21272646372E+02  0.71700165516E+02  0.14053571488E+02  0.76098239732E+02  0.00000000000E+00 0.  1.
         -4    1    1    2    0  502  0.10102780001E+02 -0.44442645460E+02 -0.19139620964E+02  0.49432175654E+02  0.00000000000E+00 0.  1.
<scales pt_clust_5="13000.00000" pt_clust_6="13000.00000" pt_clust_7="13000.00000" pt_clust_8="13000.00000" pt_clust_9="45.57647"></scales>
<clustering>
<clus scale="   45.576">  2  9  1 -1</clus>
<clus scale="   80.981">  5  6 -1 -1</clus>
<clus scale="   90.708">  7  8 -1 -1</clus>
<clus scale="  103.452">  2  5  1 -1</clus>
<clus scale="   45.576">  2  5  1 -1</clus>
</clustering>
</event>
<event>
 9    2  0.3764910E-005  0.9137733E+02  0.7546771E-02  0.1310172E+00
         21   -1    0    0  501  502  0.00000000000E+00  0.00000000000E+00  0.80130482853E+02  0.80130482853E+02  0.00000000000E+00 0.  1.
          2   -1    0    0  502    0 -0.00000000000E+00 -0.00000000000E+00 -0.21065508289E+03  0.21065508289E+03  0.00000000000E+00 0. -1.
         24    2    1    2    0    0 -0.92253340605E+00 -0.10214912715E+02 -0.89337593553E+02  0.11702304892E+03  0.74886533145E+02 0.  0.
         23    2    1    2    0    0 -0.44934162664E+01 -0.48640232092E+02 -0.48566354134E+02  0.11419981581E+03  0.91087014489E+02 0.  0.
        -13    1    3    3    0    0  0.36891557986E+02 -0.34808224149E+01 -0.40558475459E+02  0.54937174180E+02  0.00000000000E+00 0.  1.
         14    1    3    3    0    0 -0.37814091392E+02 -0.67340902996E+01 -0.48779118094E+02  0.62085874738E+02  0.00000000000E+00 0. -1.
        -11    1    4    4    0    0 -0.17100952288E+02 -0.71287585719E+02 -0.20774658705E+02  0.76196777432E+02  0.00000000000E+00 0.  1.
         11    1    4    4    0    0  0.12607536021E+02  0.22647353627E+02 -0.27791695429E+02  0.38003038374E+02  0.00000000000E+00 0. -1.
          1    1    1    2  501    0  0.54159496725E+01  0.58855144806E+02  0.73793476496E+01  0.59562701020E+02  0.00000000000E+00 0. -1.
<scales pt_clust_5="13000.00000" pt_clust_6="13000.00000" pt_clust_7="13000.00000" pt_clust_8="13000.00000" pt_clust_9="59.10381"></scales>
<clustering>
<clus scale="   59.104">  1  9  2 -1</clus>
<clus scale="   74.887">  5  6 -1 -1</clus>
<clus scale="   75.239">  2  5  1 -1</clus>
<clus scale="   91.087">  7  8 -1 -1</clus>
<clus scale="   59.104">  1  5  2 -1</clus>
</clustering>
</event>
<event>
 9    2  0.3764910E-005  0.9729179E+02  0.7546771E-02  0.1290769E+00
         21   -1    0    0  501  502  0.00000000000E+00  0.00000000000E+00  0.38532533168E+03  0.38532533168E+03  0.00000000000E+00 0. -1.
          2   -1    0    0  502    0 -0.00000000000E+00 -0.00000000000E+00 -0.10781861175E+03  0.10781861175E+03  0.00000000000E+00 0. -1.
         24    2    1    2    0    0  0.40412890449E+02 -0.84542566984E+01 -0.66530743610E+02  0.11358825250E+03  0.82287757837E+02 0.  0.
         23    2    1    2    0    0  0.11072290837E+02  0.77571037953E+01  0.12930735300E+03  0.15873850345E+03  0.91075532690E+02 0.  0.
        -13    1    3    3    0    0 -0.22687894703E+02 -0.15197801219E+02 -0.29123441820E+02  0.39923534305E+02  0.00000000000E+00 0.  1.
         14    1    3    3    0    0  0.63100785152E+02  0.67435445204E+01 -0.37407301790E+02  0.73664718195E+02  0.00000000000E+00 0. -1.
        -13    1    4    4    0    0 -0.27155576904E+02 -0.17445196702E+02  0.98238818344E+02  0.10340515304E+03  0.00000000000E+00 0. -1.
         13    1    4    4    0    0  0.38227867741E+02  0.25202300497E+02  0.31068534651E+02  0.55333350412E+02  0.00000000000E+00 0.  1.
          1    1    1    2  501    0 -0.51485181286E+02  0.69715290310E+00  0.21473011054E+03  0.22081718748E+03  0.00000000000E+00 0. -1.
<scales pt_clust_5="13000.00000" pt_clust_6="13000.00000" pt_clust_7="13000.00000" pt_clust_8="13000.00000" pt_clust_9="51.48990"></scales>
<clustering>
<clus scale="   51.490">  1  9  2 -1</clus>
<clus scale="   82.288">  5  6 -1 -1</clus>
<clus scale="   89.119">  2  5  1 -1</clus>
<clus scale="   91.076">  7  8 -1 -1</clus>
<clus scale="   51.490">  1  5  2 -1</clus>
</clustering>
</event>
<event>
 9    2  0.3764910E-005  0.1118798E+03  0.7546771E-02  0.1260778E+00
         21   -1    0    0  501  502  0.00000000000E+00  0.00000000000E+00  0.14115452691E+03  0.14115452691E+03  0.00000000000E+00 0.  1.
         -1   -1    0    0    0  501 -0.00000000000E+00 -0.00000000000E+00 -0.13179475578E+03  0.13179475578E+03  0.00000000000E+00 0.  1.
         24    2    1    2    0    0  0.54050357330E+02 -0.13177124716E+02 -0.24534613733E+02  0.10142775140E+03  0.81182287108E+02 0.  0.
         23    2    1    2    0    0 -0.88562285174E+02 -0.53414016513E+00  0.41652688048E+02  0.13358390859E+03  0.90918373010E+02 0.  0.
        -11    1    3    3    0    0  0.65104806641E+02 -0.34734770039E+02 -0.22355577636E+02  0.77103255112E+02  0.00000000000E+00 0.  1.
         12    1    3    3    0    0 -0.11054449311E+02  0.21557645323E+02 -0.21790360972E+01  0.24324496290E+02  0.00000000000E+00 0. -1.
        -13    1    4    4    0    0 -0.89411732787E+02  0.31556026819E+02  0.31669807834E+02  0.99966081833E+02  0.00000000000E+00 0.  1.
         13    1    4    4    0    0  0.84944761373E+00 -0.32090166984E+02  0.99828802138E+01  0.33617826755E+02  0.00000000000E+00 0. -1.
         -2    1    1    2    0  502  0.34511927844E+02  0.13711264881E+02 -0.77583031841E+01  0.37937622704E+02  0.00000000000E+00 0.  1.
<scales pt_clust_5="13000.00000" pt_clust_6="13000.00000" pt_clust_7="13000.00000" pt_clust_8="13000.00000" pt_clust_9="37.13588"></scales>
<clustering>
<clus scale="   37.136">  1  9  2 -1</clus>
<clus scale="   81.182">  5  6 -1 -1</clus>
<clus scale="   90.918">  7  8 -1 -1</clus>
<clus scale="  104.122">  2  5  1 -1</clus>
<clus scale="   37.136">  1  5  2 -1</clus>
</clustering>
</event>
<event>
 9    2  0.3764910E-005  0.2048340E+03  0.7546771E-02  0.1146974E+00
         21   -1    0    0  501  502  0.00000000000E+00  0.00000000000E+00  0.38642087311E+02  0.38642087311E+02  0.00000000000E+00 0.  1.
          2   -1    0    0  502    0 -0.00000000000E+00 -0.00000000000E+00 -0.19773939039E+04  0.19773939039E+04  0.00000000000E+00 0. -1.
         23    2    1    2    0    0  0.33150968633E+02  0.13561029944E+03 -0.50486581267E+03  0.53156921739E+03  0.90483169880E+02 0.  0.
         24    2    1    2    0    0 -0.77624755443E+02 -0.23835142985E+03 -0.83172674223E+03  0.87198866480E+03  0.75880505028E+02 0.  0.
        -13    1    4    4    0    0 -0.26076702946E+02 -0.18628920683E+03 -0.57277475512E+03  0.60287194587E+03  0.00000000000E+00 0.  1.
         14    1    4    4    0    0 -0.51548052497E+02 -0.52062223021E+02 -0.25895198710E+03  0.26911671893E+03  0.00000000000E+00 0. -1.
        -13    1    3    3    0    0  0.64334429120E+02  0.81492170286E+02 -0.30737190371E+03  0.32443393746E+03  0.00000000000E+00 0.  1.
         13    1    3    3    0    0 -0.31183460487E+02  0.54118129158E+02 -0.19749390896E+03  0.20713527992E+03  0.00000000000E+00 0. -1.
          1    1    1    2  501    0  0.44473786810E+02  0.10274113040E+03 -0.60215926172E+03  0.61247810905E+03  0.00000000000E+00 0. -1.
<scales pt_clust_5="13000.00000" pt_clust_6="13000.00000" pt_clust_7="13000.00000" pt_clust_8="13000.00000" pt_clust_9="111.95387"></scales>
<clustering>
<clus scale="   75.881">  5  6 -1 -1</clus>
<clus scale="   90.483">  7  8 -1 -1</clus>
<clus scale="  111.954">  1  9  2 -1</clus>
<clus scale="  198.816">  1  5  2 -1</clus>
<clus scale="  111.954">  1  5  2 -1</clus>
</clustering>
</event>
<event>
 9    2  0.3764910E-005  0.9281732E+02  0.7546771E-02  0.1304230E+00
         21   -1    0    0  501  502  0.00000000000E+00  0.00000000000E+00  0.48831161731E+02  0.48831161731E+02  0.00000000000E+00 0. -1.
          2   -1    0    0  502    0 -0.00000000000E+00 -0.00000000000E+00 -0.43984000516E+03  0.43984000516E+03  0.00000000000E+00 0. -1.
         24    2    1    2    0    0 -0.35536333538E+01  0.21273065513E+02 -0.27697883598E+03  0.28838068998E+03  0.77336764525E+02 0.  0.
         23    2    1    2    0    0 -0.17301256383E+02 -0.18000717513E+02 -0.13890150466E+03  0.16766799906E+03  0.90529390866E+02 0.  0.
        -11    1    3    3    0    0 -0.24976527847E+02 -0.20670636245E+02 -0.93838304441E+02  0.99281063282E+02  0.00000000000E+00 0.  1.
         12    1    3    3    0    0  0.21422894493E+02  0.41943701757E+02 -0.18314053154E+03  0.18909962670E+03  0.00000000000E+00 0. -1.
        -11    1    4    4    0    0 -0.25506500827E+01  0.24677008084E+02 -0.11283363248E+03  0.11552873738E+03  0.00000000000E+00 0. -1.
         11    1    4    4    0    0 -0.14750606300E+02 -0.42677725597E+02 -0.26067872180E+02  0.52139261678E+02  0.00000000000E+00 0.  1.
          1    1    1    2  501    0  0.20854889737E+02 -0.32723479994E+01  0.24871497209E+02  0.32622477845E+02  0.00000000000E+00 0. -1.
<scales pt_clust_5="13000.00000" pt_clust_6="13000.00000" pt_clust_7="13000.00000" pt_clust_8="13000.00000" pt_clust_9="21.11006"></scales>
<clustering>
<clus scale="   21.110">  1  9  2 -1</clus>
<clus scale="   77.337">  5  6 -1 -1</clus>
<clus scale="   80.003">  2  5  1 -1</clus>
<clus scale="   90.529">  7  8 -1 -1</clus>
<clus scale="   21.110">  1  5  2 -1</clus>
</clustering>
</event>
<event>
 9    2  0.3764910E-005  0.1005740E+03  0.7546771E-02  0.1283666E+00
         21   -1    0    0  501  502  0.00000000000E+00  0.00000000000E+00  0.25491524136E+03  0.25491524136E+03  0.00000000000E+00 0. -1.
         -1   -1    0    0    0  501 -0.00000000000E+00 -0.00000000000E+00 -0.11775537184E+03  0.11775537184E+03  0.00000000000E+00 0.  1.
         24    2    1    2    0    0 -0.39392035966E+02 -0.53610397635E+02 -0.40585063433E+02  0.11159521645E+03  0.79878268193E+02 0.  0.
         23    2    1    2    0    0  0.10018840267E+02  0.10723052341E+02  0.17061159729E+02  0.92192644555E+02  0.89403800406E+02 0.  0.
        -11    1    3    3    0    0  0.69257856711E+01 -0.55825239764E+02 -0.13341577042E+02  0.57813679868E+02  0.00000000000E+00 0.  1.
         12    1    3    3    0    0 -0.46317821637E+02  0.22148421290E+01 -0.27243486392E+02  0.53781536587E+02  0.00000000000E+00 0. -1.
        -13    1    4    4    0    0  0.25263482255E+01  0.36438126017E+02  0.41954569799E+02  0.55626481014E+02  0.00000000000E+00 0. -1.
         13    1    4    4    0    0  0.74924920417E+01 -0.25715073677E+02 -0.24893410070E+02  0.36566163541E+02  0.00000000000E+00 0.  1.
         -2    1    1    2    0  502  0.29373195699E+02  0.42887345295E+02  0.16068377322E+03  0.16888275219E+03  0.00000000000E+00 0.  1.
<scales pt_clust_5="13000.00000" pt_clust_6="13000.00000" pt_clust_7="13000.00000" pt_clust_8="13000.00000" pt_clust_9="51.98181"></scales>
<clustering>
<clus scale="   51.982">  1  9  2 -1</clus>
<clus scale="   79.878">  5  6 -1 -1</clus>
<clus scale="   89.404">  7  8 -1 -1</clus>
<clus scale="   92.210">  2  5  1 -1</clus>
<clus scale="   51.982">  1  5  2 -1</clus>
</clustering>
</event>
<event>
 9    2  0.3764910E-005  0.1943103E+03  0.7546771E-02  0.1159311E+00
         21   -1    0    0  501  502  0.00000000000E+00  0.00000000000E+00  0.34656319955E+03  0.34656319955E+03  0.00000000000E+00 0. -1.
         -3   -1    0    0    0  501 -0.00000000000E+00 -0.00000000000E+00 -0.43607978151E+03  0.43607978151E+03  0.00000000000E+00 0.  1.
         24    2    1    2    0    0 -0.12703959719E+03  0.85038520436E+02  0.26747070485E+02  0.17619098785E+03  0.83410126542E+02 0.  0.
         23    2    1    2    0    0 -0.10959530643E+03 -0.12510660297E+03  0.15364864573E+03  0.24526758386E+03  0.94262866806E+02 0.  0.
        -11    1    3    3    0    0 -0.11333435804E+03  0.58389894424E+02 -0.11034783240E+02  0.12796805431E+03  0.00000000000E+00 0.  1.
         12    1    3    3    0    0 -0.13705239146E+02  0.26648626012E+02  0.37781853725E+02  0.48222933541E+02  0.00000000000E+00 0. -1.
        -13    1    4    4    0    0 -0.42347023337E+02 -0.82542809013E+02  0.28671586704E+02  0.97101213120E+02  0.00000000000E+00 0.  1.
         13    1    4    4    0    0 -0.67248283094E+02 -0.42563793958E+02  0.12497705902E+03  0.14816637074E+03  0.00000000000E+00 0. -1.
         -4    1    1    2    0  502  0.23663490362E+03  0.40068082535E+02 -0.26991229817E+03  0.36118440934E+03  0.00000000000E+00 0.  1.
<scales pt_clust_5="13000.00000" pt_clust_6="13000.00000" pt_clust_7="13000.00000" pt_clust_8="13000.00000" pt_clust_9="169.91483"></scales>
<clustering>
<clus scale="   83.410">  5  6 -1 -1</clus>
<clus scale="   94.263">  7  8 -1 -1</clus>
<clus scale="  174.149">  2  5  1 -1</clus>
<clus scale="  169.915">  1  9  2 -1</clus>
<clus scale="  169.915">  1  5  2 -1</clus>
</clustering>
</event>
<event>
 9    2  0.3764910E-005  0.1798585E+03  0.7546771E-02  0.1168928E+00
         21   -1    0    0  501  502  0.00000000000E+00  0.00000000000E+00  0.54643609850E+02  0.54643609850E+02  0.00000000000E+00 0. -1.
          2   -1    0    0  502    0 -0.00000000000E+00 -0.00000000000E+00 -0.10984157925E+04  0.10984157925E+04  0.00000000000E+00 0. -1.
         24    2    1    2    0    0  0.16636917649E+03 -0.11475353179E+02 -0.57546220451E+03  0.60444894304E+03  0.79946165066E+02 0.  0.
         23    2    1    2    0    0 -0.14188078874E+03 -0.58642924986E+02 -0.42992944870E+03  0.46500831157E+03  0.88454780028E+02 0.  0.
        -13    1    3    3    0    0  0.15172881566E+03 -0.19000827747E+02 -0.40025623462E+03  0.42847137397E+03  0.00000000000E+00 0.  1.
         14    1    3    3    0    0  0.14640360832E+02  0.75254745688E+01 -0.17520596989E+03  0.17597756908E+03  0.00000000000E+00 0. -1.
        -11    1    4    4    0    0 -0.20561302080E+01 -0.25184015607E+02 -0.26002447210E+02  0.36257269263E+02  0.00000000000E+00 0. -1.
         11    1    4    4    0    0 -0.13982465853E+03 -0.33458909379E+02 -0.40392700149E+03  0.42875104231E+03  0.00000000000E+00 0.  1.
          1    1    1    2  501    0 -0.24488387758E+02  0.70118278164E+02 -0.38380529464E+02  0.83602147757E+02  0.00000000000E+00 0. -1.
<scales pt_clust_5="13000.00000" pt_clust_6="13000.00000" pt_clust_7="13000.00000" pt_clust_8="13000.00000" pt_clust_9="74.27149"></scales>
<clustering>
<clus scale="   74.271">  1  9  2 -1</clus>
<clus scale="   79.946">  5  6 -1 -1</clus>
<clus scale="   88.455">  7  8 -1 -1</clus>
<clus scale="  175.830">  2  5  1 -1</clus>
<clus scale="   74.271">  1  5  2 -1</clus>
</clustering>
</event>
<event>
 9    2  0.3764910E-005  0.1639527E+03  0.7546771E-02  0.1185407E+00
         21   -1    0    0  501  502  0.00000000000E+00  0.00000000000E+00  0.56327306773E+02  0.56327306773E+02  0.00000000000E+00 0. -1.
          2   -1    0    0  502    0 -0.00000000000E+00 -0.00000000000E+00 -0.64731518955E+03  0.64731518955E+03  0.00000000000E+00 0. -1.
         23    2    1    2    0    0  0.10000849691E+03 -0.83226103205E+02 -0.29639746655E+03  0.33548644619E+03  0.88155621985E+02 0.  0.
         24    2    1    2    0    0 -0.12061876191E+03  0.94299920647E+02 -0.17415174638E+03  0.24546584820E+03  0.80518886666E+02 0.  0.
        -11    1    4    4    0    0 -0.63708941402E+01  0.49224318221E+02 -0.59083203026E+02  0.77165061241E+02  0.00000000000E+00 0.  1.
         12    1    4    4    0    0 -0.11424786777E+03  0.45075602425E+02 -0.11506854335E+03  0.16830078696E+03  0.00000000000E+00 0. -1.
        -11    1    3    3    0    0 -0.58527310313E+01 -0.42574312969E+02 -0.67122735033E+02  0.79701243049E+02  0.00000000000E+00 0.  1.
         11    1    3    3    0    0  0.10586122795E+03 -0.40651790236E+02 -0.22927473152E+03  0.25578520314E+03  0.00000000000E+00 0. -1.
          1    1    1    2  501    0  0.20610264991E+02 -0.11073817441E+02 -0.12043866985E+03  0.12269020193E+03  0.00000000000E+00 0. -1.
<scales pt_clust_5="13000.00000" pt_clust_6="13000.00000" pt_clust_7="13000.00000" pt_clust_8="13000.00000" pt_clust_9="23.39686"></scales>
<clustering>
<clus scale="   23.397">  1  9  2 -1</clus>
<clus scale="   80.519">  5  6 -1 -1</clus>
<clus scale="   88.156">  7  8 -1 -1</clus>
<clus scale="  159.976">  1  5  2 -1</clus>
<clus scale="   23.397">  1  5  2 -1</clus>
</clustering>
</event>
<event>
 9    2  0.3764910E-005  0.9764883E+02  0.7546771E-02  0.1290819E+00
          2   -1    0    0  502    0 -0.00000000000E+00  0.00000000000E+00  0.86318963623E+02  0.86318963623E+02  0.00000000000E+00 0. -1.
         21   -1    0    0  501  502  0.00000000000E+00 -0.00000000000E+00 -0.34264873182E+03  0.34264873182E+03  0.00000000000E+00 0. -1.
         23    2    1    2    0    0  0.14353326829E+02  0.18803042616E+02  0.10623916298E+02  0.94895502439E+02  0.91283713679E+02 0.  0.
         24    2    1    2    0    0 -0.79685556424E+02 -0.21466289621E+01 -0.90734108957E+02  0.14539502125E+03  0.80948364754E+02 0.  0.
        -13    1    4    4    0    0  0.23510794454E+01 -0.27516674018E+02 -0.25024699565E+02  0.37268358052E+02  0.00000000000E+00 0.  1.
         14    1    4    4    0    0 -0.82036635870E+02  0.25370045055E+02 -0.65709409392E+02  0.10812666319E+03  0.00000000000E+00 0. -1.
        -11    1    3    3    0    0  0.26804195482E+02 -0.16255304351E+02 -0.27446291372E+02  0.41665318012E+02  0.00000000000E+00 0. -1.
         11    1    3    3    0    0 -0.12450868653E+02  0.35058346966E+02  0.38070207669E+02  0.53230184428E+02  0.00000000000E+00 0.  1.
          1    1    1    2  501    0  0.65332229595E+02 -0.16656413654E+02 -0.17621957553E+03  0.18867717175E+03  0.00000000000E+00 0. -1.
<scales pt_clust_5="13000.00000" pt_clust_6="13000.00000" pt_clust_7="13000.00000" pt_clust_8="13000.00000" pt_clust_9="67.42208"></scales>
<clustering>
<clus scale="   67.422">  2  9  1 -1</clus>
<clus scale="   80.948">  5  6 -1 -1</clus>
<clus scale="   88.064">  2  5  1 -1</clus>
<clus scale="   91.284">  7  8 -1 -1</clus>
<clus scale="   67.422">  2  5  1 -1</clus>
</clustering>
</event>
<event>
 9    2  0.3764910E-005  0.1137182E+03  0.7546771E-02  0.1257627E+00
         21   -1    0    0  501  502  0.00000000000E+00  0.00000000000E+00  0.30099670101E+03  0.30099670101E+03  0.00000000000E+00 0. -1.
         -1   -1    0    0    0  501 -0.00000000000E+00 -0.00000000000E+00 -0.11403780143E+03  0.11403780143E+03  0.00000000000E+00 0.  1.
         24    2    1    2    0    0  0.84409299215E+02  0.70227246935E+01  0.14566539918E+02  0.11769824182E+03  0.80414200156E+02 0.  0.
         23    2    1    2    0    0 -0.13839872439E+02 -0.20635327544E+02  0.19939930664E+03  0.22055916679E+03  0.90933512834E+02 0.  0.
        -13    1    3    3    0    0  0.27139424222E+02  0.25126538054E+02 -0.26008504020E+02  0.45214306840E+02  0.00000000000E+00 0.  1.
         14    1    3    3    0    0  0.57269874993E+02 -0.18103813361E+02  0.40575043937E+02  0.72483934981E+02  0.00000000000E+00 0. -1.
        -13    1    4    4    0    0  0.28281412986E+02  0.16339037587E+02  0.11256460178E+03  0.11720747435E+03  0.00000000000E+00 0. -1.
         13    1    4    4    0    0 -0.42121285426E+02 -0.36974365130E+02  0.86834704856E+02  0.10335169244E+03  0.00000000000E+00 0.  1.
         -2    1    1    2    0  502 -0.70569426775E+02  0.13612602850E+02 -0.27006946978E+02  0.76777093829E+02  0.00000000000E+00 0.  1.
<scales pt_clust_5="13000.00000" pt_clust_6="13000.00000" pt_clust_7="13000.00000" pt_clust_8="13000.00000" pt_clust_9="71.87038"></scales>
<clustering>
<clus scale="   71.870">  1  9  2 -1</clus>
<clus scale="   80.414">  5  6 -1 -1</clus>
<clus scale="   90.934">  7  8 -1 -1</clus>
<clus scale="  105.496">  2  5  1 -1</clus>
<clus scale="   71.870">  1  5  2 -1</clus>
</clustering>
</event>
<event>
 9    2  0.3764910E-005  0.4744215E+03  0.7546771E-02  0.1065192E+00
          4   -1    0    0  502    0 -0.00000000000E+00  0.00000000000E+00  0.64709006553E+03  0.64709006553E+03  0.00000000000E+00 0. -1.
         21   -1    0    0  501  502  0.00000000000E+00 -0.00000000000E+00 -0.48678764017E+03  0.48678764017E+03  0.00000000000E+00 0. -1.
         23    2    1    2    0    0 -0.78018608328E+02  0.49937233937E+02  0.94737323274E+02  0.16152445341E+03  0.92381589338E+02 0.  0.
         24    2    1    2    0    0 -0.40908821524E+03  0.13946242820E+03 -0.32183534727E+02  0.44065777030E+03  0.79627595008E+02 0.  0.
        -13    1    4    4    0    0 -0.11758709496E+03  0.70637128846E+02 -0.33228901242E+02  0.14113996156E+03  0.00000000000E+00 0.  1.
         14    1    4    4    0    0 -0.29150112028E+03  0.68825299356E+02  0.10453665149E+01  0.29951780873E+03  0.00000000000E+00 0. -1.
        -13    1    3    3    0    0 -0.87324898812E+02  0.96331673116E+01  0.75784270861E+02  0.11602453006E+03  0.00000000000E+00 0. -1.
         13    1    3    3    0    0  0.93062904840E+01  0.40304066625E+02  0.18953052413E+02  0.45499923350E+02  0.00000000000E+00 0.  1.
          3    1    1    2  501    0  0.48710682357E+03 -0.18939966214E+03  0.97748636808E+02  0.53169548200E+03  0.00000000000E+00 0. -1.
<scales pt_clust_5="13000.00000" pt_clust_6="13000.00000" pt_clust_7="13000.00000" pt_clust_8="13000.00000" pt_clust_9="467.69155"></scales>
<clustering>
<clus scale="   79.628">  5  6 -1 -1</clus>
<clus scale="   92.382">  7  8 -1 -1</clus>
<clus scale="  130.824">  1  7  2 -1</clus>
<clus scale="  467.692">  2  9  1 -1</clus>
<clus scale="  467.692">  2  5  1 -1</clus>
</clustering>
</event>
<event>
 9    2  0.3764910E-005  0.1703872E+03  0.7546771E-02  0.1188495E+00
          2   -1    0    0  502    0 -0.00000000000E+00  0.00000000000E+00  0.52423133655E+03  0.52423133655E+03  0.00000000000E+00 0. -1.
         21   -1    0    0  501  502  0.00000000000E+00 -0.00000000000E+00 -0.12917420629E+03  0.12917420629E+03  0.00000000000E+00 0.  1.
         23    2    1    2    0    0  0.64017552565E+02 -0.76515067382E+02  0.24744208847E+03  0.28095865204E+03  0.88075958333E+02 0.  0.
         24    2    1    2    0    0  0.12089371720E+03  0.51191218330E+02  0.56837811015E+02  0.16490417075E+03  0.82018394735E+02 0.  0.
        -11    1    4    4    0    0  0.24377329170E+02  0.39285193490E+02 -0.94801293631E+01  0.47195905095E+02  0.00000000000E+00 0.  1.
         12    1    4    4    0    0  0.96516388034E+02  0.11906024841E+02  0.66317940379E+02  0.11770826565E+03  0.00000000000E+00 0. -1.
        -13    1    3    3    0    0  0.44152693893E+02 -0.95280225524E+02  0.18353369230E+03  0.21145306327E+03  0.00000000000E+00 0.  1.
         13    1    3    3    0    0  0.19864858672E+02  0.18765158142E+02  0.63908396165E+02  0.69505588772E+02  0.00000000000E+00 0. -1.
          1    1    1    2  501    0 -0.18491126977E+03  0.25323849052E+02  0.90777230781E+02  0.20754272005E+03  0.00000000000E+00 0. -1.
<scales pt_clust_5="13000.00000" pt_clust_6="13000.00000" pt_clust_7="13000.00000" pt_clust_8="13000.00000" pt_clust_9="149.34797"></scales>
<clustering>
<clus scale="   82.018">  5  6 -1 -1</clus>
<clus scale="   88.076">  7  8 -1 -1</clus>
<clus scale="  133.080">  1  7  2 -1</clus>
<clus scale="  149.348">  2  9  1 -1</clus>
<clus scale="  149.348">  2  5  1 -1</clus>
</clustering>
</event>
<event>
 9    2  0.3764910E-005  0.3992626E+03  0.7546771E-02  0.1044235E+00
         21   -1    0    0  501  502  0.00000000000E+00  0.00000000000E+00  0.18746077931E+03  0.18746077931E+03  0.00000000000E+00 0.  1.
          2   -1    0    0  502    0 -0.00000000000E+00 -0.00000000000E+00 -0.11142740729E+04  0.11142740729E+04  0.00000000000E+00 0. -1.
         23    2    1    2    0    0  0.33368939375E+03 -0.17276330266E+03 -0.46731321867E+03  0.60662599633E+03  0.91747941817E+02 0.  0.
         24    2    1    2    0    0 -0.36429877809E+03  0.17063711618E+03 -0.49836376494E+03  0.64559278294E+03  0.81197130814E+02 0.  0.
        -11    1    4    4    0    0 -0.31949655867E+03  0.15741935903E+03 -0.47401657591E+03  0.59291704297E+03  0.00000000000E+00 0.  1.
         12    1    4    4    0    0 -0.44802219416E+02  0.13217757157E+02 -0.24347189023E+02  0.52675739978E+02  0.00000000000E+00 0. -1.
        -13    1    3    3    0    0  0.32997221885E+03 -0.14939187418E+03 -0.44778713683E+03  0.57594523802E+03  0.00000000000E+00 0. -1.
         13    1    3    3    0    0  0.37171748988E+01 -0.23371428480E+02 -0.19526081845E+02  0.30680758312E+02  0.00000000000E+00 0.  1.
          1    1    1    2  501    0  0.30609384340E+02  0.21261864781E+01  0.38863690007E+02  0.49516072942E+02  0.00000000000E+00 0. -1.
<scales pt_clust_5="13000.00000" pt_clust_6="13000.00000" pt_clust_7="13000.00000" pt_clust_8="13000.00000" pt_clust_9="30.68314"></scales>
<clustering>
<clus scale="   30.683">  1  9  2 -1</clus>
<clus scale="   81.197">  5  6 -1 -1</clus>
<clus scale="   91.748">  7  8 -1 -1</clus>
<clus scale="  396.971">  1  5  2 -1</clus>
<clus scale="   30.683">  1  5  2 -1</clus>
</clustering>
</event>
<event>
 9    2  0.3764910E-005  0.9780945E+02  0.7546771E-02  0.1288250E+00
         21   -1    0    0  501  502  0.00000000000E+00  0.00000000000E+00  0.98452016541E+02  0.98452016541E+02  0.00000000000E+00 0. -1.
         -1   -1    0    0    0  501 -0.00000000000E+00 -0.00000000000E+00 -0.45995538379E+03  0.45995538379E+03  0.00000000000E+00 0.  1.
         23    2    1    2    0    0  0.44143945594E+02 -0.19629563251E+02 -0.35704078073E+03  0.37129032310E+03  0.89690452298E+02 0.  0.
         24    2    1    2    0    0  0.47621086988E+02  0.25508514306E+02  0.12845484424E+02  0.93549173605E+02  0.75286049067E+02 0.  0.
        -11    1    4    4    0    0  0.46682093925E+02 -0.15482842095E+02 -0.37288269318E+01  0.49323832402E+02  0.00000000000E+00 0.  1.
         12    1    4    4    0    0  0.93899306366E+00  0.40991356402E+02  0.16574311356E+02  0.44225341203E+02  0.00000000000E+00 0. -1.
        -13    1    3    3    0    0  0.24793365065E+02 -0.55012584518E+02 -0.18527067153E+03  0.19484947302E+03  0.00000000000E+00 0.  1.
         13    1    3    3    0    0  0.19350580529E+02  0.35383021268E+02 -0.17177010920E+03  0.17644085008E+03  0.00000000000E+00 0. -1.
         -2    1    1    2    0  502 -0.91765032582E+02 -0.58789510555E+01 -0.17308070945E+02  0.93567903632E+02  0.00000000000E+00 0.  1.
<scales pt_clust_5="13000.00000" pt_clust_6="13000.00000" pt_clust_7="13000.00000" pt_clust_8="13000.00000" pt_clust_9="91.95316"></scales>
<clustering>
<clus scale="   75.286">  5  6 -1 -1</clus>
<clus scale="   89.690">  7  8 -1 -1</clus>
<clus scale="   91.953">  1  9  2 -1</clus>
<clus scale="   91.953">  1  5  2 -1</clus>
<clus scale="   91.953">  1  5  2 -1</clus>
</clustering>
</event>
<event>
 9    2  0.3764910E-005  0.3525179E+03  0.7546771E-02  0.1061586E+00
         21   -1    0    0  501  502  0.00000000000E+00  0.00000000000E+00  0.30621282779E+03  0.30621282779E+03  0.00000000000E+00 0. -1.
         -1   -1    0    0    0  501 -0.00000000000E+00 -0.00000000000E+00 -0.38431501334E+03  0.38431501334E+03  0.00000000000E+00 0.  1.
         24    2    1    2    0    0  0.10465873928E+03 -0.16065077330E+03  0.98868699917E+02  0.23024345488E+03  0.80466800755E+02 0.  0.
         23    2    1    2    0    0  0.54322701697E+02 -0.77188907005E+02 -0.15804199738E+02  0.13192861472E+03  0.90809159056E+02 0.  0.
        -11    1    3    3    0    0  0.17501243737E+02 -0.10050442915E+03  0.46834330700E+02  0.11225367853E+03  0.00000000000E+00 0.  1.
         12    1    3    3    0    0  0.87157495545E+02 -0.60146344146E+02  0.52034369217E+02  0.11798977635E+03  0.00000000000E+00 0. -1.
        -13    1    4    4    0    0  0.39057837933E+02 -0.48453159751E+02 -0.53543833853E+02  0.82098511178E+02  0.00000000000E+00 0.  1.
         13    1    4    4    0    0  0.15264863764E+02 -0.28735747254E+02  0.37739634115E+02  0.49830103543E+02  0.00000000000E+00 0. -1.
         -2    1    1    2    0  502 -0.15898144098E+03  0.23783968030E+03 -0.16116668573E+03  0.32835577152E+03  0.00000000000E+00 0.  1.
<scales pt_clust_5="13000.00000" pt_clust_6="13000.00000" pt_clust_7="13000.00000" pt_clust_8="13000.00000" pt_clust_9="286.08197"></scales>
<clustering>
<clus scale="   80.467">  5  6 -1 -1</clus>
<clus scale="   90.809">  7  8 -1 -1</clus>
<clus scale="  108.891">  5  7 -1 -1</clus>
<clus scale="  286.082">  1  9  2 -1</clus>
<clus scale="  286.082">  1  5  2 -1</clus>
</clustering>
</event>
<event>
 9    2  0.3764910E-005  0.1060329E+03  0.7546771E-02  0.1271820E+00
         21   -1    0    0  501  502  0.00000000000E+00  0.00000000000E+00  0.25781268970E+03  0.25781268970E+03  0.00000000000E+00 0. -1.
          2   -1    0    0  502    0 -0.00000000000E+00 -0.00000000000E+00 -0.12129782332E+03  0.12129782332E+03  0.00000000000E+00 0. -1.
         24    2    1    2    0    0  0.56755252052E+02 -0.45301446895E+02 -0.52865869565E+02  0.12116750136E+03  0.81322712046E+02 0.  0.
         23    2    1    2    0    0 -0.12480041052E+02 -0.22896661485E+02  0.10228528584E+03  0.13879229313E+03  0.90116659962E+02 0.  0.
        -11    1    3    3    0    0  0.19967311126E+02  0.10900716650E+02  0.13736072650E+02  0.26574401761E+02  0.00000000000E+00 0.  1.
         12    1    3    3    0    0  0.36787940926E+02 -0.56202163545E+02 -0.66601942215E+02  0.94593099598E+02  0.00000000000E+00 0. -1.
        -11    1    4    4    0    0 -0.95975313794E+01 -0.56627918205E+02  0.79128005145E+02  0.97775635651E+02  0.00000000000E+00 0. -1.
         11    1    4    4    0    0 -0.28825096724E+01  0.33731256720E+02  0.23157280691E+02  0.41016657482E+02  0.00000000000E+00 0.  1.
          1    1    1    2  501    0 -0.44275211001E+02  0.68198108379E+02  0.87095450105E+02  0.11915071852E+03  0.00000000000E+00 0. -1.
<scales pt_clust_5="13000.00000" pt_clust_6="13000.00000" pt_clust_7="13000.00000" pt_clust_8="13000.00000" pt_clust_9="81.30976"></scales>
<clustering>
<clus scale="   81.310">  1  9  2 -1</clus>
<clus scale="   81.323">  5  6 -1 -1</clus>
<clus scale="   90.117">  7  8 -1 -1</clus>
<clus scale="   98.668">  2  5  1 -1</clus>
<clus scale="   81.310">  1  5  2 -1</clus>
</clustering>
</event>
<event>
 9    2  0.3764910E-005  0.1059579E+03  0.7546771E-02  0.1272717E+00
          2   -1    0    0  502    0 -0.00000000000E+00  0.00000000000E+00  0.12127039050E+03  0.12127039050E+03  0.00000000000E+00 0. -1.
         21   -1    0    0  501  502  0.00000000000E+00 -0.00000000000E+00 -0.24113790933E+03  0.24113790933E+03  0.00000000000E+00 0. -1.
         23    2    1    2    0    0  0.73224953098E+02 -0.16982614223E+02  0.44987890637E+02  0.12529176155E+03  0.89575734803E+02 0.  0.
         24    2    1    2    0    0 -0.26809641327E+02 -0.30917224379E+02 -0.44415949563E+02  0.99441416322E+02  0.79001183998E+02 0.  0.
        -11    1    4    4    0    0 -0.40756543609E+02  0.96047115681E+01 -0.37144987419E+02  0.55974069190E+02  0.00000000000E+00 0.  1.
         12    1    4    4    0    0  0.13946902282E+02 -0.40521935947E+02 -0.72709621436E+01  0.43467347132E+02  0.00000000000E+00 0. -1.
        -13    1    3    3    0    0  0.36391139896E+02  0.69050970051E+01  0.66715035732E+02  0.76307872597E+02  0.00000000000E+00 0. -1.
         13    1    3    3    0    0  0.36833813202E+02 -0.23887711228E+02 -0.21727145095E+02  0.48983888950E+02  0.00000000000E+00 0.  1.
          1    1    1    2  501    0 -0.46415311770E+02  0.47899838602E+02 -0.12043945991E+03  0.13767512196E+03  0.00000000000E+00 0. -1.
<scales pt_clust_5="13000.00000" pt_clust_6="13000.00000" pt_clust_7="13000.00000" pt_clust_8="13000.00000" pt_clust_9="66.69914"></scales>
<clustering>
<clus scale="   66.699">  2  9  1 -1</clus>
<clus scale="   79.001">  5  6 -1 -1</clus>
<clus scale="   89.576">  7  8 -1 -1</clus>
<clus scale="   97.183">  2  5  1 -1</clus>
<clus scale="   66.699">  2  5  1 -1</clus>
</clustering>
</event>
<event>
 9    2  0.3764910E-005  0.1645687E+03  0.7546771E-02  0.1185189E+00
          2   -1    0    0  502    0 -0.00000000000E+00  0.00000000000E+00  0.11268498689E+04  0.11268498689E+04  0.00000000000E+00 0. -1.
         21   -1    0    0  501  502  0.00000000000E+00 -0.00000000000E+00 -0.51746747126E+02  0.51746747126E+02  0.00000000000E+00 0. -1.
         23    2    1    2    0    0  0.21560111953E+02 -0.11459510271E+03  0.33241719974E+03  0.36380752580E+03  0.90872686510E+02 0.  0.
         24    2    1    2    0    0  0.91700165218E+02  0.14990717592E+03  0.59368018759E+03  0.62432244801E+03  0.80257537122E+02 0.  0.
        -13    1    4    4    0    0  0.57880985415E+02  0.54731716439E+02  0.37605780606E+03  0.38440244895E+03  0.00000000000E+00 0.  1.
         14    1    4    4    0    0  0.33819179803E+02  0.95175459484E+02  0.21762238152E+03  0.23991999906E+03  0.00000000000E+00 0. -1.
        -13    1    3    3    0    0  0.24026922884E+02 -0.33362463645E+02  0.22703547764E+03  0.23072809779E+03  0.00000000000E+00 0. -1.
         13    1    3    3    0    0 -0.24668109303E+01 -0.81232639070E+02  0.10538172210E+03  0.13307942801E+03  0.00000000000E+00 0.  1.
          1    1    1    2  501    0 -0.11326027717E+03 -0.35312073208E+02  0.14900573447E+03  0.19046664224E+03  0.00000000000E+00 0. -1.
<scales pt_clust_5="13000.00000" pt_clust_6="13000.00000" pt_clust_7="13000.00000" pt_clust_8="13000.00000" pt_clust_9="118.63740"></scales>
<clustering>
<clus scale="   80.258">  5  6 -1 -1</clus>
<clus scale="   90.873">  7  8 -1 -1</clus>
<clus scale="  118.637">  2  9  1 -1</clus>
<clus scale="  158.954">  2  5  1 -1</clus>
<clus scale="  118.637">  2  5  1 -1</clus>
</clustering>
</event>
<event>
 9    2  0.3764910E-005  0.1283791E+03  0.7546771E-02  0.1233356E+00
          2   -1    0    0  502    0 -0.00000000000E+00  0.00000000000E+00  0.43486525677E+03  0.43486525677E+03  0.00000000000E+00 0. -1.
         21   -1    0    0  501  502  0.00000000000E+00 -0.00000000000E+00 -0.19816318421E+03  0.19816318421E+03  0.00000000000E+00 0. -1.
         24    2    1    2    0    0 -0.79435295865E+02  0.94679213805E+00  0.20680546849E+03  0.23477079140E+03  0.77704311656E+02 0.  0.
         23    2    1    2    0    0  0.10859113135E+03  0.45573103135E+02  0.18289816032E+03  0.23570415189E+03  0.90751135711E+02 0.  0.
        -11    1    3    3    0    0 -0.52975681199E+02 -0.19621091971E+02  0.53363034541E+02  0.77711154309E+02  0.00000000000E+00 0.  1.
         12    1    3    3    0    0 -0.26459614666E+02  0.20567884109E+02  0.15344243395E+03  0.15705963709E+03  0.00000000000E+00 0. -1.
        -11    1    4    4    0    0  0.98471561536E+01 -0.25235037715E+02  0.36397435181E+02  0.45371212244E+02  0.00000000000E+00 0.  1.
         11    1    4    4    0    0  0.98743975196E+02  0.70808140849E+02  0.14650072513E+03  0.19033293964E+03  0.00000000000E+00 0. -1.
          1    1    1    2  501    0 -0.29155835485E+02 -0.46519895273E+02 -0.15300155625E+03  0.16255349770E+03  0.00000000000E+00 0. -1.
<scales pt_clust_5="13000.00000" pt_clust_6="13000.00000" pt_clust_7="13000.00000" pt_clust_8="13000.00000" pt_clust_9="54.90140"></scales>
<clustering>
<clus scale="   54.901">  2  9  1 -1</clus>
<clus scale="   77.704">  5  6 -1 -1</clus>
<clus scale="   90.751">  7  8 -1 -1</clus>
<clus scale="  119.513">  1  5  2 -1</clus>
<clus scale="   54.901">  2  5  1 -1</clus>
</clustering>
</event>
<event>
 9    2  0.3764910E-005  0.9547469E+02  0.7546771E-02  0.1296801E+00
         21   -1    0    0  501  502  0.00000000000E+00  0.00000000000E+00  0.24742297953E+03  0.24742297953E+03  0.00000000000E+00 0.  1.
         -1   -1    0    0    0  501 -0.00000000000E+00 -0.00000000000E+00 -0.78824145549E+02  0.78824145549E+02  0.00000000000E+00 0.  1.
         23    2    1    2    0    0  0.11626414337E+01  0.37578188263E+01  0.19975173880E+02  0.93896844151E+02  0.91663170535E+02 0.  0.
         24    2    1    2    0    0  0.52928103222E+02 -0.47756854193E+02  0.73803509436E+02  0.13007722135E+03  0.79943882035E+02 0.  0.
        -11    1    4    4    0    0  0.33498125279E+02 -0.66544878545E+02  0.33825353720E+02  0.81819923075E+02  0.00000000000E+00 0.  1.
         12    1    4    4    0    0  0.19429977943E+02  0.18788024351E+02  0.39978155717E+02  0.48257298271E+02  0.00000000000E+00 0. -1.
        -11    1    3    3    0    0  0.23338676872E+02 -0.29564604429E+02 -0.15192842223E+02  0.40615048048E+02  0.00000000000E+00 0.  1.
         11    1    3    3    0    0 -0.22176035438E+02  0.33322423255E+02  0.35168016102E+02  0.53281796103E+02  0.00000000000E+00 0. -1.
         -2    1    1    2    0  502 -0.54090744656E+02  0.43999035367E+02  0.74820150664E+02  0.10227305958E+03  0.00000000000E+00 0.  1.
<scales pt_clust_5="13000.00000" pt_clust_6="13000.00000" pt_clust_7="13000.00000" pt_clust_8="13000.00000" pt_clust_9="69.72606"></scales>
<clustering>
<clus scale="   69.726">  1  9  2 -1</clus>
<clus scale="   79.944">  5  6 -1 -1</clus>
<clus scale="   84.287">  1  5  2 -1</clus>
<clus scale="   91.663">  7  8 -1 -1</clus>
<clus scale="   69.726">  1  5  2 -1</clus>
</clustering>
</event>
<event>
 9    2  0.3764910E-005  0.1047874E+03  0.7546771E-02  0.1276749E+00
         21   -1    0    0  501  502  0.00000000000E+00  0.00000000000E+00  0.20726917180E+03  0.20726917180E+03  0.00000000000E+00 0. -1.
          4   -1    0    0  502    0 -0.00000000000E+00 -0.00000000000E+00 -0.90802919161E+02  0.90802919161E+02  0.00000000000E+00 0. -1.
         24    2    1    2    0    0  0.26236485896E+02  0.40188201135E+02  0.27287645668E+02  0.94391040436E+02  0.76561140312E+02 0.  0.
         23    2    1    2    0    0 -0.49001354193E+02 -0.43453594760E+02  0.12082114011E+03  0.16456389409E+03  0.90521708620E+02 0.  0.
        -11    1    3    3    0    0 -0.17432543906E+02  0.42127226248E+02  0.21120361776E+02  0.50246059149E+02  0.00000000000E+00 0.  1.
         12    1    3    3    0    0  0.43669029803E+02 -0.19390251125E+01  0.61672838913E+01  0.44144981288E+02  0.00000000000E+00 0. -1.
        -13    1    4    4    0    0 -0.68500858349E+02 -0.54469115852E+02  0.10705633183E+03  0.13827621040E+03  0.00000000000E+00 0. -1.
         13    1    4    4    0    0  0.19499504156E+02  0.11015521092E+02  0.13764808277E+02  0.26287683697E+02  0.00000000000E+00 0.  1.
          3    1    1    2  501    0  0.22764868297E+02  0.32653936244E+01 -0.31642533136E+02  0.39117156432E+02  0.00000000000E+00 0. -1.
<scales pt_clust_5="13000.00000" pt_clust_6="13000.00000" pt_clust_7="13000.00000" pt_clust_8="13000.00000" pt_clust_9="22.99788"></scales>
<clustering>
<clus scale="   22.998">  1  9  2 -1</clus>
<clus scale="   76.561">  5  6 -1 -1</clus>
<clus scale="   90.522">  7  8 -1 -1</clus>
<clus scale="   92.994">  2  5  1 -1</clus>
<clus scale="   22.998">  1  5  2 -1</clus>
</clustering>
</event>
<event>
 9    2  0.3764910E-005  0.1258307E+03  0.7546771E-02  0.1238222E+00
         21   -1    0    0  501  502  0.00000000000E+00  0.00000000000E+00  0.21065186889E+03  0.21065186889E+03  0.00000000000E+00 0. -1.
         -3   -1    0    0    0  501 -0.00000000000E+00 -0.00000000000E+00 -0.16471745736E+03  0.16471745736E+03  0.00000000000E+00 0.  1.
         23    2    1    2    0    0 -0.31151890294E+01 -0.71811872260E+02 -0.46162921450E+02  0.12382600573E+03  0.89639360650E+02 0.  0.
         24    2    1    2    0    0 -0.86768845581E+02 -0.68203871986E-02  0.36892523116E+02  0.12393205408E+03  0.80431729790E+02 0.  0.
        -11    1    4    4    0    0 -0.28360762883E+02 -0.37980377547E+02  0.62033709461E+01  0.47805059994E+02  0.00000000000E+00 0.  1.
         12    1    4    4    0    0 -0.58408082698E+02  0.37973557160E+02  0.30689152170E+02  0.76126994087E+02  0.00000000000E+00 0. -1.
        -11    1    3    3    0    0 -0.21136443051E+02 -0.87254063669E+02 -0.44043218919E+02  0.99999129918E+02  0.00000000000E+00 0.  1.
         11    1    3    3    0    0  0.18021254022E+02  0.15442191409E+02 -0.21197025311E+01  0.23826875810E+02  0.00000000000E+00 0. -1.
         -4    1    1    2    0  502  0.89884034610E+02  0.71818692647E+02  0.55204809859E+02  0.12761126644E+03  0.00000000000E+00 0.  1.
<scales pt_clust_5="13000.00000" pt_clust_6="13000.00000" pt_clust_7="13000.00000" pt_clust_8="13000.00000" pt_clust_9="96.76833"></scales>
<clustering>
<clus scale="   80.432">  5  6 -1 -1</clus>
<clus scale="   89.639">  7  8 -1 -1</clus>
<clus scale="  114.899">  2  7  1 -1</clus>
<clus scale="   96.768">  1  9  2 -1</clus>
<clus scale="   96.768">  1  5  2 -1</clus>
</clustering>
</event>
<event>
 9    2  0.3764910E-005  0.1198231E+03  0.7546771E-02  0.1244458E+00
         -1   -1    0    0    0  501 -0.00000000000E+00  0.00000000000E+00  0.23044611751E+03  0.23044611751E+03  0.00000000000E+00 0.  1.
         21   -1    0    0  501  502  0.00000000000E+00 -0.00000000000E+00 -0.11676750929E+03  0.11676750929E+03  0.00000000000E+00 0. -1.
         24    2    1    2    0    0  0.94004217478E+02  0.29171177149E+02  0.10671625033E+03  0.16603415476E+03  0.80568182196E+02 0.  0.
         23    2    1    2    0    0 -0.66613452870E+02 -0.22680333060E+02  0.57061383297E+02  0.12371385284E+03  0.84245868208E+02 0.  0.
        -11    1    3    3    0    0  0.37316265004E+02  0.41430293373E+02  0.89653416294E+02  0.10557797069E+03  0.00000000000E+00 0.  1.
         12    1    3    3    0    0  0.56687952475E+02 -0.12259116224E+02  0.17062834034E+02  0.60456184065E+02  0.00000000000E+00 0. -1.
        -13    1    4    4    0    0 -0.33105073753E+02 -0.43952449285E+02  0.10118526408E+01  0.55034421520E+02  0.00000000000E+00 0.  1.
         13    1    4    4    0    0 -0.33508379118E+02  0.21272116225E+02  0.56049530657E+02  0.68679431321E+02  0.00000000000E+00 0. -1.
         -2    1    1    2    0  502 -0.27390764608E+02 -0.64908440883E+01 -0.50099025404E+02  0.57465619193E+02  0.00000000000E+00 0.  1.
<scales pt_clust_5="13000.00000" pt_clust_6="13000.00000" pt_clust_7="13000.00000" pt_clust_8="13000.00000" pt_clust_9="28.14933"></scales>
<clustering>
<clus scale="   28.149">  2  9  1 -1</clus>
<clus scale="   80.568">  5  6 -1 -1</clus>
<clus scale="   84.246">  7  8 -1 -1</clus>
<clus scale="  117.267">  1  5  2 -1</clus>
<clus scale="   28.149">  2  5  1 -1</clus>
</clustering>
</event>
<event>
 9    2  0.3764910E-005  0.1124493E+03  0.7546771E-02  0.1260156E+00
         21   -1    0    0  501  502  0.00000000000E+00  0.00000000000E+00  0.13253832103E+03  0.13253832103E+03  0.00000000000E+00 0.  1.
         -1   -1    0    0    0  501 -0.00000000000E+00 -0.00000000000E+00 -0.24052600650E+03  0.24052600650E+03  0.00000000000E+00 0.  1.
         24    2    1    2    0    0  0.20672031507E+02  0.87380182279E+02 -0.66067202869E+02  0.13751440322E+03  0.80515257288E+02 0.  0.
         23    2    1    2    0    0 -0.78085328309E+02  0.35814544514E+01 -0.43753932432E+02  0.12796894298E+03  0.91386533207E+02 0.  0.
        -13    1    3    3    0    0 -0.70164606509E+01  0.89494250111E+02 -0.62797389745E+02  0.10955347407E+03  0.00000000000E+00 0.  1.
         14    1    3    3    0    0  0.27688492158E+02 -0.21140678320E+01 -0.32698131238E+01  0.27960929145E+02  0.00000000000E+00 0. -1.
        -13    1    4    4    0    0 -0.37601022856E+02  0.15331208402E+02 -0.68100946637E+02  0.79288219830E+02  0.00000000000E+00 0.  1.
         13    1    4    4    0    0 -0.40484305453E+02 -0.11749753951E+02  0.24347014205E+02  0.48680723153E+02  0.00000000000E+00 0. -1.
         -2    1    1    2    0  502  0.57413296802E+02 -0.90961636731E+02  0.18334498311E+01  0.10758098133E+03  0.00000000000E+00 0.  1.
<scales pt_clust_5="13000.00000" pt_clust_6="13000.00000" pt_clust_7="13000.00000" pt_clust_8="13000.00000" pt_clust_9="107.56536"></scales>
<clustering>
<clus scale="   80.515">  5  6 -1 -1</clus>
<clus scale="   91.387">  7  8 -1 -1</clus>
<clus scale="  107.565">  1  9  2 -1</clus>
<clus scale="  103.808">  2  5  1 -1</clus>
<clus scale="  107.565">  1  5  2 -1</clus>
</clustering>
</event>
<event>
 9    2  0.3764910E-005  0.1269951E+03  0.7546771E-02  0.1235325E+00
         21   -1    0    0  501  502  0.00000000000E+00  0.00000000000E+00  0.52895811762E+03  0.52895811762E+03  0.00000000000E+00 0.  1.
         -1   -1    0    0    0  501 -0.00000000000E+00 -0.00000000000E+00 -0.72338816148E+02  0.72338816148E+02  0.00000000000E+00 0.  1.
         24    2    1    2    0    0  0.64033626144E+02  0.78435052927E+02  0.39757732915E+01  0.12405695840E+03  0.71567865335E+02 0.  0.
         23    2    1    2    0    0 -0.35213778117E+02 -0.56114208867E+02  0.26362876649E+03  0.28474222510E+03  0.84789112694E+02 0.  0.
        -11    1    3    3    0    0  0.64584247191E+02  0.24116261168E+02 -0.44608487699E+01  0.69084138626E+02  0.00000000000E+00 0.  1.
         12    1    3    3    0    0 -0.55062104714E+00  0.54318791760E+02  0.84366220615E+01  0.54972819771E+02  0.00000000000E+00 0. -1.
        -11    1    4    4    0    0  0.25148560212E+02 -0.32652509910E+02  0.79351770312E+02  0.89416664754E+02  0.00000000000E+00 0.  1.
         11    1    4    4    0    0 -0.60362338329E+02 -0.23461698958E+02  0.18427699617E+03  0.19532556035E+03  0.00000000000E+00 0. -1.
         -2    1    1    2    0  502 -0.28819848027E+02 -0.22320844060E+02  0.18901476170E+03  0.19249775027E+03  0.00000000000E+00 0.  1.
<scales pt_clust_5="13000.00000" pt_clust_6="13000.00000" pt_clust_7="13000.00000" pt_clust_8="13000.00000" pt_clust_9="36.45276"></scales>
<clustering>
<clus scale="   36.453">  1  9  2 -1</clus>
<clus scale="   71.568">  5  6 -1 -1</clus>
<clus scale="   84.789">  7  8 -1 -1</clus>
<clus scale="  118.577">  2  5  1 -1</clus>
<clus scale="   36.453">  1  5  2 -1</clus>
</clustering>
</event>
<event>
 9    2  0.3764910E-005  0.1341351E+03  0.7546771E-02  0.1224281E+00
          2   -1    0    0  502    0 -0.00000000000E+00  0.00000000000E+00  0.98939307398E+03  0.98939307398E+03  0.00000000000E+00 0. -1.
         21   -1    0    0  501  502  0.00000000000E+00 -0.00000000000E+00 -0.61383741183E+02  0.61383741183E+02  0.00000000000E+00 0.  1.
         24    2    1    2    0    0 -0.62127767422E+02 -0.74267473648E+02  0.80744378020E+03  0.81711714091E+03  0.79620642142E+02 0.  0.
         23    2    1    2    0    0  0.44973023584E+02  0.10859454487E+03  0.57018076906E+02  0.15942413882E+03  0.91376402411E+02 0.  0.
        -11    1    3    3    0    0  0.72957060881E+00 -0.29785329777E+02  0.76005876723E+02  0.81636948985E+02  0.00000000000E+00 0.  1.
         12    1    3    3    0    0 -0.62857338031E+02 -0.44482143871E+02  0.73143790348E+03  0.73548019193E+03  0.00000000000E+00 0. -1.
        -11    1    4    4    0    0  0.33240633255E+02  0.15067426823E+02  0.53923712806E+02  0.65113238692E+02  0.00000000000E+00 0. -1.
         11    1    4    4    0    0  0.11732390329E+02  0.93527118048E+02  0.30943641002E+01  0.94310900125E+02  0.00000000000E+00 0.  1.
          1    1    1    2  501    0  0.17154743838E+02 -0.34327071222E+02  0.63547475684E+02  0.74235535431E+02  0.00000000000E+00 0. -1.
<scales pt_clust_5="13000.00000" pt_clust_6="13000.00000" pt_clust_7="13000.00000" pt_clust_8="13000.00000" pt_clust_9="38.37490"></scales>
<clustering>
<clus scale="   38.375">  2  9  1 -1</clus>
<clus scale="   79.621">  5  6 -1 -1</clus>
<clus scale="   91.376">  7  8 -1 -1</clus>
<clus scale="  126.420">  1  5  2 -1</clus>
<clus scale="   38.375">  2  5  1 -1</clus>
</clustering>
</event>
<event>
 9    2  0.3764910E-005  0.1731097E+03  0.7546771E-02  0.1191311E+00
         21   -1    0    0  501  502  0.00000000000E+00  0.00000000000E+00  0.99361124835E+02  0.99361124835E+02  0.00000000000E+00 0.  1.
          2   -1    0    0  502    0 -0.00000000000E+00 -0.00000000000E+00 -0.65477949752E+03  0.65477949752E+03  0.00000000000E+00 0. -1.
         24    2    1    2    0    0  0.29953192541E+02 -0.85435249553E+02 -0.14412900796E+03  0.18706153160E+03  0.77604574989E+02 0.  0.
         23    2    1    2    0    0  0.13187516823E+03  0.70912665299E+02 -0.68292099624E+02  0.18754457629E+03  0.89941598440E+02 0.  0.
        -11    1    3    3    0    0 -0.18179045329E+02 -0.57031133158E+02 -0.51923856410E+02  0.79240865107E+02  0.00000000000E+00 0.  1.
         12    1    3    3    0    0  0.48132237871E+02 -0.28404116395E+02 -0.92205151547E+02  0.10782066649E+03  0.00000000000E+00 0. -1.
        -11    1    4    4    0    0  0.10846926889E+03  0.49831212273E+02 -0.89823539213E+02  0.14938875529E+03  0.00000000000E+00 0. -1.
         11    1    4    4    0    0  0.23405899336E+02  0.21081453026E+02  0.21531439589E+02  0.38155821000E+02  0.00000000000E+00 0.  1.
          1    1    1    2  501    0 -0.16182836077E+03  0.14522584253E+02 -0.34299726510E+03  0.37953451446E+03  0.00000000000E+00 0. -1.
<scales pt_clust_5="13000.00000" pt_clust_6="13000.00000" pt_clust_7="13000.00000" pt_clust_8="13000.00000" pt_clust_9="147.91045"></scales>
<clustering>
<clus scale="   77.605">  5  6 -1 -1</clus>
<clus scale="   89.942">  7  8 -1 -1</clus>
<clus scale="  119.243">  2  5  1 -1</clus>
<clus scale="  147.910">  1  9  2 -1</clus>
<clus scale="  147.910">  1  5  2 -1</clus>
</clustering>
</event>
<event>
 9    2  0.3764910E-005  0.1189365E+03  0.7546771E-02  0.1247403E+00
         21   -1    0    0  501  502  0.00000000000E+00  0.00000000000E+00  0.53119599987E+03  0.53119599987E+03  0.00000000000E+00 0.  1.
          2   -1    0    0  502    0 -0.00000000000E+00 -0.00000000000E+00 -0.55049932991E+02  0.55049932991E+02  0.00000000000E+00 0. -1.
         23    2    1    2    0    0  0.89731729083E+02 -0.73293129789E+02  0.15580894904E+03  0.21430398522E+03  0.90697868790E+02 0.  0.
         24    2    1    2    0    0 -0.10833976215E+01  0.52267843729E+02  0.16597152814E+03  0.19269540065E+03  0.82776011250E+02 0.  0.
        -11    1    4    4    0    0  0.32717543540E+02  0.48386480785E+02  0.13325530435E+03  0.14549455425E+03  0.00000000000E+00 0.  1.
         12    1    4    4    0    0 -0.33800941161E+02  0.38813629441E+01  0.32716223789E+02  0.47200846398E+02  0.00000000000E+00 0. -1.
        -11    1    3    3    0    0  0.99778575294E+02 -0.32245982889E+02  0.11264525592E+03  0.15389776211E+03  0.00000000000E+00 0.  1.
         11    1    3    3    0    0 -0.10046846211E+02 -0.41047146900E+02  0.43163693120E+02  0.60406223116E+02  0.00000000000E+00 0. -1.
          1    1    1    2  501    0 -0.88648331462E+02  0.21025286060E+02  0.15436558970E+03  0.17924654699E+03  0.00000000000E+00 0. -1.
<scales pt_clust_5="13000.00000" pt_clust_6="13000.00000" pt_clust_7="13000.00000" pt_clust_8="13000.00000" pt_clust_9="91.10757"></scales>
<clustering>
<clus scale="   82.776">  5  6 -1 -1</clus>
<clus scale="   90.698">  7  8 -1 -1</clus>
<clus scale="   91.108">  1  9  2 -1</clus>
<clus scale="  113.012">  1  5  2 -1</clus>
<clus scale="   91.108">  1  5  2 -1</clus>
</clustering>
</event>
<event>
 9    2  0.3764910E-005  0.1181538E+03  0.7546771E-02  0.1247729E+00
          2   -1    0    0  502    0 -0.00000000000E+00  0.00000000000E+00  0.20198339701E+03  0.20198339701E+03  0.00000000000E+00 0. -1.
         21   -1    0    0  501  502  0.00000000000E+00 -0.00000000000E+00 -0.36933641814E+03  0.36933641814E+03  0.00000000000E+00 0.  1.
         23    2    1    2    0    0  0.36140372082E+02  0.29355632377E+02  0.17095718903E+03  0.20606780307E+03  0.10521263866E+03 0.  0.
         24    2    1    2    0    0 -0.25633671866E+02 -0.69327030606E+01 -0.26341663986E+03  0.28637092828E+03  0.10915509564E+03 0.  0.
        -11    1    4    4    0    0 -0.23100680453E+02 -0.56513487652E+02 -0.12063092338E+03  0.13520072263E+03  0.00000000000E+00 0.  1.
         12    1    4    4    0    0 -0.25329914137E+01  0.49580784591E+02 -0.14278571648E+03  0.15117020565E+03  0.00000000000E+00 0. -1.
        -11    1    3    3    0    0  0.78361759944E+01  0.67154403020E+02  0.10690810571E+03  0.12649293485E+03  0.00000000000E+00 0. -1.
         11    1    3    3    0    0  0.28304196087E+02 -0.37798770643E+02  0.64049083320E+02  0.79574868221E+02  0.00000000000E+00 0.  1.
          1    1    1    2  501    0 -0.10506700215E+02 -0.22422929317E+02 -0.74893570307E+02  0.78881083802E+02  0.00000000000E+00 0. -1.
<scales pt_clust_5="13000.00000" pt_clust_6="13000.00000" pt_clust_7="13000.00000" pt_clust_8="13000.00000" pt_clust_9="24.76244"></scales>
<clustering>
<clus scale="   24.762">  2  9  1 -1</clus>
<clus scale="  105.213">  7  8 -1 -1</clus>
<clus scale="  109.155">  5  6 -1 -1</clus>
<clus scale="  114.522">  1  7  2 -1</clus>
<clus scale="   24.762">  2  5  1 -1</clus>
</clustering>
</event>
<event>
 9    2  0.3764910E-005  0.1150181E+03  0.7546771E-02  0.1255509E+00
          4   -1    0    0  502    0 -0.00000000000E+00  0.00000000000E+00  0.27051174735E+03  0.27051174735E+03  0.00000000000E+00 0. -1.
         21   -1    0    0  501  502  0.00000000000E+00 -0.00000000000E+00 -0.10216650500E+03  0.10216650500E+03  0.00000000000E+00 0. -1.
         24    2    1    2    0    0 -0.47873243980E+02 -0.31508826713E+02  0.34305298781E+02  0.10496992755E+03  0.80976407157E+02 0.  0.
         23    2    1    2    0    0  0.98777810819E+02 -0.11650468843E+02  0.22046313036E+02  0.13733741931E+03  0.92101777885E+02 0.  0.
        -13    1    3    3    0    0 -0.19709825360E+02 -0.45460947164E+02  0.49518415837E+02  0.70051755436E+02  0.00000000000E+00 0.  1.
         14    1    3    3    0    0 -0.28163418621E+02  0.13952120451E+02 -0.15213117055E+02  0.34918172117E+02  0.00000000000E+00 0. -1.
        -11    1    4    4    0    0 -0.72658230878E+01 -0.22735102082E+02 -0.10185925471E+02  0.25950532355E+02  0.00000000000E+00 0.  1.
         11    1    4    4    0    0  0.10604363391E+03  0.11084633238E+02  0.32232238507E+02  0.11138688695E+03  0.00000000000E+00 0. -1.
          3    1    1    2  501    0 -0.50904566839E+02  0.43159295557E+02  0.11199363053E+03  0.13037090549E+03  0.00000000000E+00 0. -1.
<scales pt_clust_5="13000.00000" pt_clust_6="13000.00000" pt_clust_7="13000.00000" pt_clust_8="13000.00000" pt_clust_9="66.73833"></scales>
<clustering>
<clus scale="   66.738">  2  9  1 -1</clus>
<clus scale="   80.976">  5  6 -1 -1</clus>
<clus scale="   92.102">  7  8 -1 -1</clus>
<clus scale="  106.318">  1  5  2 -1</clus>
<clus scale="   66.738">  2  5  1 -1</clus>
</clustering>
</event>
<event>
 9    2  0.3764910E-005  0.1145569E+03  0.7546771E-02  0.1259073E+00
         21   -1    0    0  501  502  0.00000000000E+00  0.00000000000E+00  0.16448567841E+03  0.16448567841E+03  0.00000000000E+00 0. -1.
          4   -1    0    0  502    0 -0.00000000000E+00 -0.00000000000E+00 -0.21026026500E+03  0.21026026500E+03  0.00000000000E+00 0. -1.
         23    2    1    2    0    0  0.44149583870E+02  0.56466064179E+02 -0.16506737696E+03  0.20279536614E+03  0.93493953986E+02 0.  0.
         24    2    1    2    0    0 -0.10550574779E+02 -0.36799923276E+02  0.87885847674E+02  0.12193011586E+03  0.75349067352E+02 0.  0.
        -13    1    4    4    0    0 -0.40432040737E+02 -0.35498807542E+02  0.48210406165E+02  0.72243743796E+02  0.00000000000E+00 0.  1.
         14    1    4    4    0    0  0.29881465957E+02 -0.13011157339E+01  0.39675441509E+02  0.49686372064E+02  0.00000000000E+00 0. -1.
        -13    1    3    3    0    0 -0.20643260157E+02  0.82850398385E+01 -0.39693044174E+01  0.22595164363E+02  0.00000000000E+00 0.  1.
         13    1    3    3    0    0  0.64792844027E+02  0.48181024341E+02 -0.16109807255E+03  0.18020020178E+03  0.00000000000E+00 0. -1.
          3    1    1    2  501    0 -0.33599009091E+02 -0.19666140903E+02  0.31406942696E+02  0.50020461408E+02  0.00000000000E+00 0. -1.
<scales pt_clust_5="13000.00000" pt_clust_6="13000.00000" pt_clust_7="13000.00000" pt_clust_8="13000.00000" pt_clust_9="38.93136"></scales>
<clustering>
<clus scale="   38.931">  1  9  2 -1</clus>
<clus scale="   75.349">  5  6 -1 -1</clus>
<clus scale="   93.494">  7  8 -1 -1</clus>
<clus scale="  100.298">  1  5  2 -1</clus>
<clus scale="   38.931">  1  5  2 -1</clus>
</clustering>
</event>
<event>
 9    2  0.3764910E-005  0.1168672E+03  0.7546771E-02  0.1257066E+00
         21   -1    0    0  501  502  0.00000000000E+00  0.00000000000E+00  0.16595746769E+03  0.16595746769E+03  0.00000000000E+00 0. -1.
          2   -1    0    0  502    0 -0.00000000000E+00 -0.00000000000E+00 -0.89110502756E+03  0.89110502756E+03  0.00000000000E+00 0. -1.
         24    2    1    2    0    0  0.32026152069E+02 -0.42966929004E+02 -0.67477017193E+03  0.68156143300E+03  0.79620164704E+02 0.  0.
         23    2    1    2    0    0 -0.48988063510E+02  0.64962481101E+02 -0.19154853754E+03  0.23162332169E+03  0.10167874212E+03 0.  0.
        -13    1    3    3    0    0  0.25438064159E+02 -0.10841814351E+02 -0.61680075289E+02  0.67594909085E+02  0.00000000000E+00 0.  1.
         14    1    3    3    0    0  0.65880879108E+01 -0.32125114653E+02 -0.61309009664E+03  0.61396652392E+03  0.00000000000E+00 0. -1.
        -13    1    4    4    0    0 -0.39842480438E+01  0.41810690157E+02 -0.17251297042E+03  0.17755205717E+03  0.00000000000E+00 0. -1.
         13    1    4    4    0    0 -0.45003815466E+02  0.23151790944E+02 -0.19035567119E+02  0.54071264512E+02  0.00000000000E+00 0.  1.
          1    1    1    2  501    0  0.16961911441E+02 -0.21995552097E+02  0.14117114960E+03  0.14387774056E+03  0.00000000000E+00 0. -1.
<scales pt_clust_5="13000.00000" pt_clust_6="13000.00000" pt_clust_7="13000.00000" pt_clust_8="13000.00000" pt_clust_9="27.77608"></scales>
<clustering>
<clus scale="   27.776">  1  9  2 -1</clus>
<clus scale="   79.620">  5  6 -1 -1</clus>
<clus scale="   98.279">  2  5  1 -1</clus>
<clus scale="  101.679">  7  8 -1 -1</clus>
<clus scale="   27.776">  1  5  2 -1</clus>
</clustering>
</event>
<event>
 9    2  0.3764910E-005  0.1235056E+03  0.7546771E-02  0.1237693E+00
          2   -1    0    0  502    0 -0.00000000000E+00  0.00000000000E+00  0.35333945633E+03  0.35333945633E+03  0.00000000000E+00 0. -1.
         21   -1    0    0  501  502  0.00000000000E+00 -0.00000000000E+00 -0.78966026544E+02  0.78966026544E+02  0.00000000000E+00 0.  1.
         23    2    1    2    0    0  0.53176669864E+02  0.69447282700E+02  0.24616406926E+03  0.27699102377E+03  0.92068425448E+02 0.  0.
         24    2    1    2    0    0 -0.33614011107E+02 -0.61756631844E+02  0.49573104781E+02  0.12534358495E+03  0.91157765720E+02 0.  0.
        -13    1    4    4    0    0  0.16814405511E+02 -0.62325428745E+02  0.30874477023E+02  0.71557086528E+02  0.00000000000E+00 0.  1.
         14    1    4    4    0    0 -0.50428416617E+02  0.56879690150E+00  0.18698627758E+02  0.53786498422E+02  0.00000000000E+00 0. -1.
        -11    1    3    3    0    0  0.46480886302E+02 -0.87556602706E+01  0.74682303260E+02  0.88400117638E+02  0.00000000000E+00 0. -1.
         11    1    3    3    0    0  0.66957835626E+01  0.78202942970E+02  0.17148176600E+03  0.18859090614E+03  0.00000000000E+00 0.  1.
          1    1    1    2  501    0 -0.19562658758E+02 -0.76906508559E+01 -0.21363744259E+02  0.29970874145E+02  0.00000000000E+00 0. -1.
<scales pt_clust_5="13000.00000" pt_clust_6="13000.00000" pt_clust_7="13000.00000" pt_clust_8="13000.00000" pt_clust_9="21.02008"></scales>
<clustering>
<clus scale="   21.020">  2  9  1 -1</clus>
<clus scale="   91.158">  5  6 -1 -1</clus>
<clus scale="   92.068">  7  8 -1 -1</clus>
<clus scale="  122.828">  2  5  1 -1</clus>
<clus scale="   21.020">  2  5  1 -1</clus>
</clustering>
</event>
<event>
 9    2  0.3764910E-005  0.1976904E+03  0.7546771E-02  0.1152265E+00
         21   -1    0    0  501  502  0.00000000000E+00  0.00000000000E+00  0.42388943226E+02  0.42388943226E+02  0.00000000000E+00 0.  1.
          2   -1    0    0  502    0 -0.00000000000E+00 -0.00000000000E+00 -0.12970300487E+04  0.12970300487E+04  0.00000000000E+00 0. -1.
         23    2    1    2    0    0 -0.13725327197E+03 -0.12597308163E+03 -0.79178189802E+03  0.81838136015E+03  0.90121022288E+02 0.  0.
         24    2    1    2    0    0  0.85972414527E+02  0.13933394362E+03 -0.38618958766E+03  0.42783640016E+03  0.84240036680E+02 0.  0.
        -13    1    4    4    0    0  0.57657984152E+02  0.14418575780E+03 -0.33111060628E+03  0.36571602300E+03  0.00000000000E+00 0.  1.
         14    1    4    4    0    0  0.28314430375E+02 -0.48518141816E+01 -0.55078981384E+02  0.62120377161E+02  0.00000000000E+00 0. -1.
        -13    1    3    3    0    0 -0.20517559461E+02  0.50866464520E+01 -0.30365637788E+02  0.36998867235E+02  0.00000000000E+00 0.  1.
         13    1    3    3    0    0 -0.11673571251E+03 -0.13105972808E+03 -0.76141626023E+03  0.78138249292E+03  0.00000000000E+00 0. -1.
          1    1    1    2  501    0  0.51280857443E+02 -0.13360861989E+02 -0.76669619758E+02  0.93201231575E+02  0.00000000000E+00 0. -1.
<scales pt_clust_5="13000.00000" pt_clust_6="13000.00000" pt_clust_7="13000.00000" pt_clust_8="13000.00000" pt_clust_9="52.99282"></scales>
<clustering>
<clus scale="   52.993">  1  9  2 -1</clus>
<clus scale="   84.240">  5  6 -1 -1</clus>
<clus scale="   90.121">  7  8 -1 -1</clus>
<clus scale="  195.080">  1  5  2 -1</clus>
<clus scale="   52.993">  1  5  2 -1</clus>
</clustering>
</event>
<event>
 9    2  0.3764910E-005  0.2004648E+03  0.7546771E-02  0.1176102E+00
         21   -1    0    0  501  502  0.00000000000E+00  0.00000000000E+00  0.29814106774E+02  0.29814106774E+02  0.00000000000E+00 0. -1.
          2   -1    0    0  502    0 -0.00000000000E+00 -0.00000000000E+00 -0.21763082072E+04  0.21763082072E+04  0.00000000000E+00 0. -1.
         24    2    1    2    0    0 -0.20596680393E+02  0.61487409167E+02 -0.42694082469E+03  0.44035186388E+03  0.86176397604E+02 0.  0.
         23    2    1    2    0    0  0.18564728650E+03 -0.33715670335E+02 -0.64599638449E+03  0.67924508418E+03  0.91983119035E+02 0.  0.
        -13    1    3    3    0    0 -0.19324468049E+02 -0.18009643889E+02 -0.74204985967E+02  0.78766504815E+02  0.00000000000E+00 0.  1.
         14    1    3    3    0    0 -0.12722123441E+01  0.79497053056E+02 -0.35273583872E+03  0.36158535906E+03  0.00000000000E+00 0. -1.
        -11    1    4    4    0    0  0.77494754607E+02  0.29281312827E+02 -0.30319991422E+03  0.31431356995E+03  0.00000000000E+00 0.  1.
         11    1    4    4    0    0  0.10815253189E+03 -0.62996983162E+02 -0.34279647028E+03  0.36493151423E+03  0.00000000000E+00 0. -1.
          1    1    1    2  501    0 -0.16505060611E+03 -0.27771738831E+02 -0.10735568913E+04  0.10865253659E+04  0.00000000000E+00 0. -1.
<scales pt_clust_5="13000.00000" pt_clust_6="13000.00000" pt_clust_7="13000.00000" pt_clust_8="13000.00000" pt_clust_9="178.11595"></scales>
<clustering>
<clus scale="   86.176">  5  6 -1 -1</clus>
<clus scale="   91.983">  7  8 -1 -1</clus>
<clus scale="  107.849">  2  5  1 -1</clus>
<clus scale="  178.116">  1  9  2 -1</clus>
<clus scale="  178.116">  1  5  2 -1</clus>
</clustering>
</event>
<event>
 9    2  0.3764910E-005  0.1123990E+03  0.7546771E-02  0.1260342E+00
          4   -1    0    0  502    0 -0.00000000000E+00  0.00000000000E+00  0.59222491647E+02  0.59222491647E+02  0.00000000000E+00 0. -1.
         21   -1    0    0  501  502  0.00000000000E+00 -0.00000000000E+00 -0.39673329512E+03  0.39673329512E+03  0.00000000000E+00 0.  1.
         24    2    1    2    0    0 -0.64622733049E+02  0.43624603882E+02 -0.13476218577E+03  0.17555298436E+03  0.81109801591E+02 0.  0.
         23    2    1    2    0    0  0.37286235377E+02 -0.23730354012E+02 -0.21991064205E+03  0.24248710165E+03  0.92119004178E+02 0.  0.
        -13    1    3    3    0    0 -0.80413966021E+02  0.25970390467E+02 -0.82144615610E+02  0.11784992569E+03  0.00000000000E+00 0.  1.
         14    1    3    3    0    0  0.15791232972E+02  0.17654213415E+02 -0.52617570164E+02  0.57703058671E+02  0.00000000000E+00 0. -1.
        -11    1    4    4    0    0  0.57558347636E+02  0.10120749306E+02 -0.16362909331E+03  0.17375233273E+03  0.00000000000E+00 0.  1.
         11    1    4    4    0    0 -0.20272112258E+02 -0.33851103318E+02 -0.56281548737E+02  0.68734768927E+02  0.00000000000E+00 0. -1.
          3    1    1    2  501    0  0.27336497672E+02 -0.19894249870E+02  0.17162024356E+02  0.37915700744E+02  0.00000000000E+00 0. -1.
<scales pt_clust_5="13000.00000" pt_clust_6="13000.00000" pt_clust_7="13000.00000" pt_clust_8="13000.00000" pt_clust_9="33.80927"></scales>
<clustering>
<clus scale="   33.809">  2  9  1 -1</clus>
<clus scale="   81.110">  5  6 -1 -1</clus>
<clus scale="   92.119">  7  8 -1 -1</clus>
<clus scale="  103.568">  1  5  2 -1</clus>
<clus scale="   33.809">  2  5  1 -1</clus>
</clustering>
</event>
<event>
 9    2  0.3764910E-005  0.9198180E+02  0.7546771E-02  0.1305507E+00
          2   -1    0    0  502    0 -0.00000000000E+00  0.00000000000E+00  0.28213387443E+03  0.28213387443E+03  0.00000000000E+00 0. -1.
         21   -1    0    0  501  502  0.00000000000E+00 -0.00000000000E+00 -0.81185935970E+02  0.81185935970E+02  0.00000000000E+00 0.  1.
         23    2    1    2    0    0  0.51042271058E+00  0.16342262042E+02  0.21896928287E+03  0.23750033366E+03  0.90507080326E+02 0.  0.
         24    2    1    2    0    0  0.20480761512E+02 -0.14289951769E+02  0.17676722226E+02  0.84356315340E+02  0.78612067238E+02 0.  0.
        -11    1    4    4    0    0  0.22164622970E+02  0.26872474211E+02 -0.80954515416E+01  0.35762224725E+02  0.00000000000E+00 0.  1.
         12    1    4    4    0    0 -0.16838614583E+01 -0.41162425980E+02  0.25772173768E+02  0.48594090615E+02  0.00000000000E+00 0. -1.
        -11    1    3    3    0    0  0.19399612776E+02 -0.32850708918E+02  0.11067546671E+03  0.11706653229E+03  0.00000000000E+00 0.  1.
         11    1    3    3    0    0 -0.18889190065E+02  0.49192970960E+02  0.10829381616E+03  0.12043380137E+03  0.00000000000E+00 0. -1.
          1    1    1    2  501    0 -0.20991184223E+02 -0.20523102728E+01 -0.35698066629E+02  0.41463161404E+02  0.00000000000E+00 0. -1.
<scales pt_clust_5="13000.00000" pt_clust_6="13000.00000" pt_clust_7="13000.00000" pt_clust_8="13000.00000" pt_clust_9="21.09127"></scales>
<clustering>
<clus scale="   21.091">  2  9  1 -1</clus>
<clus scale="   78.612">  5  6 -1 -1</clus>
<clus scale="   80.306">  2  5  1 -1</clus>
<clus scale="   90.507">  7  8 -1 -1</clus>
<clus scale="   21.091">  2  5  1 -1</clus>
</clustering>
</event>
<event>
 9    2  0.3764910E-005  0.9695149E+02  0.7546771E-02  0.1293849E+00
         21   -1    0    0  501  502  0.00000000000E+00  0.00000000000E+00  0.43422933735E+02  0.43422933735E+02  0.00000000000E+00 0. -1.
          2   -1    0    0  502    0 -0.00000000000E+00 -0.00000000000E+00 -0.30523243539E+03  0.30523243539E+03  0.00000000000E+00 0. -1.
         23    2    1    2    0    0  0.10851157839E+02  0.21574710062E+02 -0.17706166918E+03  0.20109155823E+03  0.92215857412E+02 0.  0.
         24    2    1    2    0    0  0.55788668710E+01 -0.45381679537E+02 -0.62017496375E+02  0.11077542024E+03  0.79588964558E+02 0.  0.
        -13    1    4    4    0    0 -0.13001578928E+02 -0.60379552362E+02 -0.61101045964E+02  0.86879624861E+02  0.00000000000E+00 0.  1.
         14    1    4    4    0    0  0.18580445799E+02  0.14997872825E+02 -0.91645041036E+00  0.23895795378E+02  0.00000000000E+00 0. -1.
        -11    1    3    3    0    0 -0.28652560261E+02  0.29686853142E+02 -0.37272282387E+02  0.55601272407E+02  0.00000000000E+00 0.  1.
         11    1    3    3    0    0  0.39503718100E+02 -0.81121430803E+01 -0.13978938680E+03  0.14549028583E+03  0.00000000000E+00 0. -1.
          1    1    1    2  501    0 -0.16430024710E+02  0.23806969476E+02 -0.22730336093E+02  0.36788390648E+02  0.00000000000E+00 0. -1.
<scales pt_clust_5="13000.00000" pt_clust_6="13000.00000" pt_clust_7="13000.00000" pt_clust_8="13000.00000" pt_clust_9="28.92607"></scales>
<clustering>
<clus scale="   28.926">  1  9  2 -1</clus>
<clus scale="   79.589">  5  6 -1 -1</clus>
<clus scale="   85.031">  1  5  2 -1</clus>
<clus scale="   92.216">  7  8 -1 -1</clus>
<clus scale="   28.926">  1  5  2 -1</clus>
</clustering>
</event>
<event>
 9    2  0.3764910E-005  0.9626267E+02  0.7546771E-02  0.1294355E+00
          2   -1    0    0  502    0 -0.00000000000E+00  0.00000000000E+00  0.18572247798E+03  0.18572247798E+03  0.00000000000E+00 0. -1.
         21   -1    0    0  501  502  0.00000000000E+00 -0.00000000000E+00 -0.99750812487E+02  0.99750812487E+02  0.00000000000E+00 0. -1.
         23    2    1    2    0    0 -0.39227808812E+02  0.44568063459E+01  0.10123274177E+03  0.14233427602E+03  0.91936358517E+02 0.  0.
         24    2    1    2    0    0 -0.78727343073E+01 -0.31811896596E+02 -0.13947582182E+02  0.88655187560E+02  0.81186393700E+02 0.  0.
        -13    1    4    4    0    0  0.28862851799E+02 -0.23208898832E+02 -0.29990473179E+02  0.47656538696E+02  0.00000000000E+00 0.  1.
         14    1    4    4    0    0 -0.36735586106E+02 -0.86029977642E+01  0.16042890997E+02  0.40998648864E+02  0.00000000000E+00 0. -1.
        -13    1    3    3    0    0 -0.23466761335E+02 -0.38698288191E+02  0.21030949318E+02  0.49905382732E+02  0.00000000000E+00 0. -1.
         13    1    3    3    0    0 -0.15761047478E+02  0.43155094537E+02  0.80201792456E+02  0.92428893292E+02  0.00000000000E+00 0.  1.
          1    1    1    2  501    0  0.47100543120E+02  0.27355090251E+02 -0.13134941002E+01  0.54483826880E+02  0.00000000000E+00 0. -1.
<scales pt_clust_5="13000.00000" pt_clust_6="13000.00000" pt_clust_7="13000.00000" pt_clust_8="13000.00000" pt_clust_9="54.46799"></scales>
<clustering>
<clus scale="   54.468">  2  9  1 -1</clus>
<clus scale="   81.186">  5  6 -1 -1</clus>
<clus scale="   86.055">  2  5  1 -1</clus>
<clus scale="   91.936">  7  8 -1 -1</clus>
<clus scale="   54.468">  2  5  1 -1</clus>
</clustering>
</event>
<event>
 9    2  0.3764910E-005  0.1189238E+03  0.7546771E-02  0.1246999E+00
         21   -1    0    0  501  502  0.00000000000E+00  0.00000000000E+00  0.79209619413E+02  0.79209619413E+02  0.00000000000E+00 0. -1.
          2   -1    0    0  502    0 -0.00000000000E+00 -0.00000000000E+00 -0.38961718654E+03  0.38961718654E+03  0.00000000000E+00 0. -1.
         24    2    1    2    0    0 -0.73113235265E+02 -0.26430413720E+02 -0.21226690566E+03  0.24070532172E+03  0.82690390779E+02 0.  0.
         23    2    1    2    0    0  0.44405708070E+02  0.91011600638E+02 -0.59916385173E+02  0.14777257559E+03  0.89396770212E+02 0.  0.
        -11    1    3    3    0    0 -0.37954227484E+02  0.23630477271E+02 -0.48887778234E+02  0.66249058112E+02  0.00000000000E+00 0.  1.
         12    1    3    3    0    0 -0.35159007781E+02 -0.50060890991E+02 -0.16337912743E+03  0.17445626361E+03  0.00000000000E+00 0. -1.
        -13    1    4    4    0    0  0.36814704359E+02 -0.18298541988E+01  0.28463477995E+00  0.36861251204E+02  0.00000000000E+00 0.  1.
         13    1    4    4    0    0  0.75910037116E+01  0.92841454837E+02 -0.60201019953E+02  0.11091132439E+03  0.00000000000E+00 0. -1.
          1    1    1    2  501    0  0.28707527195E+02 -0.64581186918E+02 -0.38224276292E+02  0.80348908639E+02  0.00000000000E+00 0. -1.
<scales pt_clust_5="13000.00000" pt_clust_6="13000.00000" pt_clust_7="13000.00000" pt_clust_8="13000.00000" pt_clust_9="70.67427"></scales>
<clustering>
<clus scale="   70.674">  1  9  2 -1</clus>
<clus scale="   82.690">  5  6 -1 -1</clus>
<clus scale="   89.397">  7  8 -1 -1</clus>
<clus scale="  113.968">  2  5  1 -1</clus>
<clus scale="   70.674">  1  5  2 -1</clus>
</clustering>
</event>
<event>
 9    2  0.3764910E-005  0.1077219E+03  0.7546771E-02  0.1266335E+00
         21   -1    0    0  501  502  0.00000000000E+00  0.00000000000E+00  0.41602893685E+03  0.41602893685E+03  0.00000000000E+00 0.  1.
         -1   -1    0    0    0  501 -0.00000000000E+00 -0.00000000000E+00 -0.14603283030E+03  0.14603283030E+03  0.00000000000E+00 0.  1.
         23    2    1    2    0    0  0.26062373797E+02 -0.80323546060E+02 -0.85372681509E+02  0.14748068794E+03  0.85620903914E+02 0.  0.
         24    2    1    2    0    0 -0.96992545699E+01  0.21734375440E+02  0.41168451578E+02  0.94546246687E+02  0.81717150845E+02 0.  0.
        -13    1    4    4    0    0  0.40138099248E+01 -0.30620914328E+02  0.17264994305E+02  0.35381225145E+02  0.00000000000E+00 0.  1.
         14    1    4    4    0    0 -0.13713064495E+02  0.52355289767E+02  0.23903457273E+02  0.59165021542E+02  0.00000000000E+00 0. -1.
        -11    1    3    3    0    0 -0.29209759504E+02 -0.10225168794E+02 -0.20279226492E+02  0.37000150733E+02  0.00000000000E+00 0. -1.
         11    1    3    3    0    0  0.55272133302E+02 -0.70098377266E+02 -0.65093455017E+02  0.11048053721E+03  0.00000000000E+00 0.  1.
         -2    1    1    2    0  502 -0.16363119228E+02  0.58589170620E+02  0.31420033648E+03  0.32003483253E+03  0.00000000000E+00 0.  1.
<scales pt_clust_5="13000.00000" pt_clust_6="13000.00000" pt_clust_7="13000.00000" pt_clust_8="13000.00000" pt_clust_9="60.83126"></scales>
<clustering>
<clus scale="   60.831">  1  9  2 -1</clus>
<clus scale="   81.717">  5  6 -1 -1</clus>
<clus scale="   85.621">  7  8 -1 -1</clus>
<clus scale="  104.646">  1  5  2 -1</clus>
<clus scale="   60.831">  1  5  2 -1</clus>
</clustering>
</event>
<event>
 9    2  0.3764910E-005  0.8752497E+02  0.7546771E-02  0.1311126E+00
          2   -1    0    0  502    0 -0.00000000000E+00  0.00000000000E+00  0.18289763668E+03  0.18289763668E+03  0.00000000000E+00 0. -1.
         21   -1    0    0  501  502  0.00000000000E+00 -0.00000000000E+00 -0.93738511267E+02  0.93738511267E+02  0.00000000000E+00 0.  1.
         23    2    1    2    0    0  0.15260238124E+02  0.31777213911E+02  0.12474547111E+03  0.15314900055E+03  0.81550705808E+02 0.  0.
         24    2    1    2    0    0 -0.82185790598E+01 -0.11143909574E+02 -0.53285756241E+02  0.95405350016E+02  0.77917117703E+02 0.  0.
        -13    1    4    4    0    0 -0.56846014279E+01 -0.34557042414E+02 -0.61241439652E+02  0.70547982285E+02  0.00000000000E+00 0.  1.
         14    1    4    4    0    0 -0.25339776320E+01  0.23413132840E+02  0.79556834105E+01  0.24857367732E+02  0.00000000000E+00 0. -1.
        -13    1    3    3    0    0  0.48218517263E+02  0.27666048358E+02  0.75903424261E+02  0.94083821422E+02  0.00000000000E+00 0. -1.
         13    1    3    3    0    0 -0.32958279139E+02  0.41111655527E+01  0.48842046845E+02  0.59065179133E+02  0.00000000000E+00 0.  1.
          1    1    1    2  501    0 -0.70416590646E+01 -0.20633304336E+02  0.17699410552E+02  0.28081797380E+02  0.00000000000E+00 0. -1.
<scales pt_clust_5="13000.00000" pt_clust_6="13000.00000" pt_clust_7="13000.00000" pt_clust_8="13000.00000" pt_clust_9="21.80180"></scales>
<clustering>
<clus scale="   21.802">  2  9  1 -1</clus>
<clus scale="   77.917">  5  6 -1 -1</clus>
<clus scale="   81.551">  7  8 -1 -1</clus>
<clus scale="   84.150">  2  5  1 -1</clus>
<clus scale="   21.802">  2  5  1 -1</clus>
</clustering>
</event>
<event>
 9    2  0.3764910E-005  0.9202479E+02  0.7546771E-02  0.1303307E+00
         21   -1    0    0  501  502  0.00000000000E+00  0.00000000000E+00  0.73152283774E+02  0.73152283774E+02  0.00000000000E+00 0. -1.
          4   -1    0    0  502    0 -0.00000000000E+00 -0.00000000000E+00 -0.15225333620E+03  0.15225333620E+03  0.00000000000E+00 0. -1.
         23    2    1    2    0    0 -0.15723009588E+02  0.21310927541E+02 -0.56681727700E+02  0.10976144894E+03  0.90185302328E+02 0.  0.
         24    2    1    2    0    0 -0.12376625850E+02 -0.14159700151E+02 -0.22774518009E+02  0.86646658598E+02  0.81457269779E+02 0.  0.
        -11    1    4    4    0    0  0.19341845367E+02 -0.38629615058E+02 -0.15704008425E+02  0.45967053662E+02  0.00000000000E+00 0.  1.
         12    1    4    4    0    0 -0.31718471218E+02  0.24469914907E+02 -0.70705095836E+01  0.40679604936E+02  0.00000000000E+00 0. -1.
        -13    1    3    3    0    0 -0.51928318486E+02  0.20576146367E+01 -0.23610061290E+02  0.57080811425E+02  0.00000000000E+00 0. -1.
         13    1    3    3    0    0  0.36205308899E+02  0.19253312904E+02 -0.33071666410E+02  0.52680637519E+02  0.00000000000E+00 0.  1.
          3    1    1    2  501    0  0.28099635438E+02 -0.71512273903E+01  0.35519328430E+00  0.28997512431E+02  0.00000000000E+00 0. -1.
<scales pt_clust_5="13000.00000" pt_clust_6="13000.00000" pt_clust_7="13000.00000" pt_clust_8="13000.00000" pt_clust_9="28.99534"></scales>
<clustering>
<clus scale="   28.995">  1  9  2 -1</clus>
<clus scale="   81.457">  5  6 -1 -1</clus>
<clus scale="   83.489">  1  5  2 -1</clus>
<clus scale="   90.185">  7  8 -1 -1</clus>
<clus scale="   28.995">  1  5  2 -1</clus>
</clustering>
</event>
<event>
 9    2  0.3764910E-005  0.1210367E+03  0.7546771E-02  0.1245683E+00
         21   -1    0    0  501  502  0.00000000000E+00  0.00000000000E+00  0.38329947001E+03  0.38329947001E+03  0.00000000000E+00 0.  1.
          4   -1    0    0  502    0 -0.00000000000E+00 -0.00000000000E+00 -0.15048812596E+03  0.15048812596E+03  0.00000000000E+00 0. -1.
         24    2    1    2    0    0 -0.70783347584E+02 -0.58381901408E+02 -0.47423672005E+02  0.12968966782E+03  0.78432624368E+02 0.  0.
         23    2    1    2    0    0  0.63606457602E+02  0.16138858688E+02 -0.73706127794E+01  0.11331797673E+03  0.92089053149E+02 0.  0.
        -13    1    3    3    0    0  0.94189186319E+01 -0.28920177724E+02  0.28593903671E+01  0.30549448784E+02  0.00000000000E+00 0.  1.
         14    1    3    3    0    0 -0.80202266215E+02 -0.29461723684E+02 -0.50283062372E+02  0.99140219034E+02  0.00000000000E+00 0. -1.
        -11    1    4    4    0    0  0.28952101544E+02  0.62937129355E+01  0.42492667771E+02  0.51802141082E+02  0.00000000000E+00 0.  1.
         11    1    4    4    0    0  0.34654356058E+02  0.98451457525E+01 -0.49863280551E+02  0.61515835652E+02  0.00000000000E+00 0. -1.
          3    1    1    2  501    0  0.71768899818E+01  0.42243042720E+02  0.28760562884E+03  0.29077995142E+03  0.00000000000E+00 0. -1.
<scales pt_clust_5="13000.00000" pt_clust_6="13000.00000" pt_clust_7="13000.00000" pt_clust_8="13000.00000" pt_clust_9="42.84837"></scales>
<clustering>
<clus scale="   42.848">  1  9  2 -1</clus>
<clus scale="   78.433">  5  6 -1 -1</clus>
<clus scale="   92.089">  7  8 -1 -1</clus>
<clus scale="  111.001">  2  5  1 -1</clus>
<clus scale="   42.848">  1  5  2 -1</clus>
</clustering>
</event>
<event>
 9    2  0.3764910E-005  0.1306387E+03  0.7546771E-02  0.1229470E+00
         21   -1    0    0  501  502  0.00000000000E+00  0.00000000000E+00  0.39506083099E+02  0.39506083099E+02  0.00000000000E+00 0. -1.
          2   -1    0    0  502    0 -0.00000000000E+00 -0.00000000000E+00 -0.14470072817E+04  0.14470072817E+04  0.00000000000E+00 0. -1.
         24    2    1    2    0    0 -0.10130877912E+03  0.57553417170E+01 -0.12039697668E+04  0.12108878661E+04  0.80060178918E+02 0.  0.
         23    2    1    2    0    0  0.40339433521E+02 -0.48263302619E+02 -0.13144559685E+03  0.17208538353E+03  0.91535883779E+02 0.  0.
        -11    1    3    3    0    0 -0.15096074206E+02 -0.20258696196E+02 -0.96145087047E+02  0.99409174583E+02  0.00000000000E+00 0.  1.
         12    1    3    3    0    0 -0.86212704919E+02  0.26014037913E+02 -0.11078246798E+04  0.11114786916E+04  0.00000000000E+00 0. -1.
        -13    1    4    4    0    0  0.12722265053E+02 -0.72932750322E+02 -0.87582159190E+02  0.11468075996E+03  0.00000000000E+00 0. -1.
         13    1    4    4    0    0  0.27617168467E+02  0.24669447703E+02 -0.43863437658E+02  0.57404623571E+02  0.00000000000E+00 0.  1.
          1    1    1    2  501    0  0.60969345604E+02  0.42507960902E+02 -0.72085834939E+02  0.10354011514E+03  0.00000000000E+00 0. -1.
<scales pt_clust_5="13000.00000" pt_clust_6="13000.00000" pt_clust_7="13000.00000" pt_clust_8="13000.00000" pt_clust_9="74.32488"></scales>
<clustering>
<clus scale="   74.325">  1  9  2 -1</clus>
<clus scale="   80.060">  5  6 -1 -1</clus>
<clus scale="   91.536">  7  8 -1 -1</clus>
<clus scale="  122.871">  2  5  1 -1</clus>
<clus scale="   74.325">  1  5  2 -1</clus>
</clustering>
</event>
<event>
 9    2  0.3764910E-005  0.1000553E+03  0.7546771E-02  0.1287889E+00
         -1   -1    0    0    0  501 -0.00000000000E+00  0.00000000000E+00  0.14974937859E+03  0.14974937859E+03  0.00000000000E+00 0.  1.
         21   -1    0    0  501  502  0.00000000000E+00 -0.00000000000E+00 -0.13469715192E+03  0.13469715192E+03  0.00000000000E+00 0.  1.
         23    2    1    2    0    0 -0.14128474296E+02 -0.38687242793E+02  0.86410219716E+02  0.13429874391E+03  0.94197186818E+02 0.  0.
         24    2    1    2    0    0 -0.25237724937E+02  0.15628994983E+02 -0.56954610497E+02  0.10230598623E+03  0.79633403275E+02 0.  0.
        -11    1    4    4    0    0 -0.51703287903E+02 -0.42462552189E+01 -0.33951187017E+02  0.61999546476E+02  0.00000000000E+00 0.  1.
         12    1    4    4    0    0  0.26465562966E+02  0.19875250202E+02 -0.23003423480E+02  0.40306439753E+02  0.00000000000E+00 0. -1.
        -13    1    3    3    0    0  0.19588795997E+02  0.21257395374E+02  0.79876517481E+01  0.29990004454E+02  0.00000000000E+00 0. -1.
         13    1    3    3    0    0 -0.33717270293E+02 -0.59944638166E+02  0.78422567968E+02  0.10430873946E+03  0.00000000000E+00 0.  1.
         -2    1    1    2    0  502  0.39366199233E+02  0.23058247809E+02 -0.14403382551E+02  0.47841800373E+02  0.00000000000E+00 0.  1.
<scales pt_clust_5="13000.00000" pt_clust_6="13000.00000" pt_clust_7="13000.00000" pt_clust_8="13000.00000" pt_clust_9="45.62215"></scales>
<clustering>
<clus scale="   45.622">  2  9  1 -1</clus>
<clus scale="   79.633">  5  6 -1 -1</clus>
<clus scale="   86.484">  2  5  1 -1</clus>
<clus scale="   94.197">  7  8 -1 -1</clus>
<clus scale="   45.622">  2  5  1 -1</clus>
</clustering>
</event>
<event>
 9    2  0.3764910E-005  0.3053367E+03  0.7546771E-02  0.1105887E+00
         -1   -1    0    0    0  501 -0.00000000000E+00  0.00000000000E+00  0.53846444305E+03  0.53846444305E+03  0.00000000000E+00 0.  1.
         21   -1    0    0  501  502  0.00000000000E+00 -0.00000000000E+00 -0.53336252783E+03  0.53336252783E+03  0.00000000000E+00 0.  1.
         23    2    1    2    0    0 -0.12886290611E+03  0.53385600850E+02  0.33150341210E+03  0.37064684503E+03  0.89604132423E+02 0.  0.
         24    2    1    2    0    0 -0.39406468538E+01  0.25395186342E+03 -0.58893592842E+02  0.27263190296E+03  0.79703334918E+02 0.  0.
        -11    1    4    4    0    0 -0.13351914764E+02  0.20458602423E+03 -0.14426157104E+02  0.20552817069E+03  0.00000000000E+00 0.  1.
         12    1    4    4    0    0  0.94112679101E+01  0.49365839196E+02 -0.44467435738E+02  0.67103732268E+02  0.00000000000E+00 0. -1.
        -11    1    3    3    0    0 -0.92013262314E+02  0.61165362898E+01  0.26755883387E+03  0.28300456187E+03  0.00000000000E+00 0.  1.
         11    1    3    3    0    0 -0.36849643792E+02  0.47269064560E+02  0.63944578227E+02  0.87642283155E+02  0.00000000000E+00 0. -1.
         -2    1    1    2    0  502  0.13280355296E+03 -0.30733746427E+03 -0.26750790404E+03  0.42854822290E+03  0.00000000000E+00 0.  1.
<scales pt_clust_5="13000.00000" pt_clust_6="13000.00000" pt_clust_7="13000.00000" pt_clust_8="13000.00000" pt_clust_9="294.75057"></scales>
<clustering>
<clus scale="   79.703">  5  6 -1 -1</clus>
<clus scale="   89.604">  7  8 -1 -1</clus>
<clus scale="  165.785">  1  7  2 -1</clus>
<clus scale="  294.751">  2  9  1 -1</clus>
<clus scale="  294.751">  2  5  1 -1</clus>
</clustering>
</event>
<event>
 9    2  0.3764910E-005  0.9775038E+02  0.7546771E-02  0.1289397E+00
         21   -1    0    0  501  502  0.00000000000E+00  0.00000000000E+00  0.80723856235E+03  0.80723856235E+03  0.00000000000E+00 0.  1.
          4   -1    0    0  502    0 -0.00000000000E+00 -0.00000000000E+00 -0.17249329317E+02  0.17249329317E+02  0.00000000000E+00 0. -1.
         23    2    1    2    0    0  0.19075840725E+02  0.17615130099E+02  0.23566468690E+03  0.25418477598E+03  0.91639921336E+02 0.  0.
         24    2    1    2    0    0 -0.39606692225E+02 -0.32140143988E+02  0.51035637860E+03  0.51965045882E+03  0.83494234784E+02 0.  0.
        -11    1    4    4    0    0 -0.65700600351E+02 -0.20626609985E+02  0.33702030372E+03  0.34398359125E+03  0.00000000000E+00 0.  1.
         12    1    4    4    0    0  0.26093908126E+02 -0.11513534003E+02  0.17333607488E+03  0.17566686757E+03  0.00000000000E+00 0. -1.
        -13    1    3    3    0    0  0.20765348411E+02 -0.27342409324E+02  0.17676540932E+03  0.18006892284E+03  0.00000000000E+00 0.  1.
         13    1    3    3    0    0 -0.16895076855E+01  0.44957539423E+02  0.58899277581E+02  0.74115853140E+02  0.00000000000E+00 0. -1.
          3    1    1    2  501    0  0.20530851499E+02  0.14525013890E+02  0.43968167537E+02  0.50652656873E+02  0.00000000000E+00 0. -1.
<scales pt_clust_5="13000.00000" pt_clust_6="13000.00000" pt_clust_7="13000.00000" pt_clust_8="13000.00000" pt_clust_9="25.14940"></scales>
<clustering>
<clus scale="   25.149">  1  9  2 -1</clus>
<clus scale="   83.494">  5  6 -1 -1</clus>
<clus scale="   90.158">  1  5  2 -1</clus>
<clus scale="   91.640">  7  8 -1 -1</clus>
<clus scale="   25.149">  1  5  2 -1</clus>
</clustering>
</event>
<event>
 9    2  0.3764910E-005  0.1459680E+03  0.7546771E-02  0.1220615E+00
         21   -1    0    0  501  502  0.00000000000E+00  0.00000000000E+00  0.92441950139E+02  0.92441950139E+02  0.00000000000E+00 0.  1.
         -1   -1    0    0    0  501 -0.00000000000E+00 -0.00000000000E+00 -0.49265313250E+03  0.49265313250E+03  0.00000000000E+00 0.  1.
         24    2    1    2    0    0  0.68434766163E+02  0.49490534701E+01 -0.22961511168E+02  0.10837582455E+03  0.80686293768E+02 0.  0.
         23    2    1    2    0    0  0.34390570157E+02  0.71911326907E+02 -0.30794160609E+03  0.33082828596E+03  0.90914090069E+02 0.  0.
        -13    1    3    3    0    0  0.76238767733E+02 -0.15057187419E+02 -0.33296022338E+02  0.84544034100E+02  0.00000000000E+00 0.  1.
         14    1    3    3    0    0 -0.78040015699E+01  0.20006240889E+02  0.10334511170E+02  0.23831790451E+02  0.00000000000E+00 0. -1.
        -11    1    4    4    0    0  0.26534845390E+02 -0.16793711629E+02 -0.93444233777E+02  0.98579671314E+02  0.00000000000E+00 0. -1.
         11    1    4    4    0    0  0.78557247670E+01  0.88705038537E+02 -0.21449737232E+03  0.23224861464E+03  0.00000000000E+00 0.  1.
         -2    1    1    2    0  502 -0.10282533632E+03 -0.76860380377E+02 -0.69308065098E+02  0.14589097213E+03  0.00000000000E+00 0.  1.
<scales pt_clust_5="13000.00000" pt_clust_6="13000.00000" pt_clust_7="13000.00000" pt_clust_8="13000.00000" pt_clust_9="114.19839"></scales>
<clustering>
<clus scale="   80.686">  5  6 -1 -1</clus>
<clus scale="   90.914">  7  8 -1 -1</clus>
<clus scale="  105.916">  2  5  1 -1</clus>
<clus scale="  114.198">  1  9  2 -1</clus>
<clus scale="  114.198">  1  5  2 -1</clus>
</clustering>
</event>
<event>
 9    2  0.3764910E-005  0.1040932E+03  0.7546771E-02  0.1276765E+00
         21   -1    0    0  501  502  0.00000000000E+00  0.00000000000E+00  0.70727430298E+02  0.70727430298E+02  0.00000000000E+00 0.  1.
          2   -1    0    0  502    0 -0.00000000000E+00 -0.00000000000E+00 -0.47486725025E+03  0.47486725025E+03  0.00000000000E+00 0. -1.
         24    2    1    2    0    0  0.30906441766E+02 -0.29598497183E+02 -0.23327330947E+03  0.25039433576E+03  0.80309447074E+02 0.  0.
         23    2    1    2    0    0 -0.96613190736E+02  0.39693477036E+02 -0.33446440387E+02  0.14254530510E+03  0.91053933952E+02 0.  0.
        -11    1    3    3    0    0  0.15881954822E+01 -0.52898259588E+02 -0.15080280613E+03  0.15981938108E+03  0.00000000000E+00 0.  1.
         12    1    3    3    0    0  0.29318246283E+02  0.23299762405E+02 -0.82470503346E+02  0.90574954681E+02  0.00000000000E+00 0. -1.
        -13    1    4    4    0    0 -0.37188379735E+01  0.20194368863E+02 -0.42495145735E+02  0.47196183116E+02  0.00000000000E+00 0. -1.
         13    1    4    4    0    0 -0.92894352762E+02  0.19499108173E+02  0.90487053480E+01  0.95349121984E+02  0.00000000000E+00 0.  1.
          1    1    1    2  501    0  0.65706748970E+02 -0.10094979853E+02 -0.13742007009E+03  0.15265503969E+03  0.00000000000E+00 0. -1.
<scales pt_clust_5="13000.00000" pt_clust_6="13000.00000" pt_clust_7="13000.00000" pt_clust_8="13000.00000" pt_clust_9="66.47774"></scales>
<clustering>
<clus scale="   66.478">  1  9  2 -1</clus>
<clus scale="   80.309">  5  6 -1 -1</clus>
<clus scale="   91.054">  7  8 -1 -1</clus>
<clus scale="   94.838">  2  5  1 -1</clus>
<clus scale="   66.478">  1  5  2 -1</clus>
</clustering>
</event>
<event>
 9    2  0.3764910E-005  0.1099774E+03  0.7546771E-02  0.1264948E+00
         21   -1    0    0  501  502  0.00000000000E+00  0.00000000000E+00  0.34733637760E+02  0.34733637760E+02  0.00000000000E+00 0. -1.
          2   -1    0    0  502    0 -0.00000000000E+00 -0.00000000000E+00 -0.56708985718E+03  0.56708985718E+03  0.00000000000E+00 0. -1.
         24    2    1    2    0    0 -0.57462090912E+02  0.33644705049E+02 -0.39122118613E+03  0.40503700054E+03  0.81037628685E+02 0.  0.
         23    2    1    2    0    0  0.25437685589E+02 -0.39397851037E+02 -0.11849724370E+03  0.15714900277E+03  0.91950779188E+02 0.  0.
        -13    1    3    3    0    0 -0.36879929602E+02  0.53186537410E+02 -0.16829221060E+03  0.18030863850E+03  0.00000000000E+00 0.  1.
         14    1    3    3    0    0 -0.20582161311E+02 -0.19541832361E+02 -0.22292897552E+03  0.22472836204E+03  0.00000000000E+00 0. -1.
        -11    1    4    4    0    0 -0.20502334544E+02 -0.21532204265E+02 -0.10195136638E+01  0.29749301679E+02  0.00000000000E+00 0. -1.
         11    1    4    4    0    0  0.45940020132E+02 -0.17865646772E+02 -0.11747773003E+03  0.12739970109E+03  0.00000000000E+00 0.  1.
          1    1    1    2  501    0  0.32024405324E+02  0.57531459880E+01 -0.22637789600E+02  0.39637491635E+02  0.00000000000E+00 0. -1.
<scales pt_clust_5="13000.00000" pt_clust_6="13000.00000" pt_clust_7="13000.00000" pt_clust_8="13000.00000" pt_clust_9="32.53707"></scales>
<clustering>
<clus scale="   32.537">  1  9  2 -1</clus>
<clus scale="   81.038">  5  6 -1 -1</clus>
<clus scale="   91.951">  7  8 -1 -1</clus>
<clus scale="  101.031">  2  5  1 -1</clus>
<clus scale="   32.537">  1  5  2 -1</clus>
</clustering>
</event>
<event>
 9    2  0.3764910E-005  0.1000119E+03  0.7546771E-02  0.1290180E+00
         -1   -1    0    0    0  501 -0.00000000000E+00  0.00000000000E+00  0.67274210303E+03  0.67274210303E+03  0.00000000000E+00 0.  1.
         21   -1    0    0  501  502  0.00000000000E+00 -0.00000000000E+00 -0.19402848957E+02  0.19402848957E+02  0.00000000000E+00 0. -1.
         23    2    1    2    0    0  0.53513405033E+01  0.15629729282E+02  0.45631301100E+03  0.46689666280E+03  0.97457705877E+02 0.  0.
         24    2    1    2    0    0 -0.67567728319E+01 -0.35725209487E+02  0.14529867457E+03  0.16973662458E+03  0.79855321184E+02 0.  0.
        -13    1    4    4    0    0 -0.28029967508E+02 -0.28403400389E+02  0.14137508694E+03  0.14689910632E+03  0.00000000000E+00 0.  1.
         14    1    4    4    0    0  0.21273194676E+02 -0.73218090989E+01  0.39235876274E+01  0.22837518256E+02  0.00000000000E+00 0. -1.
        -11    1    3    3    0    0  0.17408312791E+02  0.53272322290E+02  0.32379309319E+03  0.32860760319E+03  0.00000000000E+00 0.  1.
         11    1    3    3    0    0 -0.12056972288E+02 -0.37642593008E+02  0.13251991781E+03  0.13828905961E+03  0.00000000000E+00 0. -1.
         -2    1    1    2    0  502  0.14054323286E+01  0.20095480205E+02  0.51727568503E+02  0.55511664611E+02  0.00000000000E+00 0.  1.
<scales pt_clust_5="13000.00000" pt_clust_6="13000.00000" pt_clust_7="13000.00000" pt_clust_8="13000.00000" pt_clust_9="20.14457"></scales>
<clustering>
<clus scale="   20.145">  2  9  1 -1</clus>
<clus scale="   79.855">  5  6 -1 -1</clus>
<clus scale="   82.953">  2  5  1 -1</clus>
<clus scale="   97.458">  7  8 -1 -1</clus>
<clus scale="   20.145">  2  5  1 -1</clus>
</clustering>
</event>
<event>
 9    2  0.3764910E-005  0.1001509E+03  0.7546771E-02  0.1285041E+00
          2   -1    0    0  502    0 -0.00000000000E+00  0.00000000000E+00  0.57667144254E+03  0.57667144254E+03  0.00000000000E+00 0. -1.
         21   -1    0    0  501  502  0.00000000000E+00 -0.00000000000E+00 -0.40876851654E+02  0.40876851654E+02  0.00000000000E+00 0.  1.
         23    2    1    2    0    0 -0.31225355822E+02 -0.20190815448E+02  0.39698748899E+03  0.40892447835E+03  0.90760512933E+02 0.  0.
         24    2    1    2    0    0  0.36562678971E+02  0.42752899106E+02  0.15271802682E+03  0.18158590783E+03  0.80535745685E+02 0.  0.
        -13    1    4    4    0    0  0.18757158856E+02 -0.97334660599E+01  0.22703036734E+01  0.21253838446E+02  0.00000000000E+00 0.  1.
         14    1    4    4    0    0  0.17805520114E+02  0.52486365166E+02  0.15044772314E+03  0.16033206939E+03  0.00000000000E+00 0. -1.
        -11    1    3    3    0    0  0.24750340066E+02 -0.31102026599E+02  0.19670925056E+03  0.20068493877E+03  0.00000000000E+00 0.  1.
         11    1    3    3    0    0 -0.55975695888E+02  0.10911211150E+02  0.20027823843E+03  0.20823953959E+03  0.00000000000E+00 0. -1.
          1    1    1    2  501    0 -0.53373231483E+01 -0.22562083658E+02 -0.13910924919E+02  0.27037908009E+02  0.00000000000E+00 0. -1.
<scales pt_clust_5="13000.00000" pt_clust_6="13000.00000" pt_clust_7="13000.00000" pt_clust_8="13000.00000" pt_clust_9="23.18479"></scales>
<clustering>
<clus scale="   23.185">  2  9  1 -1</clus>
<clus scale="   80.536">  5  6 -1 -1</clus>
<clus scale="   90.761">  7  8 -1 -1</clus>
<clus scale="   90.988">  2  5  1 -1</clus>
<clus scale="   23.185">  2  5  1 -1</clus>
</clustering>
</event>
<event>
 9    2  0.3764910E-005  0.1356594E+03  0.7546771E-02  0.1221681E+00
          2   -1    0    0  502    0 -0.00000000000E+00  0.00000000000E+00  0.16939707704E+04  0.16939707704E+04  0.00000000000E+00 0. -1.
         21   -1    0    0  501  502  0.00000000000E+00 -0.00000000000E+00 -0.33930896089E+02  0.33930896089E+02  0.00000000000E+00 0. -1.
         24    2    1    2    0    0 -0.95372220955E+02 -0.89742199638E+01  0.11896742723E+04  0.11962766753E+04  0.81096317134E+02 0.  0.
         23    2    1    2    0    0  0.11723491426E+03 -0.13591174685E+02  0.47676094898E+03  0.49956138481E+03  0.91278856091E+02 0.  0.
        -13    1    3    3    0    0 -0.54929000986E+02 -0.42991447748E+01  0.26303845018E+03  0.26874691453E+03  0.00000000000E+00 0.  1.
         14    1    3    3    0    0 -0.40443219969E+02 -0.46750751890E+01  0.92663582208E+03  0.92752976078E+03  0.00000000000E+00 0. -1.
        -11    1    4    4    0    0  0.26648056371E+02 -0.37358637254E+02  0.25076123904E+03  0.25492545124E+03  0.00000000000E+00 0. -1.
         11    1    4    4    0    0  0.90586857893E+02  0.23767462570E+02  0.22599970994E+03  0.24463593357E+03  0.00000000000E+00 0.  1.
          1    1    1    2  501    0 -0.21862693309E+02  0.22565394648E+02 -0.63953468881E+01  0.32063606413E+02  0.00000000000E+00 0. -1.
<scales pt_clust_5="13000.00000" pt_clust_6="13000.00000" pt_clust_7="13000.00000" pt_clust_8="13000.00000" pt_clust_9="31.41933"></scales>
<clustering>
<clus scale="   31.419">  2  9  1 -1</clus>
<clus scale="   81.096">  5  6 -1 -1</clus>
<clus scale="   91.279">  7  8 -1 -1</clus>
<clus scale="  129.028">  1  5  2 -1</clus>
<clus scale="   31.419">  2  5  1 -1</clus>
</clustering>
</event>
<event>
 9    2  0.3764910E-005  0.1396144E+03  0.7546771E-02  0.1217240E+00
          2   -1    0    0  502    0 -0.00000000000E+00  0.00000000000E+00  0.86020200830E+03  0.86020200830E+03  0.00000000000E+00 0. -1.
         21   -1    0    0  501  502  0.00000000000E+00 -0.00000000000E+00 -0.32016764976E+02  0.32016764976E+02  0.00000000000E+00 0. -1.
         24    2    1    2    0    0 -0.10221720069E+03 -0.47913928123E+02  0.58778517887E+03  0.60344091329E+03  0.76846722157E+02 0.  0.
         23    2    1    2    0    0  0.72499302061E+02  0.39944106891E+02  0.15796451319E+03  0.20078756699E+03  0.92256052144E+02 0.  0.
        -13    1    3    3    0    0 -0.28437548625E+02 -0.31655172856E+02  0.85480779343E+02  0.95486689006E+02  0.00000000000E+00 0.  1.
         14    1    3    3    0    0 -0.73779652062E+02 -0.16258755267E+02  0.50230439953E+03  0.50795422428E+03  0.00000000000E+00 0. -1.
        -11    1    4    4    0    0  0.93544219597E+02  0.25597071707E+02  0.13669505190E+03  0.16760449968E+03  0.00000000000E+00 0.  1.
         11    1    4    4    0    0 -0.21044917535E+02  0.14347035185E+02  0.21269461295E+02  0.33183067315E+02  0.00000000000E+00 0. -1.
          1    1    1    2  501    0  0.29717898625E+02  0.79698212318E+01  0.82435551267E+02  0.87990292998E+02  0.00000000000E+00 0. -1.
<scales pt_clust_5="13000.00000" pt_clust_6="13000.00000" pt_clust_7="13000.00000" pt_clust_8="13000.00000" pt_clust_9="30.76804"></scales>
<clustering>
<clus scale="   30.768">  2  9  1 -1</clus>
<clus scale="   76.847">  5  6 -1 -1</clus>
<clus scale="   92.256">  7  8 -1 -1</clus>
<clus scale="  129.948">  1  5  2 -1</clus>
<clus scale="   30.768">  2  5  1 -1</clus>
</clustering>
</event>
<event>
 9    2  0.3764910E-005  0.1154869E+03  0.7546771E-02  0.1266472E+00
         21   -1    0    0  501  502  0.00000000000E+00  0.00000000000E+00  0.55962926465E+02  0.55962926465E+02  0.00000000000E+00 0.  1.
         -1   -1    0    0    0  501 -0.00000000000E+00 -0.00000000000E+00 -0.23100271180E+03  0.23100271180E+03  0.00000000000E+00 0.  1.
         24    2    1    2    0    0 -0.17441964569E+02  0.61077533998E+01 -0.62493582949E+02  0.10334009933E+03  0.80201006485E+02 0.  0.
         23    2    1    2    0    0  0.32542027793E+02 -0.25504894911E+02 -0.85150520400E+02  0.14681814294E+03  0.11222955375E+03 0.  0.
        -11    1    3    3    0    0 -0.21157727415E+02  0.41553132719E+02 -0.36879053073E+02  0.59450625091E+02  0.00000000000E+00 0.  1.
         12    1    3    3    0    0  0.37157628469E+01 -0.35445379319E+02 -0.25614529876E+02  0.43889474244E+02  0.00000000000E+00 0. -1.
        -11    1    4    4    0    0  0.65417365282E+02 -0.31741803918E+02 -0.23052415475E+02  0.76278356404E+02  0.00000000000E+00 0.  1.
         11    1    4    4    0    0 -0.32875337489E+02  0.62369090069E+01 -0.62098104925E+02  0.70539786534E+02  0.00000000000E+00 0. -1.
         -2    1    1    2    0  502 -0.15100063224E+02  0.19397141511E+02 -0.27395681984E+02  0.36807395990E+02  0.00000000000E+00 0.  1.
<scales pt_clust_5="13000.00000" pt_clust_6="13000.00000" pt_clust_7="13000.00000" pt_clust_8="13000.00000" pt_clust_9="24.58173"></scales>
<clustering>
<clus scale="   24.582">  1  9  2 -1</clus>
<clus scale="   80.201">  5  6 -1 -1</clus>
<clus scale="   84.699">  2  5  1 -1</clus>
<clus scale="  112.230">  7  8 -1 -1</clus>
<clus scale="   24.582">  1  5  2 -1</clus>
</clustering>
</event>
<event>
 9    2  0.3764910E-005  0.1032527E+03  0.7546771E-02  0.1278323E+00
         21   -1    0    0  501  502  0.00000000000E+00  0.00000000000E+00  0.57640984832E+03  0.57640984832E+03  0.00000000000E+00 0.  1.
         -1   -1    0    0    0  501 -0.00000000000E+00 -0.00000000000E+00 -0.41662422462E+02  0.41662422462E+02  0.00000000000E+00 0.  1.
         23    2    1    2    0    0  0.34861960771E+02  0.33858846420E+02  0.10930666293E+03  0.15027532962E+03  0.90955760353E+02 0.  0.
         24    2    1    2    0    0  0.25323829155E+02 -0.75084168371E+02  0.32152163660E+03  0.34082827851E+03  0.80677282845E+02 0.  0.
        -11    1    4    4    0    0  0.17138058949E+02 -0.75519385297E+02  0.32329586877E+03  0.33244113672E+03  0.00000000000E+00 0.  1.
         12    1    4    4    0    0  0.81857702054E+01  0.43521692549E+00 -0.17742321691E+01  0.83871417907E+01  0.00000000000E+00 0. -1.
        -13    1    3    3    0    0 -0.20425303891E+02  0.39142944510E+02  0.29708216686E+02  0.53215987096E+02  0.00000000000E+00 0.  1.
         13    1    3    3    0    0  0.55287264662E+02 -0.52840980905E+01  0.79598446244E+02  0.97059342522E+02  0.00000000000E+00 0. -1.
         -2    1    1    2    0  502 -0.60185789925E+02  0.41225321951E+02  0.10391912633E+03  0.12696866265E+03  0.00000000000E+00 0.  1.
<scales pt_clust_5="13000.00000" pt_clust_6="13000.00000" pt_clust_7="13000.00000" pt_clust_8="13000.00000" pt_clust_9="72.95109"></scales>
<clustering>
<clus scale="   72.951">  1  9  2 -1</clus>
<clus scale="   80.677">  5  6 -1 -1</clus>
<clus scale="   90.956">  7  8 -1 -1</clus>
<clus scale="   94.324">  1  5  2 -1</clus>
<clus scale="   72.951">  1  5  2 -1</clus>
</clustering>
</event>
<event>
 9    2  0.3764910E-005  0.1010913E+03  0.7546771E-02  0.1287960E+00
          4   -1    0    0  502    0 -0.00000000000E+00  0.00000000000E+00  0.19470741229E+03  0.19470741229E+03  0.00000000000E+00 0. -1.
         21   -1    0    0  501  502  0.00000000000E+00 -0.00000000000E+00 -0.79615921186E+02  0.79615921186E+02  0.00000000000E+00 0.  1.
         24    2    1    2    0    0 -0.41856465107E+02 -0.74769846481E+01  0.10030605422E+03  0.13125145753E+03  0.73196800619E+02 0.  0.
         23    2    1    2    0    0  0.37241670927E+02 -0.28561342268E+02  0.21890902618E+02  0.10605100378E+03  0.92546806864E+02 0.  0.
        -13    1    3    3    0    0 -0.45356472637E+02  0.24573933027E+02  0.52615715976E+02  0.73685150215E+02  0.00000000000E+00 0.  1.
         14    1    3    3    0    0  0.35000075298E+01 -0.32050917675E+02  0.47690338245E+02  0.57566307320E+02  0.00000000000E+00 0. -1.
        -13    1    4    4    0    0  0.11535194293E+02  0.32668626288E+02 -0.37878038519E+01  0.34851790613E+02  0.00000000000E+00 0.  1.
         13    1    4    4    0    0  0.25706476635E+02 -0.61229968556E+02  0.25678706470E+02  0.71199213172E+02  0.00000000000E+00 0. -1.
          3    1    1    2  501    0  0.46147941798E+01  0.36038326916E+02 -0.71054657327E+01  0.37020872160E+02  0.00000000000E+00 0. -1.
<scales pt_clust_5="13000.00000" pt_clust_6="13000.00000" pt_clust_7="13000.00000" pt_clust_8="13000.00000" pt_clust_9="36.33259"></scales>
<clustering>
<clus scale="   36.333">  2  9  1 -1</clus>
<clus scale="   73.197">  5  6 -1 -1</clus>
<clus scale="   83.740">  1  5  2 -1</clus>
<clus scale="   92.547">  7  8 -1 -1</clus>
<clus scale="   36.333">  2  5  1 -1</clus>
</clustering>
</event>
<event>
 9    2  0.3764910E-005  0.9277710E+02  0.7546771E-02  0.1308219E+00
         21   -1    0    0  501  502  0.00000000000E+00  0.00000000000E+00  0.10131013387E+03  0.10131013387E+03  0.00000000000E+00 0. -1.
         -3   -1    0    0    0  501 -0.00000000000E+00 -0.00000000000E+00 -0.42134958580E+03  0.42134958580E+03  0.00000000000E+00 0.  1.
         23    2    1    2    0    0 -0.21411571461E+02  0.69653928495E+01 -0.37934224366E+03  0.39068448518E+03  0.90702023358E+02 0.  0.
         24    2    1    2    0    0 -0.19301748513E+02 -0.16940269774E+01  0.50589818882E+02  0.90007656326E+02  0.71879212571E+02 0.  0.
        -11    1    4    4    0    0 -0.35755751865E+02  0.23762218289E+02  0.37453203861E+02  0.56972443241E+02  0.00000000000E+00 0.  1.
         12    1    4    4    0    0  0.16454003352E+02 -0.25456245266E+02  0.13136615021E+02  0.33035213085E+02  0.00000000000E+00 0. -1.
        -13    1    3    3    0    0 -0.55927793029E+02  0.14284107482E+02 -0.21644375972E+03  0.22400860448E+03  0.00000000000E+00 0. -1.
         13    1    3    3    0    0  0.34516221567E+02 -0.73187146328E+01 -0.16289848395E+03  0.16667588070E+03  0.00000000000E+00 0.  1.
         -4    1    1    2    0  502  0.40713319974E+02 -0.52713658722E+01  0.87129728423E+01  0.41967578167E+02  0.00000000000E+00 0.  1.
<scales pt_clust_5="13000.00000" pt_clust_6="13000.00000" pt_clust_7="13000.00000" pt_clust_8="13000.00000" pt_clust_9="41.05316"></scales>
<clustering>
<clus scale="   41.053">  1  9  2 -1</clus>
<clus scale="   71.879">  5  6 -1 -1</clus>
<clus scale="   74.481">  1  5  2 -1</clus>
<clus scale="   90.702">  7  8 -1 -1</clus>
<clus scale="   41.053">  1  5  2 -1</clus>
</clustering>
</event>
<event>
 9    2  0.3764910E-005  0.1013924E+03  0.7546771E-02  0.1282425E+00
         21   -1    0    0  501  502  0.00000000000E+00  0.00000000000E+00  0.16737448515E+03  0.16737448515E+03  0.00000000000E+00 0.  1.
         -3   -1    0    0    0  501 -0.00000000000E+00 -0.00000000000E+00 -0.19760072432E+03  0.19760072432E+03  0.00000000000E+00 0.  1.
         23    2    1    2    0    0  0.22930415426E+02  0.33116682623E+02 -0.14010127905E+03  0.17229896089E+03  0.91847944515E+02 0.  0.
         24    2    1    2    0    0 -0.45799816938E+02 -0.31664199509E+02  0.21040494957E+02  0.10093369791E+03  0.81514809600E+02 0.  0.
        -11    1    4    4    0    0 -0.25826071394E+02  0.15166105034E+02 -0.19597380764E+02  0.35791815242E+02  0.00000000000E+00 0.  1.
         12    1    4    4    0    0 -0.19973745545E+02 -0.46830304543E+02  0.40637875721E+02  0.65141882670E+02  0.00000000000E+00 0. -1.
        -11    1    3    3    0    0 -0.18293429390E+01 -0.22632904416E+02 -0.38701696494E+01  0.23034171811E+02  0.00000000000E+00 0. -1.
         11    1    3    3    0    0  0.24759758365E+02  0.55749587039E+02 -0.13623110940E+03  0.14926478908E+03  0.00000000000E+00 0.  1.
         -4    1    1    2    0  502  0.22869401512E+02 -0.14524831134E+01  0.88834544919E+02  0.91742550671E+02  0.00000000000E+00 0.  1.
<scales pt_clust_5="13000.00000" pt_clust_6="13000.00000" pt_clust_7="13000.00000" pt_clust_8="13000.00000" pt_clust_9="22.91548"></scales>
<clustering>
<clus scale="   22.915">  1  9  2 -1</clus>
<clus scale="   81.515">  5  6 -1 -1</clus>
<clus scale="   91.848">  7  8 -1 -1</clus>
<clus scale="   92.136">  1  5  2 -1</clus>
<clus scale="   22.915">  1  5  2 -1</clus>
</clustering>
</event>
<event>
 9    2  0.3764910E-005  0.1278290E+03  0.7546771E-02  0.1234254E+00
          2   -1    0    0  502    0 -0.00000000000E+00  0.00000000000E+00  0.52169564738E+03  0.52169564738E+03  0.00000000000E+00 0. -1.
         21   -1    0    0  501  502  0.00000000000E+00 -0.00000000000E+00 -0.49196389489E+02  0.49196389489E+02  0.00000000000E+00 0.  1.
         24    2    1    2    0    0 -0.82970418249E+02  0.50391881498E+02  0.31136656698E+03  0.33583885967E+03  0.80094747657E+02 0.  0.
         23    2    1    2    0    0  0.52571261808E+02 -0.53161965640E+02  0.16574315178E+03  0.20418185672E+03  0.92895134935E+02 0.  0.
        -13    1    3    3    0    0 -0.22705163972E+02 -0.21175994330E+02  0.58689812781E+02  0.66396094246E+02  0.00000000000E+00 0.  1.
         14    1    3    3    0    0 -0.60265254277E+02  0.71567875828E+02  0.25267675420E+03  0.26944276542E+03  0.00000000000E+00 0. -1.
        -11    1    4    4    0    0  0.24868919831E+02 -0.49753392993E+02  0.25501663926E+02  0.61189853333E+02  0.00000000000E+00 0.  1.
         11    1    4    4    0    0  0.27702341977E+02 -0.34085726468E+01  0.14024148785E+03  0.14299200339E+03  0.00000000000E+00 0. -1.
          1    1    1    2  501    0  0.30399156441E+02  0.27700841419E+01 -0.46104608728E+01  0.30871320476E+02  0.00000000000E+00 0. -1.
<scales pt_clust_5="13000.00000" pt_clust_6="13000.00000" pt_clust_7="13000.00000" pt_clust_8="13000.00000" pt_clust_9="30.52511"></scales>
<clustering>
<clus scale="   30.525">  2  9  1 -1</clus>
<clus scale="   80.095">  5  6 -1 -1</clus>
<clus scale="   92.895">  7  8 -1 -1</clus>
<clus scale="  118.852">  1  5  2 -1</clus>
<clus scale="   30.525">  2  5  1 -1</clus>
</clustering>
</event>
<event>
 9    2  0.3764910E-005  0.9551503E+02  0.7546771E-02  0.1296868E+00
          2   -1    0    0  502    0 -0.00000000000E+00  0.00000000000E+00  0.36876981374E+03  0.36876981374E+03  0.00000000000E+00 0. -1.
         21   -1    0    0  501  502  0.00000000000E+00 -0.00000000000E+00 -0.10287657625E+03  0.10287657625E+03  0.00000000000E+00 0.  1.
         23    2    1    2    0    0  0.12456625742E+02 -0.51117559034E+02  0.26355787968E+02  0.10949314216E+03  0.92336061499E+02 0.  0.
         24    2    1    2    0    0 -0.24744703739E+02 -0.28711471011E+02 -0.19306043983E+02  0.91000845982E+02  0.80447384696E+02 0.  0.
        -11    1    4    4    0    0  0.22262287341E+02  0.89010855967E+01 -0.19331023914E+02  0.30798169556E+02  0.00000000000E+00 0.  1.
         12    1    4    4    0    0 -0.47006991079E+02 -0.37612556608E+02  0.24979930988E-01  0.60202676426E+02  0.00000000000E+00 0. -1.
        -13    1    3    3    0    0 -0.21421069734E+02 -0.65846611341E+02  0.19318801190E+02  0.71887791266E+02  0.00000000000E+00 0.  1.
         13    1    3    3    0    0  0.33877695476E+02  0.14729052307E+02  0.70369867777E+01  0.37605350890E+02  0.00000000000E+00 0. -1.
          1    1    1    2  501    0  0.12288077996E+02  0.79829030045E+02  0.25884349351E+03  0.27115240185E+03  0.00000000000E+00 0. -1.
<scales pt_clust_5="13000.00000" pt_clust_6="13000.00000" pt_clust_7="13000.00000" pt_clust_8="13000.00000" pt_clust_9="80.76929"></scales>
<clustering>
<clus scale="   80.447">  5  6 -1 -1</clus>
<clus scale="   80.769">  2  9  1 -1</clus>
<clus scale="   84.077">  2  5  1 -1</clus>
<clus scale="   92.336">  7  8 -1 -1</clus>
<clus scale="   80.769">  2  5  1 -1</clus>
</clustering>
</event>
<event>
 9    2  0.3764910E-005  0.8758691E+02  0.7546771E-02  0.1311717E+00
         -3   -1    0    0    0  501 -0.00000000000E+00  0.00000000000E+00  0.71444325891E+02  0.71444325891E+02  0.00000000000E+00 0.  1.
         21   -1    0    0  501  502  0.00000000000E+00 -0.00000000000E+00 -0.32257385760E+03  0.32257385760E+03  0.00000000000E+00 0. -1.
         23    2    1    2    0    0 -0.89816853918E+01 -0.16594442272E+02  0.18009765488E+02  0.88526833796E+02  0.84596704795E+02 0.  0.
         24    2    1    2    0    0  0.44660577662E+02  0.29943753907E+02 -0.23636668957E+03  0.25523967026E+03  0.79917968839E+02 0.  0.
        -13    1    4    4    0    0 -0.62662612241E+01  0.39000225875E+02 -0.63346108315E+02  0.74652616074E+02  0.00000000000E+00 0.  1.
         14    1    4    4    0    0  0.50926838886E+02 -0.90564719679E+01 -0.17302058125E+03  0.18058705419E+03  0.00000000000E+00 0. -1.
        -13    1    3    3    0    0 -0.41751470751E+02 -0.10011018048E+02  0.30692239423E+02  0.52777072229E+02  0.00000000000E+00 0. -1.
         13    1    3    3    0    0  0.32769785359E+02 -0.65834242238E+01 -0.12682473935E+02  0.35749761567E+02  0.00000000000E+00 0.  1.
         -4    1    1    2    0  502 -0.35678892270E+02 -0.13349311636E+02 -0.32772607628E+02  0.50251679430E+02  0.00000000000E+00 0.  1.
<scales pt_clust_5="13000.00000" pt_clust_6="13000.00000" pt_clust_7="13000.00000" pt_clust_8="13000.00000" pt_clust_9="38.09445"></scales>
<clustering>
<clus scale="   38.094">  2  9  1 -1</clus>
<clus scale="   79.918">  5  6 -1 -1</clus>
<clus scale="   83.077">  2  5  1 -1</clus>
<clus scale="   84.597">  7  8 -1 -1</clus>
<clus scale="   38.094">  2  5  1 -1</clus>
</clustering>
</event>
<event>
 9    2  0.3764910E-005  0.1345474E+03  0.7546771E-02  0.1223846E+00
          2   -1    0    0  502    0 -0.00000000000E+00  0.00000000000E+00  0.15855245587E+03  0.15855245587E+03  0.00000000000E+00 0. -1.
         21   -1    0    0  501  502  0.00000000000E+00 -0.00000000000E+00 -0.93928191826E+03  0.93928191826E+03  0.00000000000E+00 0.  1.
         24    2    1    2    0    0 -0.83643944519E+02 -0.49574968727E+02  0.12184371690E+03  0.17505315794E+03  0.79647534649E+02 0.  0.
         23    2    1    2    0    0  0.10241643666E+03  0.75002950932E+02 -0.80782346212E+03  0.82289879710E+03  0.92027795686E+02 0.  0.
        -11    1    3    3    0    0 -0.34854276082E+02 -0.84217832687E+01 -0.18043258961E+01  0.35902682164E+02  0.00000000000E+00 0.  1.
         12    1    3    3    0    0 -0.48789668437E+02 -0.41153185458E+02  0.12364804280E+03  0.13915047577E+03  0.00000000000E+00 0. -1.
        -11    1    4    4    0    0  0.65821902162E+02 -0.67593223905E+01 -0.39091675784E+03  0.39647714032E+03  0.00000000000E+00 0. -1.
         11    1    4    4    0    0  0.36594534498E+02  0.81762273322E+02 -0.41690670428E+03  0.42642165678E+03  0.00000000000E+00 0.  1.
          1    1    1    2  501    0 -0.18772492141E+02 -0.25427982205E+02 -0.94749717173E+02  0.99882419097E+02  0.00000000000E+00 0. -1.
<scales pt_clust_5="13000.00000" pt_clust_6="13000.00000" pt_clust_7="13000.00000" pt_clust_8="13000.00000" pt_clust_9="31.60678"></scales>
<clustering>
<clus scale="   31.607">  2  9  1 -1</clus>
<clus scale="   79.648">  5  6 -1 -1</clus>
<clus scale="   92.028">  7  8 -1 -1</clus>
<clus scale="  126.403">  1  5  2 -1</clus>
<clus scale="   31.607">  2  5  1 -1</clus>
</clustering>
</event>
<event>
 9    2  0.3764910E-005  0.1406977E+03  0.7546771E-02  0.1214418E+00
         21   -1    0    0  501  502  0.00000000000E+00  0.00000000000E+00  0.62110623790E+02  0.62110623790E+02  0.00000000000E+00 0.  1.
          2   -1    0    0  502    0 -0.00000000000E+00 -0.00000000000E+00 -0.81842059155E+03  0.81842059155E+03  0.00000000000E+00 0. -1.
         24    2    1    2    0    0 -0.95117518798E+02  0.44116428885E+02 -0.63851822665E+03  0.65206212408E+03  0.80534999902E+02 0.  0.
         23    2    1    2    0    0  0.10920984913E+03 -0.61600003651E+02 -0.13094282067E+03  0.20244563925E+03  0.90093634471E+02 0.  0.
        -13    1    3    3    0    0 -0.30046669723E+02  0.55481583857E+01 -0.49245472682E+02  0.57954300985E+02  0.00000000000E+00 0.  1.
         14    1    3    3    0    0 -0.65070849075E+02  0.38568270499E+02 -0.58927275397E+03  0.59410782310E+03  0.00000000000E+00 0. -1.
        -13    1    4    4    0    0  0.15380194541E+02 -0.58046947852E+02 -0.43630542382E+02  0.74226833205E+02  0.00000000000E+00 0.  1.
         13    1    4    4    0    0  0.93829654585E+02 -0.35530557995E+01 -0.87312278283E+02  0.12821880605E+03  0.00000000000E+00 0. -1.
          1    1    1    2  501    0 -0.14092330328E+02  0.17483574767E+02  0.13151079562E+02  0.26023452007E+02  0.00000000000E+00 0. -1.
<scales pt_clust_5="13000.00000" pt_clust_6="13000.00000" pt_clust_7="13000.00000" pt_clust_8="13000.00000" pt_clust_9="22.45594"></scales>
<clustering>
<clus scale="   22.456">  1  9  2 -1</clus>
<clus scale="   80.535">  5  6 -1 -1</clus>
<clus scale="   90.094">  7  8 -1 -1</clus>
<clus scale="  134.777">  2  5  1 -1</clus>
<clus scale="   22.456">  1  5  2 -1</clus>
</clustering>
</event>
<event>
 9    2  0.3764910E-005  0.1084326E+03  0.7546771E-02  0.1266667E+00
         21   -1    0    0  501  502  0.00000000000E+00  0.00000000000E+00  0.71886840053E+02  0.71886840053E+02  0.00000000000E+00 0.  1.
          2   -1    0    0  502    0 -0.00000000000E+00 -0.00000000000E+00 -0.36809329323E+03  0.36809329323E+03  0.00000000000E+00 0. -1.
         23    2    1    2    0    0 -0.66906550470E+02 -0.31976424961E+02 -0.24734994689E+03  0.27329022086E+03  0.89479440887E+02 0.  0.
         24    2    1    2    0    0  0.71326771083E+01  0.21129221698E+02  0.61820912744E+01  0.84715373838E+02  0.81493295551E+02 0.  0.
        -13    1    4    4    0    0  0.28667552672E+02  0.16937287480E+01  0.34013211133E+02  0.44515119059E+02  0.00000000000E+00 0.  1.
         14    1    4    4    0    0 -0.21534875564E+02  0.19435492950E+02 -0.27831119858E+02  0.40200254779E+02  0.00000000000E+00 0. -1.
        -11    1    3    3    0    0 -0.34482062233E+02 -0.57668423092E+02 -0.10179781858E+03  0.12197317535E+03  0.00000000000E+00 0.  1.
         11    1    3    3    0    0 -0.32424488236E+02  0.25691998131E+02 -0.14555212831E+03  0.15131704551E+03  0.00000000000E+00 0. -1.
          1    1    1    2  501    0  0.59773873361E+02  0.10847203263E+02 -0.55038597565E+02  0.81974538591E+02  0.00000000000E+00 0. -1.
<scales pt_clust_5="13000.00000" pt_clust_6="13000.00000" pt_clust_7="13000.00000" pt_clust_8="13000.00000" pt_clust_9="60.75013"></scales>
<clustering>
<clus scale="   60.750">  1  9  2 -1</clus>
<clus scale="   81.493">  5  6 -1 -1</clus>
<clus scale="   89.479">  7  8 -1 -1</clus>
<clus scale="  101.942">  1  5  2 -1</clus>
<clus scale="   60.750">  1  5  2 -1</clus>
</clustering>
</event>
<event>
 9    2  0.3764910E-005  0.5951265E+03  0.7546771E-02  0.1046312E+00
          2   -1    0    0  502    0 -0.00000000000E+00  0.00000000000E+00  0.15102274642E+04  0.15102274642E+04  0.00000000000E+00 0. -1.
         21   -1    0    0  501  502  0.00000000000E+00 -0.00000000000E+00 -0.30276828668E+03  0.30276828668E+03  0.00000000000E+00 0.  1.
         23    2    1    2    0    0  0.57585248024E+02 -0.37174403002E+02  0.27639523458E+03  0.29856827782E+03  0.89725658512E+02 0.  0.
         24    2    1    2    0    0  0.54923469412E+03 -0.73758141179E+02  0.57118192127E+03  0.80024854513E+03  0.83963886178E+02 0.  0.
        -13    1    4    4    0    0  0.27435234107E+03 -0.48177710891E+02  0.22908738358E+03  0.36065402839E+03  0.00000000000E+00 0.  1.
         14    1    4    4    0    0  0.27488235304E+03 -0.25580430287E+02  0.34209453769E+03  0.43959451674E+03  0.00000000000E+00 0. -1.
        -13    1    3    3    0    0  0.58571844638E+01 -0.55358210411E+02  0.10850941726E+03  0.12195544966E+03  0.00000000000E+00 0.  1.
         13    1    3    3    0    0  0.51728063560E+02  0.18183807409E+02  0.16788581732E+03  0.17661282816E+03  0.00000000000E+00 0. -1.
          1    1    1    2  501    0 -0.60681994214E+03  0.11093254418E+03  0.35988202162E+03  0.71417892788E+03  0.00000000000E+00 0. -1.
<scales pt_clust_5="13000.00000" pt_clust_6="13000.00000" pt_clust_7="13000.00000" pt_clust_8="13000.00000" pt_clust_9="589.17364"></scales>
<clustering>
<clus scale="   83.964">  5  6 -1 -1</clus>
<clus scale="   89.726">  7  8 -1 -1</clus>
<clus scale="  112.910">  1  7  2 -1</clus>
<clus scale="  589.174">  2  9  1 -1</clus>
<clus scale="  589.174">  2  5  1 -1</clus>
</clustering>
</event>
<event>
 9    2  0.3764910E-005  0.1417743E+03  0.7546771E-02  0.1226550E+00
         -3   -1    0    0    0  501 -0.00000000000E+00  0.00000000000E+00  0.13691694094E+03  0.13691694094E+03  0.00000000000E+00 0.  1.
         21   -1    0    0  501  502  0.00000000000E+00 -0.00000000000E+00 -0.70654143583E+03  0.70654143583E+03  0.00000000000E+00 0.  1.
         24    2    1    2    0    0  0.60564568419E+02 -0.20585053290E+02 -0.18376974091E+03  0.21024129805E+03  0.79613280096E+02 0.  0.
         23    2    1    2    0    0 -0.60152826225E+02  0.12601749715E+03  0.57373140483E+02  0.17762171418E+03  0.93589657584E+02 0.  0.
        -11    1    3    3    0    0  0.71768052053E+02 -0.24589434351E+02 -0.18324960378E+03  0.19833232430E+03  0.00000000000E+00 0.  1.
         12    1    3    3    0    0 -0.11203483633E+02  0.40043810610E+01 -0.52013712638E+00  0.11908973752E+02  0.00000000000E+00 0. -1.
        -13    1    4    4    0    0 -0.84130812381E+02  0.79442054886E+02  0.40081324641E+02  0.12245630348E+03  0.00000000000E+00 0.  1.
         13    1    4    4    0    0  0.23977986156E+02  0.46575442267E+02  0.17291815842E+02  0.55165410699E+02  0.00000000000E+00 0. -1.
         -4    1    1    2    0  502 -0.41174219467E+00 -0.10543244386E+03 -0.44322789447E+03  0.45559536454E+03  0.00000000000E+00 0.  1.
<scales pt_clust_5="13000.00000" pt_clust_6="13000.00000" pt_clust_7="13000.00000" pt_clust_8="13000.00000" pt_clust_9="106.49379"></scales>
<clustering>
<clus scale="   79.613">  5  6 -1 -1</clus>
<clus scale="   93.590">  7  8 -1 -1</clus>
<clus scale="  102.128">  1  5  2 -1</clus>
<clus scale="  106.494">  2  9  1 -1</clus>
<clus scale="  106.494">  2  5  1 -1</clus>
</clustering>
</event>
<event>
 9    2  0.3764910E-005  0.1526832E+03  0.7546771E-02  0.1197708E+00
          2   -1    0    0  502    0 -0.00000000000E+00  0.00000000000E+00  0.54887644172E+03  0.54887644172E+03  0.00000000000E+00 0. -1.
         21   -1    0    0  501  502  0.00000000000E+00 -0.00000000000E+00 -0.36440495834E+03  0.36440495834E+03  0.00000000000E+00 0. -1.
         24    2    1    2    0    0 -0.25971577922E+02 -0.12898379210E+03  0.44296637243E+03  0.47159507257E+03  0.94187917943E+02 0.  0.
         23    2    1    2    0    0 -0.24568201525E+02  0.79169747317E+02  0.41024371711E+02  0.13387551557E+03  0.96789509656E+02 0.  0.
        -11    1    3    3    0    0 -0.20891733309E+02 -0.19270954095E+02  0.20391798427E+02  0.34980846695E+02  0.00000000000E+00 0.  1.
         12    1    3    3    0    0 -0.50798446126E+01 -0.10971283800E+03  0.42257457400E+03  0.43661422588E+03  0.00000000000E+00 0. -1.
        -13    1    4    4    0    0  0.23447449187E+02  0.68013326308E+01  0.40188375333E+02  0.47022829677E+02  0.00000000000E+00 0. -1.
         13    1    4    4    0    0 -0.48015650712E+02  0.72368414687E+02  0.83599637806E+00  0.86852685897E+02  0.00000000000E+00 0.  1.
          1    1    1    2  501    0  0.50539779447E+02  0.49814044779E+02 -0.29951926076E+03  0.30781081191E+03  0.00000000000E+00 0. -1.
<scales pt_clust_5="13000.00000" pt_clust_6="13000.00000" pt_clust_7="13000.00000" pt_clust_8="13000.00000" pt_clust_9="70.96273"></scales>
<clustering>
<clus scale="   70.963">  2  9  1 -1</clus>
<clus scale="   94.188">  5  6 -1 -1</clus>
<clus scale="   96.790">  7  8 -1 -1</clus>
<clus scale="  151.047">  1  5  2 -1</clus>
<clus scale="   70.963">  2  5  1 -1</clus>
</clustering>
</event>
<event>
 9    2  0.3764910E-005  0.1077643E+03  0.7546771E-02  0.1267031E+00
          2   -1    0    0  502    0 -0.00000000000E+00  0.00000000000E+00  0.25090552071E+03  0.25090552071E+03  0.00000000000E+00 0. -1.
         21   -1    0    0  501  502  0.00000000000E+00 -0.00000000000E+00 -0.25069995242E+03  0.25069995242E+03  0.00000000000E+00 0. -1.
         23    2    1    2    0    0  0.16016459532E+02 -0.47119180526E+02  0.89366811484E+02  0.13855454593E+03  0.93456894090E+02 0.  0.
         24    2    1    2    0    0 -0.11883248196E+03  0.39236019027E+02 -0.17508892601E+03  0.22882408421E+03  0.77741273121E+02 0.  0.
        -13    1    4    4    0    0 -0.35570702682E+02 -0.18884251244E+01 -0.62972100168E+01  0.36173137723E+02  0.00000000000E+00 0.  1.
         14    1    4    4    0    0 -0.83261779279E+02  0.41124444151E+02 -0.16879171599E+03  0.19265094649E+03  0.00000000000E+00 0. -1.
        -13    1    3    3    0    0 -0.33733255733E+02 -0.44742144508E+02  0.45376975818E+02  0.72103134272E+02  0.00000000000E+00 0.  1.
         13    1    3    3    0    0  0.49749715264E+02 -0.23770360189E+01  0.43989835665E+02  0.66451411655E+02  0.00000000000E+00 0. -1.
          1    1    1    2  501    0  0.10281602243E+03  0.78831614998E+01  0.85927682822E+02  0.13422684299E+03  0.00000000000E+00 0. -1.
<scales pt_clust_5="13000.00000" pt_clust_6="13000.00000" pt_clust_7="13000.00000" pt_clust_8="13000.00000" pt_clust_9="103.11784"></scales>
<clustering>
<clus scale="   77.741">  5  6 -1 -1</clus>
<clus scale="   93.457">  7  8 -1 -1</clus>
<clus scale="  103.118">  2  9  1 -1</clus>
<clus scale="  103.118">  2  5  1 -1</clus>
<clus scale="  103.118">  2  5  1 -1</clus>
</clustering>
</event>
<event>
 9    2  0.3764910E-005  0.9305866E+02  0.7546771E-02  0.1301353E+00
         -3   -1    0    0    0  501 -0.00000000000E+00  0.00000000000E+00  0.84040701759E+02  0.84040701759E+02  0.00000000000E+00 0.  1.
         21   -1    0    0  501  502  0.00000000000E+00 -0.00000000000E+00 -0.20444168828E+03  0.20444168828E+03  0.00000000000E+00 0.  1.
         23    2    1    2    0    0 -0.91552411819E+01  0.64494765069E+01  0.79080305197E+01  0.92922429074E+02  0.91905531335E+02 0.  0.
         24    2    1    2    0    0  0.11935534827E+02 -0.27200179944E+02 -0.14458000294E+03  0.16904455586E+03  0.82403748909E+02 0.  0.
        -11    1    4    4    0    0  0.46339064621E+02 -0.13398832937E+02 -0.62231292590E+02  0.78737357153E+02  0.00000000000E+00 0.  1.
         12    1    4    4    0    0 -0.34403529794E+02 -0.13801347008E+02 -0.82348710354E+02  0.90307198708E+02  0.00000000000E+00 0. -1.
        -11    1    3    3    0    0  0.39919447767E+02  0.13878834128E+02 -0.19947434278E+01  0.42310322005E+02  0.00000000000E+00 0.  1.
         11    1    3    3    0    0 -0.49074688949E+02 -0.74293576213E+01  0.99027739475E+01  0.50612107069E+02  0.00000000000E+00 0. -1.
         -4    1    1    2    0  502 -0.27802936448E+01  0.20750703437E+02  0.16270985900E+02  0.26515405108E+02  0.00000000000E+00 0.  1.
<scales pt_clust_5="13000.00000" pt_clust_6="13000.00000" pt_clust_7="13000.00000" pt_clust_8="13000.00000" pt_clust_9="20.93614"></scales>
<clustering>
<clus scale="   20.936">  2  9  1 -1</clus>
<clus scale="   82.404">  5  6 -1 -1</clus>
<clus scale="   83.688">  2  5  1 -1</clus>
<clus scale="   91.906">  7  8 -1 -1</clus>
<clus scale="   20.936">  2  5  1 -1</clus>
</clustering>
</event>
<event>
 9    2  0.3764910E-005  0.1011207E+03  0.7546771E-02  0.1284048E+00
          2   -1    0    0  502    0 -0.00000000000E+00  0.00000000000E+00  0.91523128976E+03  0.91523128976E+03  0.00000000000E+00 0. -1.
         21   -1    0    0  501  502  0.00000000000E+00 -0.00000000000E+00 -0.20191288127E+02  0.20191288127E+02  0.00000000000E+00 0.  1.
         24    2    1    2    0    0  0.33459869045E+02 -0.17780081027E+02  0.51875675548E+03  0.52603373262E+03  0.78531664834E+02 0.  0.
         23    2    1    2    0    0 -0.35456922898E+02  0.52424369360E+02  0.34603694030E+03  0.36335566206E+03  0.90995962634E+02 0.  0.
        -11    1    3    3    0    0  0.72038726240E+01 -0.22863259424E+02  0.40737733721E+02  0.47267191169E+02  0.00000000000E+00 0.  1.
         12    1    3    3    0    0  0.26255996421E+02  0.50831783970E+01  0.47801902176E+03  0.47876654145E+03  0.00000000000E+00 0. -1.
        -11    1    4    4    0    0 -0.37883515179E+02 -0.58135567230E+01  0.58270902751E+02  0.69745654140E+02  0.00000000000E+00 0.  1.
         11    1    4    4    0    0  0.24265922811E+01  0.58237926083E+02  0.28776603755E+03  0.29361000792E+03  0.00000000000E+00 0. -1.
          1    1    1    2  501    0  0.19970538527E+01 -0.34644288332E+02  0.30246305851E+02  0.46033183203E+02  0.00000000000E+00 0. -1.
<scales pt_clust_5="13000.00000" pt_clust_6="13000.00000" pt_clust_7="13000.00000" pt_clust_8="13000.00000" pt_clust_9="34.70180"></scales>
<clustering>
<clus scale="   34.702">  2  9  1 -1</clus>
<clus scale="   78.532">  5  6 -1 -1</clus>
<clus scale="   90.069">  1  5  2 -1</clus>
<clus scale="   90.996">  7  8 -1 -1</clus>
<clus scale="   34.702">  2  5  1 -1</clus>
</clustering>
</event>
<event>
 9    2  0.3764910E-005  0.5565842E+03  0.7546771E-02  0.1043642E+00
         21   -1    0    0  501  502  0.00000000000E+00  0.00000000000E+00  0.54339074622E+03  0.54339074622E+03  0.00000000000E+00 0. -1.
          2   -1    0    0  502    0 -0.00000000000E+00 -0.00000000000E+00 -0.75298679751E+03  0.75298679751E+03  0.00000000000E+00 0. -1.
         23    2    1    2    0    0 -0.35305452296E+02  0.11283048107E+03 -0.38146435059E+02  0.15386763424E+03  0.90790450708E+02 0.  0.
         24    2    1    2    0    0  0.53668380004E+03  0.12608060085E+03 -0.18443875211E+03  0.58696740860E+03  0.81161975971E+02 0.  0.
        -13    1    4    4    0    0  0.25828355816E+03  0.83528773256E+02 -0.12628984213E+03  0.29939368163E+03  0.00000000000E+00 0.  1.
         14    1    4    4    0    0  0.27840024187E+03  0.42551827596E+02 -0.58148909987E+02  0.28757372696E+03  0.00000000000E+00 0. -1.
        -13    1    3    3    0    0  0.24106136490E+01  0.27671791245E+02  0.28148295162E+02  0.39545740724E+02  0.00000000000E+00 0.  1.
         13    1    3    3    0    0 -0.37716065945E+02  0.85158689823E+02 -0.66294730220E+02  0.11432189352E+03  0.00000000000E+00 0. -1.
          1    1    1    2  501    0 -0.50137834774E+03 -0.23891108192E+03  0.12989135879E+02  0.55554250089E+03  0.00000000000E+00 0. -1.
<scales pt_clust_5="13000.00000" pt_clust_6="13000.00000" pt_clust_7="13000.00000" pt_clust_8="13000.00000" pt_clust_9="550.63485"></scales>
<clustering>
<clus scale="   81.162">  5  6 -1 -1</clus>
<clus scale="   90.790">  7  8 -1 -1</clus>
<clus scale="  149.064">  2  7  1 -1</clus>
<clus scale="  550.635">  1  9  2 -1</clus>
<clus scale="  550.635">  1  5  2 -1</clus>
</clustering>
</event>
<event>
 9    2  0.3764910E-005  0.1711050E+03  0.7546771E-02  0.1212488E+00
         21   -1    0    0  501  502  0.00000000000E+00  0.00000000000E+00  0.20141094652E+03  0.20141094652E+03  0.00000000000E+00 0. -1.
          2   -1    0    0  502    0 -0.00000000000E+00 -0.00000000000E+00 -0.68786773578E+03  0.68786773578E+03  0.00000000000E+00 0. -1.
         24    2    1    2    0    0  0.85742521907E+01  0.69577525141E+01 -0.42813824341E+03  0.43519809159E+03  0.77285802903E+02 0.  0.
         23    2    1    2    0    0 -0.12571450692E+03  0.69725365836E+02  0.13289228486E+03  0.21709172663E+03  0.93822675861E+02 0.  0.
        -13    1    3    3    0    0 -0.24764618084E+02 -0.16500532402E+02 -0.94398150422E+02  0.98977596867E+02  0.00000000000E+00 0.  1.
         14    1    3    3    0    0  0.33338870275E+02  0.23458284916E+02 -0.33374009299E+03  0.33622049472E+03  0.00000000000E+00 0. -1.
        -11    1    4    4    0    0 -0.54654976222E+02  0.68855382853E+01  0.15919375610E+01  0.55109993000E+02  0.00000000000E+00 0.  1.
         11    1    4    4    0    0 -0.71059530697E+02  0.62839827551E+02  0.13130034730E+03  0.16198173363E+03  0.00000000000E+00 0. -1.
          1    1    1    2  501    0  0.11714025473E+03 -0.76683118350E+02 -0.19121083071E+03  0.23698886408E+03  0.00000000000E+00 0. -1.
<scales pt_clust_5="13000.00000" pt_clust_6="13000.00000" pt_clust_7="13000.00000" pt_clust_8="13000.00000" pt_clust_9="143.08830"></scales>
<clustering>
<clus scale="   77.286">  5  6 -1 -1</clus>
<clus scale="   78.071">  2  5  1 -1</clus>
<clus scale="   93.823">  7  8 -1 -1</clus>
<clus scale="  143.088">  1  9  2 -1</clus>
<clus scale="  143.088">  1  5  2 -1</clus>
</clustering>
</event>
<event>
 9    2  0.3764910E-005  0.2902838E+03  0.7546771E-02  0.1090663E+00
         21   -1    0    0  501  502  0.00000000000E+00  0.00000000000E+00  0.69028700646E+03  0.69028700646E+03  0.00000000000E+00 0.  1.
         -1   -1    0    0    0  501 -0.00000000000E+00 -0.00000000000E+00 -0.22930072450E+03  0.22930072450E+03  0.00000000000E+00 0.  1.
         23    2    1    2    0    0 -0.13912330413E+03  0.25838354766E+03 -0.32655091744E+02  0.30922308719E+03  0.91843405763E+02 0.  0.
         24    2    1    2    0    0  0.58803623548E+02 -0.20892002261E+03  0.45096177285E+03  0.50682991660E+03  0.80028756101E+02 0.  0.
        -11    1    4    4    0    0  0.14818978588E+02 -0.89478343662E+02  0.27562818908E+03  0.29016697732E+03  0.00000000000E+00 0.  1.
         12    1    4    4    0    0  0.43984644959E+02 -0.11944167894E+03  0.17533358377E+03  0.21666293928E+03  0.00000000000E+00 0. -1.
        -13    1    3    3    0    0 -0.11842557998E+03  0.13842956224E+03 -0.42607839854E+02  0.18709032501E+03  0.00000000000E+00 0.  1.
         13    1    3    3    0    0 -0.20697724152E+02  0.11995398542E+03  0.99527481104E+01  0.12213276218E+03  0.00000000000E+00 0. -1.
         -2    1    1    2    0  502  0.80319680585E+02 -0.49463525055E+02  0.42679600851E+02  0.10353472716E+03  0.00000000000E+00 0.  1.
<scales pt_clust_5="13000.00000" pt_clust_6="13000.00000" pt_clust_7="13000.00000" pt_clust_8="13000.00000" pt_clust_9="94.32868"></scales>
<clustering>
<clus scale="   80.029">  5  6 -1 -1</clus>
<clus scale="   91.843">  7  8 -1 -1</clus>
<clus scale="   94.329">  1  9  2 -1</clus>
<clus scale="  286.765">  1  5  2 -1</clus>
<clus scale="   94.329">  1  5  2 -1</clus>
</clustering>
</event>
<event>
 9    2  0.3764910E-005  0.2646074E+03  0.7546771E-02  0.1119726E+00
          2   -1    0    0  502    0 -0.00000000000E+00  0.00000000000E+00  0.39145108764E+03  0.39145108764E+03  0.00000000000E+00 0. -1.
         21   -1    0    0  501  502  0.00000000000E+00 -0.00000000000E+00 -0.47821195936E+03  0.47821195936E+03  0.00000000000E+00 0.  1.
         24    2    1    2    0    0 -0.48477488983E+02  0.15214050202E+03 -0.16765435111E+03  0.24552759721E+03  0.81725273044E+02 0.  0.
         23    2    1    2    0    0  0.25656316671E+03 -0.93515782961E+02 -0.13677682208E+03  0.31735072543E+03  0.86219044850E+02 0.  0.
        -13    1    3    3    0    0 -0.51261735531E+02  0.54461250714E+02 -0.10688610801E+03  0.13045471798E+03  0.00000000000E+00 0.  1.
         14    1    3    3    0    0  0.27842465475E+01  0.97679251306E+02 -0.60768243101E+02  0.11507287923E+03  0.00000000000E+00 0. -1.
        -11    1    4    4    0    0  0.52221807283E+02 -0.42033386288E+02 -0.17204658651E+01  0.67058800478E+02  0.00000000000E+00 0. -1.
         11    1    4    4    0    0  0.20434135942E+03 -0.51482396673E+02 -0.13505635622E+03  0.25029192495E+03  0.00000000000E+00 0.  1.
          1    1    1    2  501    0 -0.20808567772E+03 -0.58624719059E+02  0.21767030147E+03  0.30678472436E+03  0.00000000000E+00 0. -1.
<scales pt_clust_5="13000.00000" pt_clust_6="13000.00000" pt_clust_7="13000.00000" pt_clust_8="13000.00000" pt_clust_9="250.16679"></scales>
<clustering>
<clus scale="   81.725">  5  6 -1 -1</clus>
<clus scale="   86.219">  7  8 -1 -1</clus>
<clus scale="  179.376">  1  5  2 -1</clus>
<clus scale="  250.167">  2  9  1 -1</clus>
<clus scale="  250.167">  2  5  1 -1</clus>
</clustering>
</event>
<event>
 9    2  0.3764910E-005  0.1328073E+03  0.7546771E-02  0.1242568E+00
          2   -1    0    0  502    0 -0.00000000000E+00  0.00000000000E+00  0.32754433288E+03  0.32754433288E+03  0.00000000000E+00 0. -1.
         21   -1    0    0  501  502  0.00000000000E+00 -0.00000000000E+00 -0.13139210278E+03  0.13139210278E+03  0.00000000000E+00 0. -1.
         24    2    1    2    0    0  0.28684598105E+02 -0.26973293001E+02  0.12297002928E+03  0.15207706917E+03  0.80345766309E+02 0.  0.
         23    2    1    2    0    0  0.10853751237E+01  0.11681762056E+03  0.12966844747E+03  0.19663708851E+03  0.90579820013E+02 0.  0.
        -11    1    3    3    0    0  0.29454820556E+02 -0.48620297311E+02  0.11623865849E+03  0.12939453424E+03  0.00000000000E+00 0.  1.
         12    1    3    3    0    0 -0.77022245064E+00  0.21647004310E+02  0.67313707921E+01  0.22682534933E+02  0.00000000000E+00 0. -1.
        -13    1    4    4    0    0 -0.35929377296E+02  0.45262390879E+02  0.21268988552E+02  0.61579006609E+02  0.00000000000E+00 0.  1.
         13    1    4    4    0    0  0.37014752420E+02  0.71555229686E+02  0.10839945892E+03  0.13505808190E+03  0.00000000000E+00 0. -1.
          1    1    1    2  501    0 -0.29769973229E+02 -0.89844327564E+02 -0.56486246653E+02  0.11022227798E+03  0.00000000000E+00 0. -1.
<scales pt_clust_5="13000.00000" pt_clust_6="13000.00000" pt_clust_7="13000.00000" pt_clust_8="13000.00000" pt_clust_9="97.12403"></scales>
<clustering>
<clus scale="   80.346">  5  6 -1 -1</clus>
<clus scale="   89.475">  1  5  2 -1</clus>
<clus scale="   90.580">  7  8 -1 -1</clus>
<clus scale="   97.124">  2  9  1 -1</clus>
<clus scale="   97.124">  2  5  1 -1</clus>
</clustering>
</event>
<event>
 9    2  0.3764910E-005  0.9004044E+02  0.7546771E-02  0.1307476E+00
         -1   -1    0    0    0  501 -0.00000000000E+00  0.00000000000E+00  0.25294529111E+03  0.25294529111E+03  0.00000000000E+00 0.  1.
         21   -1    0    0  501  502  0.00000000000E+00 -0.00000000000E+00 -0.28171532302E+03  0.28171532302E+03  0.00000000000E+00 0. -1.
         23    2    1    2    0    0  0.11670066207E+02 -0.15666401334E+02  0.23279123117E+03  0.24955196337E+03  0.87765588569E+02 0.  0.
         24    2    1    2    0    0 -0.11320223475E+02  0.37129884221E+02 -0.23266527890E+03  0.24911168714E+03  0.80104462436E+02 0.  0.
        -13    1    4    4    0    0  0.18316863958E+02  0.21297801508E+02 -0.21724068032E+02  0.35511110742E+02  0.00000000000E+00 0.  1.
         14    1    4    4    0    0 -0.29637087433E+02  0.15832082713E+02 -0.21094121087E+03  0.21360057640E+03  0.00000000000E+00 0. -1.
        -11    1    3    3    0    0 -0.16349203784E+02 -0.43473977987E+02  0.16167060146E+03  0.16821018578E+03  0.00000000000E+00 0.  1.
         11    1    3    3    0    0  0.28019269991E+02  0.27807576653E+02  0.71120629715E+02  0.81341777588E+02  0.00000000000E+00 0. -1.
         -2    1    1    2    0  502 -0.34984273160E+00 -0.21463482886E+02 -0.28895984179E+02  0.35996963611E+02  0.00000000000E+00 0.  1.
<scales pt_clust_5="13000.00000" pt_clust_6="13000.00000" pt_clust_7="13000.00000" pt_clust_8="13000.00000" pt_clust_9="21.46633"></scales>
<clustering>
<clus scale="   21.466">  2  9  1 -1</clus>
<clus scale="   80.104">  5  6 -1 -1</clus>
<clus scale="   82.591">  2  5  1 -1</clus>
<clus scale="   87.766">  7  8 -1 -1</clus>
<clus scale="   21.466">  2  5  1 -1</clus>
</clustering>
</event>
<event>
 9    2  0.3764910E-005  0.9427717E+02  0.7546771E-02  0.1299257E+00
         21   -1    0    0  501  502  0.00000000000E+00  0.00000000000E+00  0.24434674909E+02  0.24434674909E+02  0.00000000000E+00 0. -1.
          2   -1    0    0  502    0 -0.00000000000E+00 -0.00000000000E+00 -0.67878294641E+03  0.67878294641E+03  0.00000000000E+00 0. -1.
         24    2    1    2    0    0  0.43185410887E+01 -0.49899743987E+01 -0.32852034055E+03  0.33853083987E+03  0.81449160537E+02 0.  0.
         23    2    1    2    0    0 -0.44290345699E+02 -0.51306918050E+01 -0.29746974489E+03  0.31464320279E+03  0.92326254202E+02 0.  0.
        -11    1    3    3    0    0  0.33557160177E+02  0.15318942221E+02 -0.88430131742E+02  0.95815662550E+02  0.00000000000E+00 0.  1.
         12    1    3    3    0    0 -0.29238619088E+02 -0.20308916620E+02 -0.24009020880E+03  0.24271517732E+03  0.00000000000E+00 0. -1.
        -11    1    4    4    0    0 -0.71027819783E+02 -0.12081196576E+02 -0.17815810423E+03  0.19217496350E+03  0.00000000000E+00 0. -1.
         11    1    4    4    0    0  0.26737474084E+02  0.69505047709E+01 -0.11931164066E+03  0.12246823929E+03  0.00000000000E+00 0.  1.
          1    1    1    2  501    0  0.39971804610E+02  0.10120666204E+02 -0.28358186073E+02  0.50043578664E+02  0.00000000000E+00 0. -1.
<scales pt_clust_5="13000.00000" pt_clust_6="13000.00000" pt_clust_7="13000.00000" pt_clust_8="13000.00000" pt_clust_9="41.23315"></scales>
<clustering>
<clus scale="   41.233">  1  9  2 -1</clus>
<clus scale="   81.449">  5  6 -1 -1</clus>
<clus scale="   83.654">  2  5  1 -1</clus>
<clus scale="   92.326">  7  8 -1 -1</clus>
<clus scale="   41.233">  1  5  2 -1</clus>
</clustering>
</event>
<event>
 9    2  0.3764910E-005  0.9813134E+02  0.7546771E-02  0.1290942E+00
         21   -1    0    0  501  502  0.00000000000E+00  0.00000000000E+00  0.18553709513E+03  0.18553709513E+03  0.00000000000E+00 0.  1.
          2   -1    0    0  502    0 -0.00000000000E+00 -0.00000000000E+00 -0.11513741475E+03  0.11513741475E+03  0.00000000000E+00 0. -1.
         23    2    1    2    0    0  0.28535868081E+02 -0.18004512497E+02 -0.58285458449E+02  0.11272344141E+03  0.90393148737E+02 0.  0.
         24    2    1    2    0    0 -0.53704131053E+02  0.90617118527E+01  0.55212766515E+02  0.10977431593E+03  0.77689783999E+02 0.  0.
        -13    1    4    4    0    0 -0.43287156306E+02  0.17171108094E+02  0.73626272267E+02  0.87117465656E+02  0.00000000000E+00 0.  1.
         14    1    4    4    0    0 -0.10416974748E+02 -0.81093962415E+01 -0.18413505752E+02  0.22656850275E+02  0.00000000000E+00 0. -1.
        -11    1    3    3    0    0  0.13640918340E+02 -0.43998456288E+02  0.12429706931E+01  0.46081273692E+02  0.00000000000E+00 0.  1.
         11    1    3    3    0    0  0.14894949741E+02  0.25993943791E+02 -0.59528429142E+02  0.66642167715E+02  0.00000000000E+00 0. -1.
          1    1    1    2  501    0  0.25168262972E+02  0.89428006446E+01  0.73472372313E+02  0.78176752540E+02  0.00000000000E+00 0. -1.
<scales pt_clust_5="13000.00000" pt_clust_6="13000.00000" pt_clust_7="13000.00000" pt_clust_8="13000.00000" pt_clust_9="26.70983"></scales>
<clustering>
<clus scale="   26.710">  1  9  2 -1</clus>
<clus scale="   77.690">  5  6 -1 -1</clus>
<clus scale="   86.571">  1  5  2 -1</clus>
<clus scale="   90.393">  7  8 -1 -1</clus>
<clus scale="   26.710">  1  5  2 -1</clus>
</clustering>
</event>
<event>
 9    2  0.3764910E-005  0.2015448E+03  0.7546771E-02  0.1149242E+00
          2   -1    0    0  502    0 -0.00000000000E+00  0.00000000000E+00  0.12635213173E+04  0.12635213173E+04  0.00000000000E+00 0. -1.
         21   -1    0    0  501  502  0.00000000000E+00 -0.00000000000E+00 -0.11137858200E+03  0.11137858200E+03  0.00000000000E+00 0. -1.
         24    2    1    2    0    0  0.94814899187E+02 -0.16294358137E+03  0.77307812970E+03  0.79979562688E+03  0.80515677546E+02 0.  0.
         23    2    1    2    0    0 -0.15074303194E+03  0.56319979417E+02  0.72042167166E+01  0.18423767454E+03  0.89421575811E+02 0.  0.
        -11    1    3    3    0    0  0.41044394978E+02 -0.10274489246E+02  0.19110870108E+03  0.19573641235E+03  0.00000000000E+00 0.  1.
         12    1    3    3    0    0  0.53770504209E+02 -0.15266909213E+03  0.58196942862E+03  0.60405921453E+03  0.00000000000E+00 0. -1.
        -11    1    4    4    0    0 -0.16336511919E+02  0.22297342183E+02 -0.29893481574E+02  0.40714534637E+02  0.00000000000E+00 0.  1.
         11    1    4    4    0    0 -0.13440652002E+03  0.34022637234E+02  0.37097698291E+02  0.14352313990E+03  0.00000000000E+00 0. -1.
          1    1    1    2  501    0  0.55928132751E+02  0.10662360195E+03  0.37186038891E+03  0.39086659792E+03  0.00000000000E+00 0. -1.
<scales pt_clust_5="13000.00000" pt_clust_6="13000.00000" pt_clust_7="13000.00000" pt_clust_8="13000.00000" pt_clust_9="120.40167"></scales>
<clustering>
<clus scale="   80.516">  5  6 -1 -1</clus>
<clus scale="   89.422">  7  8 -1 -1</clus>
<clus scale="  120.402">  2  9  1 -1</clus>
<clus scale="  197.755">  1  5  2 -1</clus>
<clus scale="  120.402">  2  5  1 -1</clus>
</clustering>
</event>
<event>
 9    2  0.3764910E-005  0.1491031E+03  0.7546771E-02  0.1220083E+00
          2   -1    0    0  502    0 -0.00000000000E+00  0.00000000000E+00  0.38946958940E+03  0.38946958940E+03  0.00000000000E+00 0. -1.
         21   -1    0    0  501  502  0.00000000000E+00 -0.00000000000E+00 -0.10555473036E+03  0.10555473036E+03  0.00000000000E+00 0. -1.
         24    2    1    2    0    0 -0.31976652706E+02  0.53773121418E+02  0.16898823685E+03  0.19660967649E+03  0.78640230112E+02 0.  0.
         23    2    1    2    0    0  0.23848804381E+02  0.90083974146E+02  0.69941746544E+02  0.14746907394E+03  0.90395752059E+02 0.  0.
        -13    1    3    3    0    0  0.15557149617E+02  0.50389891228E+02  0.93135542767E+02  0.10702988073E+03  0.00000000000E+00 0.  1.
         14    1    3    3    0    0 -0.47533802323E+02  0.33832301903E+01  0.75852694080E+02  0.89579795763E+02  0.00000000000E+00 0. -1.
        -11    1    4    4    0    0 -0.29445220673E+02  0.45616275119E+02  0.53319025136E+02  0.76097201116E+02  0.00000000000E+00 0. -1.
         11    1    4    4    0    0  0.53294025054E+02  0.44467699027E+02  0.16622721408E+02  0.71371872823E+02  0.00000000000E+00 0.  1.
          1    1    1    2  501    0  0.81278483254E+01 -0.14385709556E+03  0.44984875656E+02  0.15094556933E+03  0.00000000000E+00 0. -1.
<scales pt_clust_5="13000.00000" pt_clust_6="13000.00000" pt_clust_7="13000.00000" pt_clust_8="13000.00000" pt_clust_9="118.57638"></scales>
<clustering>
<clus scale="   78.640">  5  6 -1 -1</clus>
<clus scale="   90.396">  7  8 -1 -1</clus>
<clus scale="  100.491">  1  5  2 -1</clus>
<clus scale="  118.576">  2  9  1 -1</clus>
<clus scale="  118.576">  2  5  1 -1</clus>
</clustering>
</event>
<event>
 9    2  0.3764910E-005  0.1104340E+03  0.7546771E-02  0.1264253E+00
          2   -1    0    0  502    0 -0.00000000000E+00  0.00000000000E+00  0.92711003333E+02  0.92711003333E+02  0.00000000000E+00 0. -1.
         21   -1    0    0  501  502  0.00000000000E+00 -0.00000000000E+00 -0.26860081281E+03  0.26860081281E+03  0.00000000000E+00 0.  1.
         23    2    1    2    0    0  0.30224062839E+02  0.29241018922E+02 -0.32566063519E+02  0.10575380190E+03  0.91404523746E+02 0.  0.
         24    2    1    2    0    0 -0.95231912457E+02 -0.36909054483E+01 -0.39659627677E+02  0.13055770133E+03  0.79935520106E+02 0.  0.
        -13    1    4    4    0    0 -0.98798912205E+02 -0.17324207990E+01 -0.56095015768E+02  0.11362604072E+03  0.00000000000E+00 0.  1.
         14    1    4    4    0    0  0.35669997477E+01 -0.19584846493E+01  0.16435388091E+02  0.16931660610E+02  0.00000000000E+00 0. -1.
        -11    1    3    3    0    0 -0.21754327467E+02 -0.19524714935E+02 -0.11736440797E+02  0.31499353952E+02  0.00000000000E+00 0.  1.
         11    1    3    3    0    0  0.51978390306E+02  0.48765733857E+02 -0.20829622722E+02  0.74254447949E+02  0.00000000000E+00 0. -1.
          1    1    1    2  501    0  0.65007849618E+02 -0.25550113473E+02 -0.10366411828E+03  0.12500031292E+03  0.00000000000E+00 0. -1.
<scales pt_clust_5="13000.00000" pt_clust_6="13000.00000" pt_clust_7="13000.00000" pt_clust_8="13000.00000" pt_clust_9="69.84861"></scales>
<clustering>
<clus scale="   69.849">  2  9  1 -1</clus>
<clus scale="   79.936">  5  6 -1 -1</clus>
<clus scale="   91.405">  7  8 -1 -1</clus>
<clus scale="  101.146">  2  5  1 -1</clus>
<clus scale="   69.849">  2  5  1 -1</clus>
</clustering>
</event>
<event>
 9    2  0.3764910E-005  0.1259995E+03  0.7546771E-02  0.1236988E+00
         21   -1    0    0  501  502  0.00000000000E+00  0.00000000000E+00  0.68174094611E+02  0.68174094611E+02  0.00000000000E+00 0.  1.
         -1   -1    0    0    0  501 -0.00000000000E+00 -0.00000000000E+00 -0.31645878233E+03  0.31645878233E+03  0.00000000000E+00 0.  1.
         23    2    1    2    0    0 -0.87311063757E+02 -0.46872642850E+02 -0.16433094715E+03  0.21203658352E+03  0.90191940103E+02 0.  0.
         24    2    1    2    0    0  0.67606100379E+02  0.36049519746E+02 -0.97531935389E+02  0.14633238377E+03  0.77656522177E+02 0.  0.
        -13    1    4    4    0    0  0.51950539629E+02 -0.14281237050E+02 -0.33693581170E+02  0.63545807977E+02  0.00000000000E+00 0.  1.
         14    1    4    4    0    0  0.15655560750E+02  0.50330756796E+02 -0.63838354220E+02  0.82786575793E+02  0.00000000000E+00 0. -1.
        -13    1    3    3    0    0  0.10458453689E+02 -0.30352538363E+02 -0.60345300774E+02  0.68353574626E+02  0.00000000000E+00 0. -1.
         13    1    3    3    0    0 -0.97769517446E+02 -0.16520104487E+02 -0.10398564637E+03  0.14368300890E+03  0.00000000000E+00 0.  1.
         -2    1    1    2    0  502  0.19704963378E+02  0.10823123104E+02  0.13578194818E+02  0.26263909647E+02  0.00000000000E+00 0.  1.
<scales pt_clust_5="13000.00000" pt_clust_6="13000.00000" pt_clust_7="13000.00000" pt_clust_8="13000.00000" pt_clust_9="22.48167"></scales>
<clustering>
<clus scale="   22.482">  1  9  2 -1</clus>
<clus scale="   77.657">  5  6 -1 -1</clus>
<clus scale="   90.192">  7  8 -1 -1</clus>
<clus scale="  117.353">  1  5  2 -1</clus>
<clus scale="   22.482">  1  5  2 -1</clus>
</clustering>
</event>
<event>
 9    2  0.3764910E-005  0.1102594E+03  0.7546771E-02  0.1263510E+00
          2   -1    0    0  502    0 -0.00000000000E+00  0.00000000000E+00  0.48117214508E+03  0.48117214508E+03  0.00000000000E+00 0. -1.
         21   -1    0    0  501  502  0.00000000000E+00 -0.00000000000E+00 -0.31813643755E+02  0.31813643755E+02  0.00000000000E+00 0.  1.
         23    2    1    2    0    0  0.69670631704E+02  0.24777811078E+02  0.27213323749E+03  0.29628568790E+03  0.90888795039E+02 0.  0.
         24    2    1    2    0    0 -0.43254544767E+02 -0.24721289622E+02  0.15425532244E+03  0.18169394360E+03  0.82072448695E+02 0.  0.
        -13    1    4    4    0    0 -0.16618670845E+02 -0.26804999183E+02  0.73564925997E+01  0.32385277291E+02  0.00000000000E+00 0.  1.
         14    1    4    4    0    0 -0.26635873922E+02  0.20837095606E+01  0.14689882984E+03  0.14930866631E+03  0.00000000000E+00 0. -1.
        -13    1    3    3    0    0  0.62410570420E+02 -0.15591148787E+02  0.96849127744E+02  0.11626657630E+03  0.00000000000E+00 0.  1.
         13    1    3    3    0    0  0.72600612845E+01  0.40368959865E+02  0.17528410975E+03  0.18001911160E+03  0.00000000000E+00 0. -1.
          1    1    1    2  501    0 -0.26416086937E+02 -0.56521455780E-01  0.22969941387E+02  0.35006157331E+02  0.00000000000E+00 0. -1.
<scales pt_clust_5="13000.00000" pt_clust_6="13000.00000" pt_clust_7="13000.00000" pt_clust_8="13000.00000" pt_clust_9="26.41615"></scales>
<clustering>
<clus scale="   26.416">  2  9  1 -1</clus>
<clus scale="   82.072">  5  6 -1 -1</clus>
<clus scale="   90.889">  7  8 -1 -1</clus>
<clus scale="  103.113">  2  5  1 -1</clus>
<clus scale="   26.416">  2  5  1 -1</clus>
</clustering>
</event>
<event>
 9    2  0.3764910E-005  0.1733932E+03  0.7546771E-02  0.1176029E+00
         -3   -1    0    0    0  501 -0.00000000000E+00  0.00000000000E+00  0.10265120119E+04  0.10265120119E+04  0.00000000000E+00 0.  1.
         21   -1    0    0  501  502  0.00000000000E+00 -0.00000000000E+00 -0.67521947574E+02  0.67521947574E+02  0.00000000000E+00 0.  1.
         24    2    1    2    0    0 -0.14410740577E+02 -0.15424357579E+03  0.80236366597E+03  0.82114055142E+03  0.80533239040E+02 0.  0.
         23    2    1    2    0    0 -0.26899865578E+01  0.12035937059E+03  0.17395921289E+03  0.23116810772E+03  0.93184076763E+02 0.  0.
        -11    1    3    3    0    0  0.11539608457E+02 -0.11749942055E+03  0.69135650945E+03  0.70136516847E+03  0.00000000000E+00 0.  1.
         12    1    3    3    0    0 -0.25950349033E+02 -0.36744155237E+02  0.11100715653E+03  0.11977538294E+03  0.00000000000E+00 0. -1.
        -13    1    4    4    0    0  0.30095012316E+02  0.10159129575E+03  0.89691914374E+02  0.13882053394E+03  0.00000000000E+00 0. -1.
         13    1    4    4    0    0 -0.32784998874E+02  0.18768074832E+02  0.84267298514E+02  0.92347573779E+02  0.00000000000E+00 0.  1.
         -4    1    1    2    0  502  0.17100727134E+02  0.33884205206E+02 -0.17332814516E+02  0.41725300358E+02  0.00000000000E+00 0.  1.
<scales pt_clust_5="13000.00000" pt_clust_6="13000.00000" pt_clust_7="13000.00000" pt_clust_8="13000.00000" pt_clust_9="37.95490"></scales>
<clustering>
<clus scale="   37.955">  2  9  1 -1</clus>
<clus scale="   80.533">  5  6 -1 -1</clus>
<clus scale="   93.184">  7  8 -1 -1</clus>
<clus scale="  166.936">  1  5  2 -1</clus>
<clus scale="   37.955">  2  5  1 -1</clus>
</clustering>
</event>
<event>
 9    2  0.3764910E-005  0.1051687E+03  0.7546771E-02  0.1273500E+00
         21   -1    0    0  501  502  0.00000000000E+00  0.00000000000E+00  0.40222784482E+02  0.40222784482E+02  0.00000000000E+00 0. -1.
          2   -1    0    0  502    0 -0.00000000000E+00 -0.00000000000E+00 -0.70943662034E+03  0.70943662034E+03  0.00000000000E+00 0. -1.
         24    2    1    2    0    0  0.29478949131E+02 -0.50223474980E+02 -0.58617851307E+03  0.59457998630E+03  0.80800402480E+02 0.  0.
         23    2    1    2    0    0 -0.12919589098E+02  0.38775420708E+02 -0.90448658964E+02  0.13362649554E+03  0.89468605492E+02 0.  0.
        -11    1    3    3    0    0  0.20184725751E+02 -0.37317155980E+01 -0.29802537213E+02  0.36187568021E+02  0.00000000000E+00 0.  1.
         12    1    3    3    0    0  0.92942233794E+01 -0.46491759382E+02 -0.55637597586E+03  0.55839241828E+03  0.00000000000E+00 0. -1.
        -13    1    4    4    0    0 -0.51318095685E+02  0.23238701317E+02 -0.44726184651E+02  0.71930631702E+02  0.00000000000E+00 0.  1.
         13    1    4    4    0    0  0.38398506587E+02  0.15536719391E+02 -0.45722474314E+02  0.61695863839E+02  0.00000000000E+00 0. -1.
          1    1    1    2  501    0 -0.16559360033E+02  0.11448054272E+02  0.74133361749E+01  0.21452922984E+02  0.00000000000E+00 0. -1.
<scales pt_clust_5="13000.00000" pt_clust_6="13000.00000" pt_clust_7="13000.00000" pt_clust_8="13000.00000" pt_clust_9="20.13133"></scales>
<clustering>
<clus scale="   20.131">  1  9  2 -1</clus>
<clus scale="   80.800">  5  6 -1 -1</clus>
<clus scale="   89.469">  7  8 -1 -1</clus>
<clus scale="   97.901">  2  5  1 -1</clus>
<clus scale="   20.131">  1  5  2 -1</clus>
</clustering>
</event>
<event>
 9    2  0.3764910E-005  0.2168345E+03  0.7546771E-02  0.1137156E+00
         -1   -1    0    0    0  501 -0.00000000000E+00  0.00000000000E+00  0.52957896019E+03  0.52957896019E+03  0.00000000000E+00 0.  1.
         21   -1    0    0  501  502  0.00000000000E+00 -0.00000000000E+00 -0.21290155746E+03  0.21290155746E+03  0.00000000000E+00 0. -1.
         23    2    1    2    0    0  0.66124586065E+01  0.15628714091E+03  0.72722204014E+02  0.19492111442E+03  0.90754211289E+02 0.  0.
         24    2    1    2    0    0 -0.12030824780E+03 -0.26355217158E+03  0.60127292819E+02  0.30626038071E+03  0.79033586613E+02 0.  0.
        -13    1    4    4    0    0 -0.34241300095E+02 -0.65540019598E+02 -0.18935443971E+02  0.76331591360E+02  0.00000000000E+00 0.  1.
         14    1    4    4    0    0 -0.86066947704E+02 -0.19801215199E+03  0.79062736790E+02  0.22992878935E+03  0.00000000000E+00 0. -1.
        -11    1    3    3    0    0 -0.32891108622E+02  0.29425935273E+02  0.36317077432E+02  0.57154534433E+02  0.00000000000E+00 0. -1.
         11    1    3    3    0    0  0.39503567228E+02  0.12686120563E+03  0.36405126582E+02  0.13776657998E+03  0.00000000000E+00 0.  1.
         -2    1    1    2    0  502  0.11369578919E+03  0.10726503068E+03  0.18382790589E+03  0.24129902252E+03  0.00000000000E+00 0.  1.
<scales pt_clust_5="13000.00000" pt_clust_6="13000.00000" pt_clust_7="13000.00000" pt_clust_8="13000.00000" pt_clust_9="156.30913"></scales>
<clustering>
<clus scale="   79.034">  5  6 -1 -1</clus>
<clus scale="   90.754">  7  8 -1 -1</clus>
<clus scale="  156.309">  2  9  1 -1</clus>
<clus scale="  212.196">  2  5  1 -1</clus>
<clus scale="  156.309">  2  5  1 -1</clus>
</clustering>
</event>
<event>
 9    2  0.3764910E-005  0.1161045E+03  0.7546771E-02  0.1252278E+00
         21   -1    0    0  501  502  0.00000000000E+00  0.00000000000E+00  0.29479466653E+03  0.29479466653E+03  0.00000000000E+00 0.  1.
         -1   -1    0    0    0  501 -0.00000000000E+00 -0.00000000000E+00 -0.39827923948E+03  0.39827923948E+03  0.00000000000E+00 0.  1.
         23    2    1    2    0    0  0.22006275010E+02 -0.70809044614E+02 -0.36447921006E+03  0.38267688154E+03  0.89990578171E+02 0.  0.
         24    2    1    2    0    0 -0.15280620899E+02  0.47008631330E+02  0.26802578474E+03  0.28468455410E+03  0.82244545471E+02 0.  0.
        -11    1    4    4    0    0 -0.66342769970E+01  0.70357530554E+02  0.18644673574E+03  0.19939052386E+03  0.00000000000E+00 0.  1.
         12    1    4    4    0    0 -0.86463439023E+01 -0.23348899224E+02  0.81579049001E+02  0.85294030235E+02  0.00000000000E+00 0. -1.
        -11    1    3    3    0    0  0.74761200020E+00 -0.88291376242E+02 -0.29550195881E+03  0.30841098181E+03  0.00000000000E+00 0.  1.
         11    1    3    3    0    0  0.21258663010E+02  0.17482331628E+02 -0.68977251254E+02  0.74265899730E+02  0.00000000000E+00 0. -1.
         -2    1    1    2    0  502 -0.67256541107E+01  0.23800413284E+02 -0.70311476295E+01  0.25712470373E+02  0.00000000000E+00 0.  1.
<scales pt_clust_5="13000.00000" pt_clust_6="13000.00000" pt_clust_7="13000.00000" pt_clust_8="13000.00000" pt_clust_9="24.73246"></scales>
<clustering>
<clus scale="   24.732">  1  9  2 -1</clus>
<clus scale="   82.245">  5  6 -1 -1</clus>
<clus scale="   89.991">  7  8 -1 -1</clus>
<clus scale="  110.209">  1  5  2 -1</clus>
<clus scale="   24.732">  1  5  2 -1</clus>
</clustering>
</event>
<event>
 9    2  0.3764910E-005  0.1442003E+03  0.7546771E-02  0.1225121E+00
         -1   -1    0    0    0  501 -0.00000000000E+00  0.00000000000E+00  0.36196029827E+03  0.36196029827E+03  0.00000000000E+00 0.  1.
         21   -1    0    0  501  502  0.00000000000E+00 -0.00000000000E+00 -0.10524966482E+03  0.10524966482E+03  0.00000000000E+00 0. -1.
         23    2    1    2    0    0  0.22744955915E+02 -0.30630378758E+02  0.15126446634E+03  0.18132335684E+03  0.92421143879E+02 0.  0.
         24    2    1    2    0    0 -0.83003871598E+02 -0.77886384218E+02  0.69033007599E+02  0.15653072911E+03  0.82343071775E+02 0.  0.
        -13    1    4    4    0    0 -0.23106814296E+02  0.13895251071E+02  0.29639752381E+02  0.40068913018E+02  0.00000000000E+00 0.  1.
         14    1    4    4    0    0 -0.59897057302E+02 -0.91781635289E+02  0.39393255218E+02  0.11646181609E+03  0.00000000000E+00 0. -1.
        -13    1    3    3    0    0  0.66086040600E+00 -0.35988012503E+02  0.15425856799E+03  0.15840227138E+03  0.00000000000E+00 0.  1.
         13    1    3    3    0    0  0.22084095509E+02  0.53576337442E+01 -0.29941016516E+01  0.22921085457E+02  0.00000000000E+00 0. -1.
         -2    1    1    2    0  502  0.60258915682E+02  0.10851676298E+03  0.36413159516E+02  0.12935587715E+03  0.00000000000E+00 0.  1.
<scales pt_clust_5="13000.00000" pt_clust_6="13000.00000" pt_clust_7="13000.00000" pt_clust_8="13000.00000" pt_clust_9="118.37798"></scales>
<clustering>
<clus scale="   82.343">  5  6 -1 -1</clus>
<clus scale="   92.421">  7  8 -1 -1</clus>
<clus scale="   99.986">  1  7  2 -1</clus>
<clus scale="  118.378">  2  9  1 -1</clus>
<clus scale="  118.378">  2  5  1 -1</clus>
</clustering>
</event>
<event>
 9    2  0.3764910E-005  0.5388215E+03  0.7546771E-02  0.1055156E+00
          2   -1    0    0  502    0 -0.00000000000E+00  0.00000000000E+00  0.12066070061E+04  0.12066070061E+04  0.00000000000E+00 0. -1.
         21   -1    0    0  501  502  0.00000000000E+00 -0.00000000000E+00 -0.30372275553E+03  0.30372275553E+03  0.00000000000E+00 0. -1.
         23    2    1    2    0    0  0.50861665139E+02  0.53546969796E+02  0.15150489765E+03  0.19218726471E+03  0.92347299643E+02 0.  0.
         24    2    1    2    0    0  0.45590856035E+03 -0.25771333657E+03  0.29793628505E+03  0.60813504443E+03  0.82422224343E+02 0.  0.
        -13    1    4    4    0    0  0.35342020565E+03 -0.16850291944E+03  0.24749346710E+03  0.46319768121E+03  0.00000000000E+00 0.  1.
         14    1    4    4    0    0  0.10248835470E+03 -0.89210417135E+02  0.50442817953E+02  0.14493736322E+03  0.00000000000E+00 0. -1.
        -13    1    3    3    0    0  0.13911645652E+02 -0.24205499848E+02  0.17616865083E+02  0.33012028762E+02  0.00000000000E+00 0.  1.
         13    1    3    3    0    0  0.36950019487E+02  0.77752469644E+02  0.13388803256E+03  0.15917523595E+03  0.00000000000E+00 0. -1.
          1    1    1    2  501    0 -0.50677022549E+03  0.20416636678E+03  0.45344306783E+03  0.71000745245E+03  0.00000000000E+00 0. -1.
<scales pt_clust_5="13000.00000" pt_clust_6="13000.00000" pt_clust_7="13000.00000" pt_clust_8="13000.00000" pt_clust_9="532.48045"></scales>
<clustering>
<clus scale="   82.422">  5  6 -1 -1</clus>
<clus scale="   92.347">  7  8 -1 -1</clus>
<clus scale="  118.246">  1  7  2 -1</clus>
<clus scale="  532.480">  2  9  1 -1</clus>
<clus scale="  532.480">  2  5  1 -1</clus>
</clustering>
</event>
<event>
 9    2  0.3764910E-005  0.1054065E+03  0.7546771E-02  0.1274115E+00
         21   -1    0    0  501  502  0.00000000000E+00  0.00000000000E+00  0.21177904044E+03  0.21177904044E+03  0.00000000000E+00 0. -1.
          2   -1    0    0  502    0 -0.00000000000E+00 -0.00000000000E+00 -0.38139202217E+03  0.38139202217E+03  0.00000000000E+00 0. -1.
         24    2    1    2    0    0 -0.17993945461E+02  0.52838734377E+02 -0.30076118144E+03  0.31638114792E+03  0.80771458906E+02 0.  0.
         23    2    1    2    0    0  0.40855686515E+00 -0.37345917717E+02 -0.38010156816E+02  0.10601572800E+03  0.91649757627E+02 0.  0.
        -11    1    3    3    0    0 -0.35852003343E+02  0.36036727357E+02 -0.83610634284E+02  0.97850651647E+02  0.00000000000E+00 0.  1.
         12    1    3    3    0    0  0.17858057882E+02  0.16802007020E+02 -0.21715054715E+03  0.21853049627E+03  0.00000000000E+00 0. -1.
        -13    1    4    4    0    0  0.18447619590E+02  0.25472778597E+02 -0.22910634939E+01  0.31534522193E+02  0.00000000000E+00 0. -1.
         13    1    4    4    0    0 -0.18039062725E+02 -0.62818696314E+02 -0.35719093322E+02  0.74481205806E+02  0.00000000000E+00 0.  1.
          1    1    1    2  501    0  0.17585388596E+02 -0.15492816660E+02  0.16915835652E+03  0.17077418669E+03  0.00000000000E+00 0. -1.
<scales pt_clust_5="13000.00000" pt_clust_6="13000.00000" pt_clust_7="13000.00000" pt_clust_8="13000.00000" pt_clust_9="23.43658"></scales>
<clustering>
<clus scale="   23.437">  1  9  2 -1</clus>
<clus scale="   80.771">  5  6 -1 -1</clus>
<clus scale="   91.650">  7  8 -1 -1</clus>
<clus scale="   96.098">  2  5  1 -1</clus>
<clus scale="   23.437">  1  5  2 -1</clus>
</clustering>
</event>
<event>
 9    2  0.3764910E-005  0.1146371E+03  0.7546771E-02  0.1256643E+00
          2   -1    0    0  502    0 -0.00000000000E+00  0.00000000000E+00  0.63484631195E+03  0.63484631195E+03  0.00000000000E+00 0. -1.
         21   -1    0    0  501  502  0.00000000000E+00 -0.00000000000E+00 -0.47351148867E+02  0.47351148867E+02  0.00000000000E+00 0. -1.
         23    2    1    2    0    0  0.48042898368E+02 -0.20136906784E+02  0.24060055255E+03  0.26251393145E+03  0.91166458833E+02 0.  0.
         24    2    1    2    0    0  0.65160027769E+02  0.16137179200E+02  0.90261002763E+02  0.13916310419E+03  0.81933406967E+02 0.  0.
        -13    1    4    4    0    0  0.58092926134E+02  0.34086540758E+02  0.97547814323E+02  0.11854221361E+03  0.00000000000E+00 0.  1.
         14    1    4    4    0    0  0.70671016355E+01 -0.17949361558E+02 -0.72868115597E+01  0.20620890586E+02  0.00000000000E+00 0. -1.
        -11    1    3    3    0    0 -0.21026751338E+02  0.93164080416E+01  0.23878447464E+02  0.33152676874E+02  0.00000000000E+00 0.  1.
         11    1    3    3    0    0  0.69069649706E+02 -0.29453314826E+02  0.21672210509E+03  0.22936125457E+03  0.00000000000E+00 0. -1.
          1    1    1    2  501    0 -0.11320292614E+03  0.39997275840E+01  0.25663360777E+03  0.28052042518E+03  0.00000000000E+00 0. -1.
<scales pt_clust_5="13000.00000" pt_clust_6="13000.00000" pt_clust_7="13000.00000" pt_clust_8="13000.00000" pt_clust_9="80.17854"></scales>
<clustering>
<clus scale="   81.933">  5  6 -1 -1</clus>
<clus scale="   91.166">  7  8 -1 -1</clus>
<clus scale="  105.000">  1  7  2 -1</clus>
<clus scale="   80.179">  2  9  1 -1</clus>
<clus scale="   80.179">  2  5  1 -1</clus>
</clustering>
</event>
<event>
 9    2  0.3764910E-005  0.9994076E+02  0.7546771E-02  0.1287492E+00
         -1   -1    0    0    0  501 -0.00000000000E+00  0.00000000000E+00  0.12918373613E+03  0.12918373613E+03  0.00000000000E+00 0.  1.
         21   -1    0    0  501  502  0.00000000000E+00 -0.00000000000E+00 -0.28591300869E+03  0.28591300869E+03  0.00000000000E+00 0.  1.
         23    2    1    2    0    0 -0.69009777755E+01  0.50533185381E+02  0.65178017307E+02  0.12421779151E+03  0.92631849104E+02 0.  0.
         24    2    1    2    0    0 -0.43929415582E+02 -0.23271113160E+01 -0.45776430154E+02  0.10132781454E+03  0.78972371378E+02 0.  0.
        -11    1    4    4    0    0  0.13019611179E+02 -0.19814171569E+02  0.35635771209E+01  0.23975211201E+02  0.00000000000E+00 0.  1.
         12    1    4    4    0    0 -0.56949026761E+02  0.17487060253E+02 -0.49340007275E+02  0.77352603338E+02  0.00000000000E+00 0. -1.
        -11    1    3    3    0    0 -0.48814059978E+02  0.38212780846E+02  0.36067853267E+02  0.71721120396E+02  0.00000000000E+00 0.  1.
         11    1    3    3    0    0  0.41913082202E+02  0.12320404536E+02  0.29110164040E+02  0.52496671114E+02  0.00000000000E+00 0. -1.
         -2    1    1    2    0  502  0.50830393357E+02 -0.48206074065E+02 -0.17613085971E+03  0.18955113877E+03  0.00000000000E+00 0.  1.
<scales pt_clust_5="13000.00000" pt_clust_6="13000.00000" pt_clust_7="13000.00000" pt_clust_8="13000.00000" pt_clust_9="70.05394"></scales>
<clustering>
<clus scale="   70.054">  2  9  1 -1</clus>
<clus scale="   78.972">  5  6 -1 -1</clus>
<clus scale="   87.431">  2  5  1 -1</clus>
<clus scale="   92.632">  7  8 -1 -1</clus>
<clus scale="   70.054">  2  5  1 -1</clus>
</clustering>
</event>
<event>
 9    2  0.3764910E-005  0.2652674E+03  0.7546771E-02  0.1118225E+00
          2   -1    0    0  502    0 -0.00000000000E+00  0.00000000000E+00  0.51428880265E+03  0.51428880265E+03  0.00000000000E+00 0. -1.
         21   -1    0    0  501  502  0.00000000000E+00 -0.00000000000E+00 -0.26342606481E+03  0.26342606481E+03  0.00000000000E+00 0. -1.
         23    2    1    2    0    0 -0.37104539954E+02 -0.15666101338E+03  0.90612633851E+02  0.20587733803E+03  0.90859280776E+02 0.  0.
         24    2    1    2    0    0 -0.23552865554E+03  0.12671452941E+03  0.66126325803E+02  0.28186350162E+03  0.59531697751E+02 0.  0.
        -13    1    4    4    0    0 -0.10216582721E+03  0.49904842454E+02 -0.16140838443E+01  0.11371435625E+03  0.00000000000E+00 0.  1.
         14    1    4    4    0    0 -0.13336282832E+03  0.76809686957E+02  0.67740409647E+02  0.16814914537E+03  0.00000000000E+00 0. -1.
        -13    1    3    3    0    0 -0.15047458133E+02 -0.30349887818E+02  0.67590596786E+02  0.75604434134E+02  0.00000000000E+00 0.  1.
         13    1    3    3    0    0 -0.22057081820E+02 -0.12631112556E+03  0.23022037065E+02  0.13027290390E+03  0.00000000000E+00 0. -1.
          1    1    1    2  501    0  0.27263319549E+03  0.29946483971E+02  0.94123778182E+02  0.28997402781E+03  0.00000000000E+00 0. -1.
<scales pt_clust_5="13000.00000" pt_clust_6="13000.00000" pt_clust_7="13000.00000" pt_clust_8="13000.00000" pt_clust_9="258.50112"></scales>
<clustering>
<clus scale="   59.532">  5  6 -1 -1</clus>
<clus scale="   90.859">  7  8 -1 -1</clus>
<clus scale="  184.864">  1  7  2 -1</clus>
<clus scale="  258.501">  2  9  1 -1</clus>
<clus scale="  258.501">  2  5  1 -1</clus>
</clustering>
</event>
<event>
 9    2  0.3764910E-005  0.1369948E+03  0.7546771E-02  0.1219888E+00
         -3   -1    0    0    0  501 -0.00000000000E+00  0.00000000000E+00  0.11894800886E+04  0.11894800886E+04  0.00000000000E+00 0.  1.
         21   -1    0    0  501  502  0.00000000000E+00 -0.00000000000E+00 -0.29734038263E+02  0.29734038263E+02  0.00000000000E+00 0.  1.
         23    2    1    2    0    0 -0.41492947255E+02 -0.77607321051E+02  0.36998824657E+03  0.39085081369E+03  0.90158166623E+02 0.  0.
         24    2    1    2    0    0  0.11140131129E+03  0.76205232753E+02  0.35444536294E+03  0.38747096083E+03  0.79276355381E+02 0.  0.
        -11    1    4    4    0    0  0.41296777201E+02  0.67590846699E+02  0.13056121026E+03  0.15270944957E+03  0.00000000000E+00 0.  1.
         12    1    4    4    0    0  0.70104534090E+02  0.86143860537E+01  0.22388415268E+03  0.23476151126E+03  0.00000000000E+00 0. -1.
        -13    1    3    3    0    0 -0.61419454273E+02 -0.48347032361E+02  0.32118777882E+03  0.33056220922E+03  0.00000000000E+00 0. -1.
         13    1    3    3    0    0  0.19926507017E+02 -0.29260288690E+02  0.48800467748E+02  0.60288604467E+02  0.00000000000E+00 0.  1.
         -4    1    1    2    0  502 -0.69908364036E+02  0.14020882979E+01  0.43531244086E+03  0.44089235238E+03  0.00000000000E+00 0.  1.
<scales pt_clust_5="13000.00000" pt_clust_6="13000.00000" pt_clust_7="13000.00000" pt_clust_8="13000.00000" pt_clust_9="69.92246"></scales>
<clustering>
<clus scale="   69.922">  2  9  1 -1</clus>
<clus scale="   79.276">  5  6 -1 -1</clus>
<clus scale="   90.158">  7  8 -1 -1</clus>
<clus scale="  130.092">  2  5  1 -1</clus>
<clus scale="   69.922">  2  5  1 -1</clus>
</clustering>
</event>
<event>
 9    2  0.3764910E-005  0.1073534E+03  0.7546771E-02  0.1270332E+00
          2   -1    0    0  502    0 -0.00000000000E+00  0.00000000000E+00  0.69774868093E+03  0.69774868093E+03  0.00000000000E+00 0. -1.
         21   -1    0    0  501  502  0.00000000000E+00 -0.00000000000E+00 -0.20718994645E+02  0.20718994645E+02  0.00000000000E+00 0.  1.
         24    2    1    2    0    0 -0.52716901161E+02  0.13988872871E+01  0.36959709685E+03  0.38166283789E+03  0.79268400245E+02 0.  0.
         23    2    1    2    0    0  0.64798663951E+02 -0.21992647182E+02  0.25655548402E+03  0.28060384307E+03  0.90748316732E+02 0.  0.
        -13    1    3    3    0    0 -0.27640645435E+02 -0.22927224675E+02  0.58735516012E+02  0.68844199121E+02  0.00000000000E+00 0.  1.
         14    1    3    3    0    0 -0.25076255726E+02  0.24326111962E+02  0.31086158083E+03  0.31281863877E+03  0.00000000000E+00 0. -1.
        -11    1    4    4    0    0  0.36416749378E+02 -0.49744196627E+02  0.88056702484E+02  0.10749254665E+03  0.00000000000E+00 0.  1.
         11    1    4    4    0    0  0.28381914573E+02  0.27751549445E+02  0.16849878153E+03  0.17311129642E+03  0.00000000000E+00 0. -1.
          1    1    1    2  501    0 -0.12081762790E+02  0.20593759895E+02  0.50877105420E+02  0.56200994605E+02  0.00000000000E+00 0. -1.
<scales pt_clust_5="13000.00000" pt_clust_6="13000.00000" pt_clust_7="13000.00000" pt_clust_8="13000.00000" pt_clust_9="23.87618"></scales>
<clustering>
<clus scale="   23.876">  2  9  1 -1</clus>
<clus scale="   79.268">  5  6 -1 -1</clus>
<clus scale="   90.748">  7  8 -1 -1</clus>
<clus scale="   97.842">  1  5  2 -1</clus>
<clus scale="   23.876">  2  5  1 -1</clus>
</clustering>
</event>
<event>
 9    2  0.3764910E-005  0.2464617E+03  0.7546771E-02  0.1115562E+00
         21   -1    0    0  501  502  0.00000000000E+00  0.00000000000E+00  0.11625536329E+03  0.11625536329E+03  0.00000000000E+00 0.  1.
          2   -1    0    0  502    0 -0.00000000000E+00 -0.00000000000E+00 -0.37200540945E+03  0.37200540945E+03  0.00000000000E+00 0. -1.
         24    2    1    2    0    0  0.88484736354E+01  0.97694195600E+02 -0.68505335313E+02  0.14319069208E+03  0.78664744269E+02 0.  0.
         23    2    1    2    0    0 -0.28498596021E+02  0.62037473895E+02 -0.13324604896E+03  0.17531676248E+03  0.91217539442E+02 0.  0.
        -13    1    3    3    0    0 -0.26338607544E+02  0.66373146422E+02 -0.63959473332E+02  0.95864128026E+02  0.00000000000E+00 0.  1.
         14    1    3    3    0    0  0.35187081179E+02  0.31321049178E+02 -0.45458619813E+01  0.47326564049E+02  0.00000000000E+00 0. -1.
        -13    1    4    4    0    0  0.26129503022E+02 -0.30483956338E+00 -0.12782805441E+02  0.29090272778E+02  0.00000000000E+00 0.  1.
         13    1    4    4    0    0 -0.54628099043E+02  0.62342313458E+02 -0.12046324352E+03  0.14622648971E+03  0.00000000000E+00 0. -1.
          1    1    1    2  501    0  0.19650122386E+02 -0.15973166949E+03 -0.53998661886E+02  0.16975331819E+03  0.00000000000E+00 0. -1.
<scales pt_clust_5="13000.00000" pt_clust_6="13000.00000" pt_clust_7="13000.00000" pt_clust_8="13000.00000" pt_clust_9="160.93581"></scales>
<clustering>
<clus scale="   78.665">  5  6 -1 -1</clus>
<clus scale="   91.218">  7  8 -1 -1</clus>
<clus scale="  110.590">  5  7 -1 -1</clus>
<clus scale="  160.936">  1  9  2 -1</clus>
<clus scale="  160.936">  1  5  2 -1</clus>
</clustering>
</event>
<event>
 9    2  0.3764910E-005  0.9340011E+02  0.7546771E-02  0.1297132E+00
         21   -1    0    0  501  502  0.00000000000E+00  0.00000000000E+00  0.73269895815E+02  0.73269895815E+02  0.00000000000E+00 0.  1.
         -3   -1    0    0    0  501 -0.00000000000E+00 -0.00000000000E+00 -0.50283481473E+03  0.50283481473E+03  0.00000000000E+00 0.  1.
         23    2    1    2    0    0 -0.38739958480E+02  0.23771310894E+02 -0.41350859150E+02  0.10911936046E+03  0.90173619586E+02 0.  0.
         24    2    1    2    0    0 -0.50739057053E+02 -0.23349771747E+02 -0.39893980421E+02  0.10735561051E+03  0.82547160355E+02 0.  0.
        -11    1    4    4    0    0 -0.57964540953E+01  0.29629196868E+02 -0.12485281519E+02  0.32670635771E+02  0.00000000000E+00 0.  1.
         12    1    4    4    0    0 -0.44942602958E+02 -0.52978968614E+02 -0.27408698903E+02  0.74684974738E+02  0.00000000000E+00 0. -1.
        -13    1    3    3    0    0 -0.31384769002E+01 -0.20545732371E+02  0.17592862159E+02  0.27230239713E+02  0.00000000000E+00 0.  1.
         13    1    3    3    0    0 -0.35601481580E+02  0.44317043265E+02 -0.58943721309E+02  0.81889120744E+02  0.00000000000E+00 0. -1.
         -4    1    1    2    0  502  0.89479015533E+02 -0.42153914723E+00 -0.34832007934E+03  0.35962973958E+03  0.00000000000E+00 0.  1.
<scales pt_clust_5="13000.00000" pt_clust_6="13000.00000" pt_clust_7="13000.00000" pt_clust_8="13000.00000" pt_clust_9="89.48005"></scales>
<clustering>
<clus scale="   82.547">  5  6 -1 -1</clus>
<clus scale="   89.480">  1  9  2 -1</clus>
<clus scale="   89.480">  1  5  2 -1</clus>
<clus scale="   90.174">  7  8 -1 -1</clus>
<clus scale="   89.480">  1  5  2 -1</clus>
</clustering>
</event>
<event>
 9    2  0.3764910E-005  0.1775675E+03  0.7546771E-02  0.1195627E+00
         21   -1    0    0  501  502  0.00000000000E+00  0.00000000000E+00  0.42321639562E+03  0.42321639562E+03  0.00000000000E+00 0. -1.
          4   -1    0    0  502    0 -0.00000000000E+00 -0.00000000000E+00 -0.13059968309E+03  0.13059968309E+03  0.00000000000E+00 0. -1.
         23    2    1    2    0    0  0.19584063166E+02  0.42734875670E+02  0.71775977331E+01  0.10074913383E+03  0.88820408294E+02 0.  0.
         24    2    1    2    0    0  0.14578037135E+03 -0.31428656569E+02  0.74381198741E+02  0.18470399900E+03  0.79645008604E+02 0.  0.
        -11    1    4    4    0    0  0.11978987523E+03 -0.51898257805E+02  0.38966164819E+02  0.13624024872E+03  0.00000000000E+00 0.  1.
         12    1    4    4    0    0  0.25990496120E+02  0.20469601236E+02  0.35415033922E+02  0.48463750278E+02  0.00000000000E+00 0. -1.
        -13    1    3    3    0    0  0.19323730865E+02 -0.13472627387E+02  0.31641910556E+02  0.39447797998E+02  0.00000000000E+00 0.  1.
         13    1    3    3    0    0  0.26033230110E+00  0.56207503057E+02 -0.24464312823E+02  0.61301335831E+02  0.00000000000E+00 0. -1.
          3    1    1    2  501    0 -0.16536443452E+03 -0.11306219102E+02  0.21105791606E+03  0.26836294589E+03  0.00000000000E+00 0. -1.
<scales pt_clust_5="13000.00000" pt_clust_6="13000.00000" pt_clust_7="13000.00000" pt_clust_8="13000.00000" pt_clust_9="158.70383"></scales>
<clustering>
<clus scale="   79.645">  5  6 -1 -1</clus>
<clus scale="   88.820">  7  8 -1 -1</clus>
<clus scale="  100.493">  2  7  1 -1</clus>
<clus scale="  158.704">  1  9  2 -1</clus>
<clus scale="  158.704">  1  5  2 -1</clus>
</clustering>
</event>
<event>
 9    2  0.3764910E-005  0.1121179E+03  0.7546771E-02  0.1257844E+00
          2   -1    0    0  502    0 -0.00000000000E+00  0.00000000000E+00  0.32916811760E+03  0.32916811760E+03  0.00000000000E+00 0. -1.
         21   -1    0    0  501  502  0.00000000000E+00 -0.00000000000E+00 -0.48957308815E+02  0.48957308815E+02  0.00000000000E+00 0.  1.
         23    2    1    2    0    0  0.47738229223E+02 -0.22712867255E+02  0.12067574704E+03  0.16042473756E+03  0.91534953045E+02 0.  0.
         24    2    1    2    0    0 -0.65296207120E+02  0.40722406812E+02  0.15094089645E+03  0.19112088863E+03  0.88442810724E+02 0.  0.
        -11    1    4    4    0    0  0.22135978467E+02  0.12118009193E+02  0.31655065775E+02  0.40483217247E+02  0.00000000000E+00 0.  1.
         12    1    4    4    0    0 -0.87432185587E+02  0.28604397619E+02  0.11928583068E+03  0.15063767139E+03  0.00000000000E+00 0. -1.
        -11    1    3    3    0    0  0.12115488511E+02 -0.41925158146E+02  0.11033380828E+03  0.11865097217E+03  0.00000000000E+00 0.  1.
         11    1    3    3    0    0  0.35622740713E+02  0.19212290891E+02  0.10341938754E+02  0.41773765384E+02  0.00000000000E+00 0. -1.
          1    1    1    2  501    0  0.17557977896E+02 -0.18009539556E+02  0.85941652912E+01  0.26579800223E+02  0.00000000000E+00 0. -1.
<scales pt_clust_5="13000.00000" pt_clust_6="13000.00000" pt_clust_7="13000.00000" pt_clust_8="13000.00000" pt_clust_9="25.15206"></scales>
<clustering>
<clus scale="   25.152">  2  9  1 -1</clus>
<clus scale="   88.443">  5  6 -1 -1</clus>
<clus scale="   91.535">  7  8 -1 -1</clus>
<clus scale="  109.608">  2  5  1 -1</clus>
<clus scale="   25.152">  2  5  1 -1</clus>
</clustering>
</event>
<event>
 9    2  0.3764910E-005  0.1379806E+03  0.7546771E-02  0.1231195E+00
         21   -1    0    0  501  502  0.00000000000E+00  0.00000000000E+00  0.33578528118E+02  0.33578528118E+02  0.00000000000E+00 0. -1.
          2   -1    0    0  502    0 -0.00000000000E+00 -0.00000000000E+00 -0.59164328277E+03  0.59164328277E+03  0.00000000000E+00 0. -1.
         23    2    1    2    0    0  0.52178282913E+02 -0.50778160976E+02 -0.38725079644E+03  0.41308735724E+03  0.12400399402E+03 0.  0.
         24    2    1    2    0    0 -0.22302461854E+02  0.40203608847E+02 -0.11212450473E+03  0.14543484505E+03  0.80409325480E+02 0.  0.
        -11    1    4    4    0    0 -0.68332725306E+00 -0.23767179054E+02 -0.19167632772E+02  0.30540855954E+02  0.00000000000E+00 0.  1.
         12    1    4    4    0    0 -0.21619134601E+02  0.63970787901E+02 -0.92956871961E+02  0.11489398910E+03  0.00000000000E+00 0. -1.
        -11    1    3    3    0    0  0.81745818592E+02 -0.47473603813E+02 -0.36176656601E+03  0.37391331909E+03  0.00000000000E+00 0. -1.
         11    1    3    3    0    0 -0.29567535679E+02 -0.33045571631E+01 -0.25484230430E+02  0.39174038148E+02  0.00000000000E+00 0.  1.
          1    1    1    2  501    0 -0.29875821059E+02  0.10574552129E+02 -0.58689453488E+02  0.66699608600E+02  0.00000000000E+00 0. -1.
<scales pt_clust_5="13000.00000" pt_clust_6="13000.00000" pt_clust_7="13000.00000" pt_clust_8="13000.00000" pt_clust_9="31.69205"></scales>
<clustering>
<clus scale="   31.692">  1  9  2 -1</clus>
<clus scale="   80.409">  5  6 -1 -1</clus>
<clus scale="  100.635">  1  5  2 -1</clus>
<clus scale="  124.004">  7  8 -1 -1</clus>
<clus scale="   31.692">  1  5  2 -1</clus>
</clustering>
</event>
<event>
 9    2  0.3764910E-005  0.9358898E+02  0.7546771E-02  0.1299949E+00
          2   -1    0    0  502    0 -0.00000000000E+00  0.00000000000E+00  0.17298480884E+03  0.17298480884E+03  0.00000000000E+00 0. -1.
         21   -1    0    0  501  502  0.00000000000E+00 -0.00000000000E+00 -0.23467806173E+03  0.23467806173E+03  0.00000000000E+00 0.  1.
         23    2    1    2    0    0 -0.17202793387E+02  0.13776687855E+02  0.14449817926E+03  0.17244051432E+03  0.91489201220E+02 0.  0.
         24    2    1    2    0    0  0.17515740512E+01  0.65947428803E+01 -0.12178939218E+03  0.14703256251E+03  0.82093603559E+02 0.  0.
        -11    1    4    4    0    0  0.60690963223E+01  0.20577192233E+02 -0.12896281270E+03  0.13073508263E+03  0.00000000000E+00 0.  1.
         12    1    4    4    0    0 -0.43175222711E+01 -0.13982449352E+02  0.71734205222E+01  0.16297479880E+02  0.00000000000E+00 0. -1.
        -11    1    3    3    0    0 -0.22235069916E+02 -0.36138506395E+02  0.81721019086E+02  0.92079937766E+02  0.00000000000E+00 0.  1.
         11    1    3    3    0    0  0.50322765295E+01  0.49915194250E+02  0.62777160175E+02  0.80360576552E+02  0.00000000000E+00 0. -1.
          1    1    1    2  501    0  0.15451219335E+02 -0.20371430735E+02 -0.84402039974E+02  0.88189793745E+02  0.00000000000E+00 0. -1.
<scales pt_clust_5="13000.00000" pt_clust_6="13000.00000" pt_clust_7="13000.00000" pt_clust_8="13000.00000" pt_clust_9="25.56825"></scales>
<clustering>
<clus scale="   25.568">  2  9  1 -1</clus>
<clus scale="   82.094">  5  6 -1 -1</clus>
<clus scale="   84.427">  2  5  1 -1</clus>
<clus scale="   91.489">  7  8 -1 -1</clus>
<clus scale="   25.568">  2  5  1 -1</clus>
</clustering>
</event>
<event>
 9    2  0.3764910E-005  0.9776027E+02  0.7546771E-02  0.1291786E+00
         21   -1    0    0  501  502  0.00000000000E+00  0.00000000000E+00  0.72154485322E+02  0.72154485322E+02  0.00000000000E+00 0. -1.
          2   -1    0    0  502    0 -0.00000000000E+00 -0.00000000000E+00 -0.37824878269E+03  0.37824878269E+03  0.00000000000E+00 0. -1.
         24    2    1    2    0    0 -0.38928395332E+02  0.92196508008E+01 -0.28991301849E+03  0.30289806387E+03  0.78084933745E+02 0.  0.
         23    2    1    2    0    0  0.23011736789E+02  0.24784849448E+02 -0.38106901877E+02  0.10402671521E+03  0.90695053418E+02 0.  0.
        -11    1    3    3    0    0 -0.55027769223E+02 -0.11054585939E+02 -0.14116342261E+03  0.15191237981E+03  0.00000000000E+00 0.  1.
         12    1    3    3    0    0  0.16099373891E+02  0.20274236740E+02 -0.14874959589E+03  0.15098568406E+03  0.00000000000E+00 0. -1.
        -13    1    4    4    0    0  0.25256836051E+02 -0.30189455336E+02 -0.27440507249E+02  0.47982209400E+02  0.00000000000E+00 0.  1.
         13    1    4    4    0    0 -0.22450992618E+01  0.54974304784E+02 -0.10666394628E+02  0.56044505810E+02  0.00000000000E+00 0. -1.
          1    1    1    2  501    0  0.15916658543E+02 -0.34004500249E+02  0.21925623000E+02  0.43478488938E+02  0.00000000000E+00 0. -1.
<scales pt_clust_5="13000.00000" pt_clust_6="13000.00000" pt_clust_7="13000.00000" pt_clust_8="13000.00000" pt_clust_9="37.54525"></scales>
<clustering>
<clus scale="   37.545">  1  9  2 -1</clus>
<clus scale="   78.085">  5  6 -1 -1</clus>
<clus scale="   86.190">  2  5  1 -1</clus>
<clus scale="   90.695">  7  8 -1 -1</clus>
<clus scale="   37.545">  1  5  2 -1</clus>
</clustering>
</event>
<event>
 9    2  0.3764910E-005  0.1037371E+03  0.7546771E-02  0.1279326E+00
          2   -1    0    0  502    0 -0.00000000000E+00  0.00000000000E+00  0.38040243807E+03  0.38040243807E+03  0.00000000000E+00 0. -1.
         21   -1    0    0  501  502  0.00000000000E+00 -0.00000000000E+00 -0.13531810777E+03  0.13531810777E+03  0.00000000000E+00 0.  1.
         24    2    1    2    0    0 -0.48547303351E+02  0.66387806386E+01  0.19933695494E+03  0.21961001363E+03  0.78053971163E+02 0.  0.
         23    2    1    2    0    0  0.23696525705E+02 -0.17480796027E+02 -0.10502691194E+03  0.14291785561E+03  0.92345858926E+02 0.  0.
        -13    1    3    3    0    0 -0.99277419223E+01  0.39931511233E+02  0.91476651562E+02  0.10030485248E+03  0.00000000000E+00 0.  1.
         14    1    3    3    0    0 -0.38619561428E+02 -0.33292730594E+02  0.10786030337E+03  0.11930516116E+03  0.00000000000E+00 0. -1.
        -13    1    4    4    0    0 -0.23805470479E+02 -0.12415027210E+02 -0.88317901538E+02  0.92308640210E+02  0.00000000000E+00 0.  1.
         13    1    4    4    0    0  0.47501996184E+02 -0.50657688170E+01 -0.16709010406E+02  0.50609215405E+02  0.00000000000E+00 0. -1.
          1    1    1    2  501    0  0.24850777646E+02  0.10842015388E+02  0.15077428731E+03  0.15319267659E+03  0.00000000000E+00 0. -1.
<scales pt_clust_5="13000.00000" pt_clust_6="13000.00000" pt_clust_7="13000.00000" pt_clust_8="13000.00000" pt_clust_9="27.11293"></scales>
<clustering>
<clus scale="   27.113">  2  9  1 -1</clus>
<clus scale="   78.054">  5  6 -1 -1</clus>
<clus scale="   91.247">  1  5  2 -1</clus>
<clus scale="   92.346">  7  8 -1 -1</clus>
<clus scale="   27.113">  2  5  1 -1</clus>
</clustering>
</event>
<event>
 9    2  0.3764910E-005  0.1159304E+03  0.7546771E-02  0.1253122E+00
          2   -1    0    0  502    0 -0.00000000000E+00  0.00000000000E+00  0.70285952176E+03  0.70285952176E+03  0.00000000000E+00 0. -1.
         21   -1    0    0  501  502  0.00000000000E+00 -0.00000000000E+00 -0.34971252635E+02  0.34971252635E+02  0.00000000000E+00 0.  1.
         24    2    1    2    0    0 -0.75266249516E+02  0.45746346432E+02  0.41887804201E+03  0.43578905803E+03  0.81826355733E+02 0.  0.
         23    2    1    2    0    0  0.51427803513E+02  0.15049711135E+02  0.15137588098E+03  0.18458152026E+03  0.91018500865E+02 0.  0.
        -13    1    3    3    0    0  0.10510278201E+02  0.29561032605E+02  0.14424025895E+03  0.14761291576E+03  0.00000000000E+00 0.  1.
         14    1    3    3    0    0 -0.85776527717E+02  0.16185313826E+02  0.27463778306E+03  0.28817614228E+03  0.00000000000E+00 0. -1.
        -13    1    4    4    0    0 -0.15841204567E+02  0.21343118110E+02  0.88073695524E+02  0.91997001560E+02  0.00000000000E+00 0.  1.
         13    1    4    4    0    0  0.67269008079E+02 -0.62934069752E+01  0.63302185453E+02  0.92584518697E+02  0.00000000000E+00 0. -1.
          1    1    1    2  501    0  0.23838446003E+02 -0.60796057567E+02  0.97634346132E+02  0.11746019610E+03  0.00000000000E+00 0. -1.
<scales pt_clust_5="13000.00000" pt_clust_6="13000.00000" pt_clust_7="13000.00000" pt_clust_8="13000.00000" pt_clust_9="65.30262"></scales>
<clustering>
<clus scale="   65.303">  2  9  1 -1</clus>
<clus scale="   81.826">  5  6 -1 -1</clus>
<clus scale="   91.019">  7  8 -1 -1</clus>
<clus scale="  108.862">  1  5  2 -1</clus>
<clus scale="   65.303">  2  5  1 -1</clus>
</clustering>
</event>
<event>
 9    2  0.3764910E-005  0.1396282E+03  0.7546771E-02  0.1228099E+00
         -3   -1    0    0    0  501 -0.00000000000E+00  0.00000000000E+00  0.38591960121E+02  0.38591960121E+02  0.00000000000E+00 0.  1.
         21   -1    0    0  501  502  0.00000000000E+00 -0.00000000000E+00 -0.92867584803E+03  0.92867584803E+03  0.00000000000E+00 0.  1.
         23    2    1    2    0    0  0.27010001552E+02  0.21554542505E+02 -0.18101077487E+03  0.20852691941E+03  0.97593222182E+02 0.  0.
         24    2    1    2    0    0 -0.72546328717E+02 -0.11579311680E+03 -0.34187512508E+03  0.37691785599E+03  0.80730745714E+02 0.  0.
        -13    1    4    4    0    0 -0.62279236392E+02 -0.12291351916E+03 -0.26154420765E+03  0.29562105648E+03  0.00000000000E+00 0.  1.
         14    1    4    4    0    0 -0.10267092325E+02  0.71204023645E+01 -0.80330917436E+02  0.81296799511E+02  0.00000000000E+00 0. -1.
        -13    1    3    3    0    0  0.29125605394E+02  0.58549194485E+02 -0.12947972154E+03  0.14505622136E+03  0.00000000000E+00 0.  1.
         13    1    3    3    0    0 -0.21156038418E+01 -0.36994651980E+02 -0.51531053324E+02  0.63470698054E+02  0.00000000000E+00 0. -1.
         -4    1    1    2    0  502  0.45536327165E+02  0.94238574293E+02 -0.36719798796E+03  0.38182303275E+03  0.00000000000E+00 0.  1.
<scales pt_clust_5="13000.00000" pt_clust_6="13000.00000" pt_clust_7="13000.00000" pt_clust_8="13000.00000" pt_clust_9="113.92355"></scales>
<clustering>
<clus scale="   80.731">  5  6 -1 -1</clus>
<clus scale="   97.593">  7  8 -1 -1</clus>
<clus scale="  103.531">  1  7  2 -1</clus>
<clus scale="  113.924">  2  9  1 -1</clus>
<clus scale="  113.924">  2  5  1 -1</clus>
</clustering>
</event>
<event>
 9    2  0.3764910E-005  0.1360362E+03  0.7546771E-02  0.1222013E+00
         21   -1    0    0  501  502  0.00000000000E+00  0.00000000000E+00  0.71094907706E+02  0.71094907706E+02  0.00000000000E+00 0. -1.
          2   -1    0    0  502    0 -0.00000000000E+00 -0.00000000000E+00 -0.51401833161E+03  0.51401833161E+03  0.00000000000E+00 0. -1.
         23    2    1    2    0    0 -0.10475043885E+03  0.55090578443E+02 -0.35693005020E+03  0.38724566747E+03  0.92479835445E+02 0.  0.
         24    2    1    2    0    0  0.73015765078E+02 -0.34133094870E+01 -0.85397489520E+02  0.13722118099E+03  0.78701770398E+02 0.  0.
        -13    1    4    4    0    0  0.26553695125E+02  0.15600350750E+02 -0.81199781040E+02  0.86843964149E+02  0.00000000000E+00 0.  1.
         14    1    4    4    0    0  0.46462069953E+02 -0.19013660237E+02 -0.41977084806E+01  0.50377216838E+02  0.00000000000E+00 0. -1.
        -11    1    3    3    0    0 -0.57411469394E+02 -0.19571180630E+02 -0.16914705506E+03  0.17969372322E+03  0.00000000000E+00 0.  1.
         11    1    3    3    0    0 -0.47338969458E+02  0.74661759073E+02 -0.18778299514E+03  0.20755194425E+03  0.00000000000E+00 0. -1.
          1    1    1    2  501    0  0.31734673774E+02 -0.51677268956E+02 -0.59588418204E+00  0.60646390859E+02  0.00000000000E+00 0. -1.
<scales pt_clust_5="13000.00000" pt_clust_6="13000.00000" pt_clust_7="13000.00000" pt_clust_8="13000.00000" pt_clust_9="60.64346"></scales>
<clustering>
<clus scale="   60.643">  1  9  2 -1</clus>
<clus scale="   78.702">  5  6 -1 -1</clus>
<clus scale="   92.480">  7  8 -1 -1</clus>
<clus scale="  127.072">  1  5  2 -1</clus>
<clus scale="   60.643">  1  5  2 -1</clus>
</clustering>
</event>
<event>
 9    2  0.3764910E-005  0.1768851E+03  0.7546771E-02  0.1195023E+00
         -3   -1    0    0    0  501 -0.00000000000E+00  0.00000000000E+00  0.56564850349E+03  0.56564850349E+03  0.00000000000E+00 0.  1.
         21   -1    0    0  501  502  0.00000000000E+00 -0.00000000000E+00 -0.34401039823E+03  0.34401039823E+03  0.00000000000E+00 0.  1.
         23    2    1    2    0    0  0.44498855687E+02 -0.13640304844E+02  0.24747584688E+02  0.10594436955E+03  0.91899730240E+02 0.  0.
         24    2    1    2    0    0 -0.61724252444E+02  0.17288246974E+03  0.45719168152E+03  0.49808162201E+03  0.73231392533E+02 0.  0.
        -11    1    4    4    0    0 -0.63028856099E+02  0.87785040773E+02  0.20228721799E+03  0.22934465035E+03  0.00000000000E+00 0.  1.
         12    1    4    4    0    0  0.13046036556E+01  0.85097428965E+02  0.25490446353E+03  0.26873697166E+03  0.00000000000E+00 0. -1.
        -13    1    3    3    0    0  0.39977761672E+02  0.13431339289E+02  0.52211503043E+02  0.67116788909E+02  0.00000000000E+00 0. -1.
         13    1    3    3    0    0  0.45210940148E+01 -0.27071644134E+02 -0.27463918355E+02  0.38827580643E+02  0.00000000000E+00 0.  1.
         -4    1    1    2    0  502  0.17225396757E+02 -0.15924216489E+03 -0.26030116095E+03  0.30563291015E+03  0.00000000000E+00 0.  1.
<scales pt_clust_5="13000.00000" pt_clust_6="13000.00000" pt_clust_7="13000.00000" pt_clust_8="13000.00000" pt_clust_9="161.01395"></scales>
<clustering>
<clus scale="   73.231">  5  6 -1 -1</clus>
<clus scale="   91.900">  7  8 -1 -1</clus>
<clus scale="  103.013">  1  7  2 -1</clus>
<clus scale="  161.014">  2  9  1 -1</clus>
<clus scale="  161.014">  2  5  1 -1</clus>
</clustering>
</event>
<event>
 9    2  0.3764910E-005  0.1366283E+03  0.7546771E-02  0.1235759E+00
          2   -1    0    0  502    0 -0.00000000000E+00  0.00000000000E+00  0.11066135233E+03  0.11066135233E+03  0.00000000000E+00 0. -1.
         21   -1    0    0  501  502  0.00000000000E+00 -0.00000000000E+00 -0.33881817116E+03  0.33881817116E+03  0.00000000000E+00 0.  1.
         23    2    1    2    0    0 -0.31658464530E+02 -0.57038179944E+00 -0.22721060558E+02  0.97078529141E+02  0.88912375492E+02 0.  0.
         24    2    1    2    0    0 -0.93109721975E+02 -0.41854413513E+02 -0.17375801406E+03  0.21686338666E+03  0.80104112049E+02 0.  0.
        -13    1    4    4    0    0 -0.54638572273E+02 -0.15319800397E+02 -0.15745269609E+03  0.16736612970E+03  0.00000000000E+00 0.  1.
         14    1    4    4    0    0 -0.38471149702E+02 -0.26534613117E+02 -0.16305317968E+02  0.49497256961E+02  0.00000000000E+00 0. -1.
        -11    1    3    3    0    0 -0.39684306250E+02 -0.37630125334E+02 -0.41221961487E+01  0.54843987786E+02  0.00000000000E+00 0. -1.
         11    1    3    3    0    0  0.80258417204E+01  0.37059743534E+02 -0.18598864410E+02  0.42234541355E+02  0.00000000000E+00 0.  1.
          1    1    1    2  501    0  0.12476818650E+03  0.42424795313E+02 -0.31677744215E+02  0.13553760769E+03  0.00000000000E+00 0. -1.
<scales pt_clust_5="13000.00000" pt_clust_6="13000.00000" pt_clust_7="13000.00000" pt_clust_8="13000.00000" pt_clust_9="110.68254"></scales>
<clustering>
<clus scale="   80.104">  5  6 -1 -1</clus>
<clus scale="   88.912">  7  8 -1 -1</clus>
<clus scale="   94.382">  1  7  2 -1</clus>
<clus scale="  110.683">  2  9  1 -1</clus>
<clus scale="  110.683">  2  5  1 -1</clus>
</clustering>
</event>
<event>
 9    2  0.3764910E-005  0.1388434E+03  0.7546771E-02  0.1217922E+00
          2   -1    0    0  502    0 -0.00000000000E+00  0.00000000000E+00  0.67826109813E+03  0.67826109813E+03  0.00000000000E+00 0. -1.
         21   -1    0    0  501  502  0.00000000000E+00 -0.00000000000E+00 -0.98071450904E+02  0.98071450904E+02  0.00000000000E+00 0.  1.
         24    2    1    2    0    0  0.83730604868E+02  0.55035843739E+02  0.54389953026E+03  0.55855609659E+03  0.78220558299E+02 0.  0.
         23    2    1    2    0    0 -0.10782110682E+03 -0.80297287968E+02  0.62220738170E+02  0.17429208785E+03  0.91832816015E+02 0.  0.
        -11    1    3    3    0    0  0.30741331211E+02 -0.18415907911E+02  0.12891678025E+03  0.13380475081E+03  0.00000000000E+00 0.  1.
         12    1    3    3    0    0  0.52989273656E+02  0.73451751650E+02  0.41498275001E+03  0.42475134579E+03  0.00000000000E+00 0. -1.
        -13    1    4    4    0    0 -0.64839062163E+02  0.28761482013E+01  0.62234752951E+01  0.65200520361E+02  0.00000000000E+00 0.  1.
         13    1    4    4    0    0 -0.42982044653E+02 -0.83173436170E+02  0.55997262874E+02  0.10909156748E+03  0.00000000000E+00 0. -1.
          1    1    1    2  501    0  0.24090501948E+02  0.25261444230E+02 -0.25930621199E+02  0.43484364597E+02  0.00000000000E+00 0. -1.
<scales pt_clust_5="13000.00000" pt_clust_6="13000.00000" pt_clust_7="13000.00000" pt_clust_8="13000.00000" pt_clust_9="34.90692"></scales>
<clustering>
<clus scale="   34.907">  2  9  1 -1</clus>
<clus scale="   78.221">  5  6 -1 -1</clus>
<clus scale="   91.833">  7  8 -1 -1</clus>
<clus scale="  130.241">  1  5  2 -1</clus>
<clus scale="   34.907">  2  5  1 -1</clus>
</clustering>
</event>
<event>
 9    2  0.3764910E-005  0.9610885E+02  0.7546771E-02  0.1301972E+00
          2   -1    0    0  502    0 -0.00000000000E+00  0.00000000000E+00  0.49620748306E+03  0.49620748306E+03  0.00000000000E+00 0. -1.
         21   -1    0    0  501  502  0.00000000000E+00 -0.00000000000E+00 -0.48640699734E+02  0.48640699734E+02  0.00000000000E+00 0. -1.
         23    2    1    2    0    0 -0.23298902929E+02  0.30013073599E+02  0.39880994113E+03  0.41092756084E+03  0.91479329088E+02 0.  0.
         24    2    1    2    0    0  0.36132524338E+01 -0.86386329518E+01  0.69324920727E+02  0.98319534852E+02  0.69087659731E+02 0.  0.
        -11    1    4    4    0    0  0.24340617034E+02 -0.63763474980E+01 -0.78568661139E+00  0.25174208001E+02  0.00000000000E+00 0.  1.
         12    1    4    4    0    0 -0.20727364600E+02 -0.22622854538E+01  0.70110607339E+02  0.73145326851E+02  0.00000000000E+00 0. -1.
        -11    1    3    3    0    0  0.29984804905E+02  0.29174933504E+02  0.23417427387E+03  0.23788202078E+03  0.00000000000E+00 0.  1.
         11    1    3    3    0    0 -0.53283707834E+02  0.83814009537E+00  0.16463566726E+03  0.17304554006E+03  0.00000000000E+00 0. -1.
          1    1    1    2  501    0  0.19685650495E+02 -0.21374440647E+02 -0.20568078531E+02  0.35601087102E+02  0.00000000000E+00 0. -1.
<scales pt_clust_5="13000.00000" pt_clust_6="13000.00000" pt_clust_7="13000.00000" pt_clust_8="13000.00000" pt_clust_9="29.05842"></scales>
<clustering>
<clus scale="   29.058">  2  9  1 -1</clus>
<clus scale="   69.088">  5  6 -1 -1</clus>
<clus scale="   75.110">  2  5  1 -1</clus>
<clus scale="   91.479">  7  8 -1 -1</clus>
<clus scale="   29.058">  2  5  1 -1</clus>
</clustering>
</event>
<event>
 9    2  0.3764910E-005  0.9942420E+02  0.7546771E-02  0.1288036E+00
         21   -1    0    0  501  502  0.00000000000E+00  0.00000000000E+00  0.11441181605E+03  0.11441181605E+03  0.00000000000E+00 0. -1.
         -1   -1    0    0    0  501 -0.00000000000E+00 -0.00000000000E+00 -0.12579332908E+03  0.12579332908E+03  0.00000000000E+00 0.  1.
         24    2    1    2    0    0  0.10053398393E+02 -0.47997496654E+02 -0.42888349101E+02  0.10335187062E+03  0.80233211123E+02 0.  0.
         23    2    1    2    0    0 -0.83047364294E+01  0.11793971837E+02  0.91747308358E+01  0.94280091031E+02  0.92717277031E+02 0.  0.
        -11    1    3    3    0    0  0.81652316189E+01 -0.64292806740E+02 -0.86466195000E+01  0.65383484418E+02  0.00000000000E+00 0.  1.
         12    1    3    3    0    0  0.18881667737E+01  0.16295310085E+02 -0.34241729601E+02  0.37968386199E+02  0.00000000000E+00 0. -1.
        -13    1    4    4    0    0  0.34499088242E+02  0.31463934802E+02  0.58230097276E+01  0.47053944841E+02  0.00000000000E+00 0. -1.
         13    1    4    4    0    0 -0.42803824671E+02 -0.19669962966E+02  0.33517211082E+01  0.47226146190E+02  0.00000000000E+00 0.  1.
         -2    1    1    2    0  502 -0.17486619632E+01  0.36203524818E+02  0.22332105234E+02  0.42573183485E+02  0.00000000000E+00 0.  1.
<scales pt_clust_5="13000.00000" pt_clust_6="13000.00000" pt_clust_7="13000.00000" pt_clust_8="13000.00000" pt_clust_9="36.24573"></scales>
<clustering>
<clus scale="   36.246">  1  9  2 -1</clus>
<clus scale="   80.233">  5  6 -1 -1</clus>
<clus scale="   87.898">  2  5  1 -1</clus>
<clus scale="   92.717">  7  8 -1 -1</clus>
<clus scale="   36.246">  1  5  2 -1</clus>
</clustering>
</event>
<event>
 9    2  0.3764910E-005  0.9304880E+02  0.7546771E-02  0.1302001E+00
         21   -1    0    0  501  502  0.00000000000E+00  0.00000000000E+00  0.17746928208E+03  0.17746928208E+03  0.00000000000E+00 0. -1.
          2   -1    0    0  502    0 -0.00000000000E+00 -0.00000000000E+00 -0.93571716114E+02  0.93571716114E+02  0.00000000000E+00 0. -1.
         23    2    1    2    0    0  0.13474179207E+02  0.28948367246E+02  0.54646482497E+01  0.95124848288E+02  0.89438878067E+02 0.  0.
         24    2    1    2    0    0 -0.27181981067E+02  0.52103641292E+01  0.10236137917E+03  0.13201519287E+03  0.78639374449E+02 0.  0.
        -11    1    4    4    0    0  0.27797177797E+02 -0.11940534804E+01  0.38566805966E+02  0.47555308637E+02  0.00000000000E+00 0.  1.
         12    1    4    4    0    0 -0.54979158864E+02  0.64044176096E+01  0.63794573202E+02  0.84459884231E+02  0.00000000000E+00 0. -1.
        -11    1    3    3    0    0 -0.85792048844E+01 -0.29122747200E+02 -0.83543581876E+01  0.31488608442E+02  0.00000000000E+00 0.  1.
         11    1    3    3    0    0  0.22053384092E+02  0.58071114445E+02  0.13819006437E+02  0.63636239846E+02  0.00000000000E+00 0. -1.
          1    1    1    2  501    0  0.13707801860E+02 -0.34158731375E+02 -0.23928461455E+02  0.43900957035E+02  0.00000000000E+00 0. -1.
<scales pt_clust_5="13000.00000" pt_clust_6="13000.00000" pt_clust_7="13000.00000" pt_clust_8="13000.00000" pt_clust_9="36.80658"></scales>
<clustering>
<clus scale="   36.807">  1  9  2 -1</clus>
<clus scale="   78.639">  5  6 -1 -1</clus>
<clus scale="   82.722">  1  5  2 -1</clus>
<clus scale="   89.439">  7  8 -1 -1</clus>
<clus scale="   36.807">  1  5  2 -1</clus>
</clustering>
</event>
<event>
 9    2  0.3764910E-005  0.1486100E+03  0.7546771E-02  0.1204368E+00
         21   -1    0    0  501  502  0.00000000000E+00  0.00000000000E+00  0.17294200789E+03  0.17294200789E+03  0.00000000000E+00 0. -1.
          2   -1    0    0  502    0 -0.00000000000E+00 -0.00000000000E+00 -0.72588958796E+03  0.72588958796E+03  0.00000000000E+00 0. -1.
         23    2    1    2    0    0  0.12897965805E+03  0.20755157741E+02 -0.63884906614E+03  0.65850428805E+03  0.91832670199E+02 0.  0.
         24    2    1    2    0    0 -0.59447749906E+02 -0.22166102116E+02 -0.28674426245E+02  0.10629627895E+03  0.80320017091E+02 0.  0.
        -13    1    4    4    0    0 -0.73473837881E+02 -0.88661103485E+01 -0.28795930259E+01  0.74062843732E+02  0.00000000000E+00 0.  1.
         14    1    4    4    0    0  0.14026087975E+02 -0.13299991767E+02 -0.25794833219E+02  0.32233435214E+02  0.00000000000E+00 0. -1.
        -11    1    3    3    0    0  0.99283107969E+02 -0.23351100894E+02 -0.48839321114E+03  0.49892919150E+03  0.00000000000E+00 0. -1.
         11    1    3    3    0    0  0.29696550077E+02  0.44106258636E+02 -0.15045585500E+03  0.15957509655E+03  0.00000000000E+00 0.  1.
          1    1    1    2  501    0 -0.69531908140E+02  0.14109443743E+01  0.11457591231E+03  0.13403102885E+03  0.00000000000E+00 0. -1.
<scales pt_clust_5="13000.00000" pt_clust_6="13000.00000" pt_clust_7="13000.00000" pt_clust_8="13000.00000" pt_clust_9="69.54622"></scales>
<clustering>
<clus scale="   69.546">  1  9  2 -1</clus>
<clus scale="   80.320">  5  6 -1 -1</clus>
<clus scale="   91.833">  7  8 -1 -1</clus>
<clus scale="  141.785">  1  5  2 -1</clus>
<clus scale="   69.546">  1  5  2 -1</clus>
</clustering>
</event>
<event>
 9    2  0.3764910E-005  0.1443254E+03  0.7546771E-02  0.1221858E+00
         21   -1    0    0  501  502  0.00000000000E+00  0.00000000000E+00  0.45123931643E+02  0.45123931643E+02  0.00000000000E+00 0. -1.
         -1   -1    0    0    0  501 -0.00000000000E+00 -0.00000000000E+00 -0.59867838088E+03  0.59867838088E+03  0.00000000000E+00 0.  1.
         23    2    1    2    0    0  0.60808532162E+02 -0.24010257177E+02 -0.31007488073E+03  0.34098337552E+03  0.12589305257E+03 0.  0.
         24    2    1    2    0    0 -0.76334604370E+02  0.17335432000E+01 -0.25127879832E+03  0.27456758501E+03  0.80102105184E+02 0.  0.
        -11    1    4    4    0    0 -0.48782331205E+02  0.24879586100E+02 -0.22055495374E+03  0.22725139661E+03  0.00000000000E+00 0.  1.
         12    1    4    4    0    0 -0.27552273165E+02 -0.23146042900E+02 -0.30723844579E+02  0.47316188395E+02  0.00000000000E+00 0. -1.
        -13    1    3    3    0    0  0.89764290649E+02  0.16275124643E+02 -0.18071582574E+03  0.20243694631E+03  0.00000000000E+00 0.  1.
         13    1    3    3    0    0 -0.28955758487E+02 -0.40285381820E+02 -0.12935905499E+03  0.13854642921E+03  0.00000000000E+00 0. -1.
         -2    1    1    2    0  502  0.15526072208E+02  0.22276713977E+02  0.77992298182E+01  0.28251351996E+02  0.00000000000E+00 0.  1.
<scales pt_clust_5="13000.00000" pt_clust_6="13000.00000" pt_clust_7="13000.00000" pt_clust_8="13000.00000" pt_clust_9="27.15347"></scales>
<clustering>
<clus scale="   27.153">  1  9  2 -1</clus>
<clus scale="   80.102">  5  6 -1 -1</clus>
<clus scale="  106.757">  1  5  2 -1</clus>
<clus scale="  125.893">  7  8 -1 -1</clus>
<clus scale="   27.153">  1  5  2 -1</clus>
</clustering>
</event>
<event>
 9    2  0.3764910E-005  0.1109839E+03  0.7546771E-02  0.1262006E+00
         21   -1    0    0  501  502  0.00000000000E+00  0.00000000000E+00  0.33923307566E+02  0.33923307566E+02  0.00000000000E+00 0. -1.
         -1   -1    0    0    0  501 -0.00000000000E+00 -0.00000000000E+00 -0.49216974313E+03  0.49216974313E+03  0.00000000000E+00 0.  1.
         23    2    1    2    0    0  0.11899272922E+02 -0.59643447076E+02 -0.22105769212E+03  0.24605874013E+03  0.89327861670E+02 0.  0.
         24    2    1    2    0    0 -0.30967367580E+02  0.68535210187E+02 -0.12850460098E+03  0.16933246548E+03  0.80647371317E+02 0.  0.
        -13    1    4    4    0    0  0.21531674666E+02  0.14108279957E+02 -0.67273525991E+02  0.72030437154E+02  0.00000000000E+00 0.  1.
         14    1    4    4    0    0 -0.52499042246E+02  0.54426930231E+02 -0.61231074993E+02  0.97302028324E+02  0.00000000000E+00 0. -1.
        -13    1    3    3    0    0 -0.90527929693E+01 -0.71682275968E+02 -0.20417200054E+03  0.21657910230E+03  0.00000000000E+00 0.  1.
         13    1    3    3    0    0  0.20952065891E+02  0.12038828891E+02 -0.16885691584E+02  0.29479637827E+02  0.00000000000E+00 0. -1.
         -2    1    1    2    0  502  0.19068094659E+02 -0.88917631112E+01 -0.10868414246E+03  0.11070184510E+03  0.00000000000E+00 0.  1.
<scales pt_clust_5="13000.00000" pt_clust_6="13000.00000" pt_clust_7="13000.00000" pt_clust_8="13000.00000" pt_clust_9="21.03939"></scales>
<clustering>
<clus scale="   21.039">  1  9  2 -1</clus>
<clus scale="   80.647">  5  6 -1 -1</clus>
<clus scale="   89.328">  7  8 -1 -1</clus>
<clus scale="  104.125">  1  5  2 -1</clus>
<clus scale="   21.039">  1  5  2 -1</clus>
</clustering>
</event>
<event>
 9    2  0.3764910E-005  0.2026953E+03  0.7546771E-02  0.1154455E+00
         21   -1    0    0  501  502  0.00000000000E+00  0.00000000000E+00  0.16944310218E+03  0.16944310218E+03  0.00000000000E+00 0. -1.
          2   -1    0    0  502    0 -0.00000000000E+00 -0.00000000000E+00 -0.14092092887E+04  0.14092092887E+04  0.00000000000E+00 0. -1.
         23    2    1    2    0    0 -0.11784663305E+03  0.85389956575E+02  0.39588265334E+02  0.17638572102E+03  0.91462660257E+02 0.  0.
         24    2    1    2    0    0 -0.15181384931E+03  0.63682383911E+02 -0.16552151515E+03  0.24660099619E+03  0.79446765083E+02 0.  0.
        -13    1    4    4    0    0 -0.76364185103E+02 -0.99483996478E+01 -0.62242212179E+02  0.99017939783E+02  0.00000000000E+00 0.  1.
         14    1    4    4    0    0 -0.75449664203E+02  0.73630783559E+02 -0.10327930297E+03  0.14758305641E+03  0.00000000000E+00 0. -1.
        -13    1    3    3    0    0 -0.11126067159E+03  0.40216550942E+02  0.37799658806E+01  0.11836636412E+03  0.00000000000E+00 0. -1.
         13    1    3    3    0    0 -0.65859614558E+01  0.45173405633E+02  0.35808299454E+02  0.58019356896E+02  0.00000000000E+00 0.  1.
          1    1    1    2  501    0  0.26966048236E+03 -0.14907234049E+03 -0.11138329367E+04  0.11556656737E+04  0.00000000000E+00 0. -1.
<scales pt_clust_5="13000.00000" pt_clust_6="13000.00000" pt_clust_7="13000.00000" pt_clust_8="13000.00000" pt_clust_9="186.47686"></scales>
<clustering>
<clus scale="   79.447">  5  6 -1 -1</clus>
<clus scale="   91.463">  7  8 -1 -1</clus>
<clus scale="  171.886">  2  7  1 -1</clus>
<clus scale="  186.477">  1  9  2 -1</clus>
<clus scale="  186.477">  1  5  2 -1</clus>
</clustering>
</event>
<event>
 9    2  0.3764910E-005  0.1687225E+03  0.7546771E-02  0.1202989E+00
         21   -1    0    0  501  502  0.00000000000E+00  0.00000000000E+00  0.86483074026E+02  0.86483074026E+02  0.00000000000E+00 0.  1.
          2   -1    0    0  502    0 -0.00000000000E+00 -0.00000000000E+00 -0.12121262880E+04  0.12121262880E+04  0.00000000000E+00 0. -1.
         23    2    1    2    0    0 -0.60321510656E+01 -0.46464889458E+02 -0.14158890117E+03  0.17323413695E+03  0.88132153447E+02 0.  0.
         24    2    1    2    0    0  0.10928833902E+03 -0.95983838654E+02 -0.48183541676E+02  0.17311077612E+03  0.80553390945E+02 0.  0.
        -11    1    4    4    0    0  0.34714733969E+02 -0.74466971586E+02 -0.78128520950E+00  0.82164791841E+02  0.00000000000E+00 0.  1.
         12    1    4    4    0    0  0.74573605051E+02 -0.21516867068E+02 -0.47402256467E+02  0.90945984281E+02  0.00000000000E+00 0. -1.
        -11    1    3    3    0    0 -0.33869015800E+02 -0.57514284888E+02 -0.11604414399E+03  0.13387026015E+03  0.00000000000E+00 0.  1.
         11    1    3    3    0    0  0.27836864734E+02  0.11049395430E+02 -0.25544757184E+02  0.39363876806E+02  0.00000000000E+00 0. -1.
          1    1    1    2  501    0 -0.10325618795E+03  0.14244872811E+03 -0.93587077110E+03  0.95226444893E+03  0.00000000000E+00 0. -1.
<scales pt_clust_5="13000.00000" pt_clust_6="13000.00000" pt_clust_7="13000.00000" pt_clust_8="13000.00000" pt_clust_9="148.25130"></scales>
<clustering>
<clus scale="   80.553">  5  6 -1 -1</clus>
<clus scale="   88.132">  7  8 -1 -1</clus>
<clus scale="   99.813">  2  7  1 -1</clus>
<clus scale="  148.251">  1  9  2 -1</clus>
<clus scale="  148.251">  1  5  2 -1</clus>
</clustering>
</event>
<event>
 9    2  0.3764910E-005  0.1708954E+03  0.7546771E-02  0.1202726E+00
         21   -1    0    0  501  502  0.00000000000E+00  0.00000000000E+00  0.29138876042E+03  0.29138876042E+03  0.00000000000E+00 0.  1.
          2   -1    0    0  502    0 -0.00000000000E+00 -0.00000000000E+00 -0.16207334029E+03  0.16207334029E+03  0.00000000000E+00 0. -1.
         23    2    1    2    0    0 -0.11870720203E+02 -0.36626332194E+02  0.69882664172E+02  0.11922795537E+03  0.88596367769E+02 0.  0.
         24    2    1    2    0    0  0.95605594917E+02  0.13580560890E+03  0.81998521371E+02  0.20248714561E+03  0.81814995208E+02 0.  0.
        -13    1    4    4    0    0  0.66209153403E+02  0.43053746468E+02  0.67939260738E+02  0.10417782983E+03  0.00000000000E+00 0.  1.
         14    1    4    4    0    0  0.29396441514E+02  0.92751862431E+02  0.14059260633E+02  0.98309315772E+02  0.00000000000E+00 0. -1.
        -13    1    3    3    0    0  0.17745382880E+02 -0.50599683947E+02  0.67763409780E+02  0.86412420022E+02  0.00000000000E+00 0. -1.
         13    1    3    3    0    0 -0.29616103083E+02  0.13973351752E+02  0.21192543918E+01  0.32815535348E+02  0.00000000000E+00 0.  1.
          1    1    1    2  501    0 -0.83734874714E+02 -0.99179276704E+02 -0.22565765415E+02  0.13174699974E+03  0.00000000000E+00 0. -1.
<scales pt_clust_5="13000.00000" pt_clust_6="13000.00000" pt_clust_7="13000.00000" pt_clust_8="13000.00000" pt_clust_9="150.03852"></scales>
<clustering>
<clus scale="   81.815">  5  6 -1 -1</clus>
<clus scale="   88.596">  7  8 -1 -1</clus>
<clus scale="   96.601">  2  7  1 -1</clus>
<clus scale="  150.039">  1  9  2 -1</clus>
<clus scale="  150.039">  1  5  2 -1</clus>
</clustering>
</event>
<event>
 9    2  0.3764910E-005  0.1729166E+03  0.7546771E-02  0.1176262E+00
          2   -1    0    0  502    0 -0.00000000000E+00  0.00000000000E+00  0.16584819427E+04  0.16584819427E+04  0.00000000000E+00 0. -1.
         21   -1    0    0  501  502  0.00000000000E+00 -0.00000000000E+00 -0.35244124848E+02  0.35244124848E+02  0.00000000000E+00 0. -1.
         23    2    1    2    0    0 -0.85401265600E+02 -0.97635562488E+02  0.45631890952E+03  0.48311188365E+03  0.91345857652E+02 0.  0.
         24    2    1    2    0    0  0.28808465093E+02  0.18111678882E+03  0.54632055614E+03  0.58187403490E+03  0.80486170096E+02 0.  0.
        -13    1    4    4    0    0  0.55533122147E+02  0.12106078359E+03  0.39634101714E+03  0.41812180384E+03  0.00000000000E+00 0.  1.
         14    1    4    4    0    0 -0.26724657054E+02  0.60056005223E+02  0.14997953901E+03  0.16375223106E+03  0.00000000000E+00 0. -1.
        -11    1    3    3    0    0 -0.48866084512E+02 -0.49155298002E+02  0.10008204675E+03  0.12173969615E+03  0.00000000000E+00 0. -1.
         11    1    3    3    0    0 -0.36535181088E+02 -0.48480264486E+02  0.35623686277E+03  0.36137218750E+03  0.00000000000E+00 0.  1.
          1    1    1    2  501    0  0.56592800507E+02 -0.83481226330E+02  0.62059835224E+03  0.62874014905E+03  0.00000000000E+00 0. -1.
<scales pt_clust_5="13000.00000" pt_clust_6="13000.00000" pt_clust_7="13000.00000" pt_clust_8="13000.00000" pt_clust_9="100.85569"></scales>
<clustering>
<clus scale="   80.486">  5  6 -1 -1</clus>
<clus scale="   91.346">  7  8 -1 -1</clus>
<clus scale="  100.856">  2  9  1 -1</clus>
<clus scale="  167.434">  2  5  1 -1</clus>
<clus scale="  100.856">  2  5  1 -1</clus>
</clustering>
</event>
<event>
 9    2  0.3764910E-005  0.1307854E+03  0.7546771E-02  0.1230621E+00
         -1   -1    0    0    0  501 -0.00000000000E+00  0.00000000000E+00  0.31987817960E+03  0.31987817960E+03  0.00000000000E+00 0.  1.
         21   -1    0    0  501  502  0.00000000000E+00 -0.00000000000E+00 -0.15378823855E+03  0.15378823855E+03  0.00000000000E+00 0.  1.
         23    2    1    2    0    0  0.42442384395E+02  0.85449316669E+02  0.25245449198E+03  0.28551263477E+03  0.93173238543E+02 0.  0.
         24    2    1    2    0    0 -0.46623815943E+02 -0.48220666999E+02 -0.10502031129E+03  0.14630292770E+03  0.76656819211E+02 0.  0.
        -13    1    4    4    0    0 -0.13820654689E+02 -0.15723515439E+02 -0.97251540234E+02  0.99479151140E+02  0.00000000000E+00 0.  1.
         14    1    4    4    0    0 -0.32803161254E+02 -0.32497151561E+02 -0.77687710594E+01  0.46823776563E+02  0.00000000000E+00 0. -1.
        -11    1    3    3    0    0  0.49073024998E+02  0.42274518415E+02  0.22448936962E+03  0.23364668575E+03  0.00000000000E+00 0.  1.
         11    1    3    3    0    0 -0.66306406026E+01  0.43174798254E+02  0.27965122356E+02  0.51865949017E+02  0.00000000000E+00 0. -1.
         -2    1    1    2    0  502  0.41814315479E+01 -0.37228649670E+02  0.18655760372E+02  0.41850855679E+02  0.00000000000E+00 0.  1.
<scales pt_clust_5="13000.00000" pt_clust_6="13000.00000" pt_clust_7="13000.00000" pt_clust_8="13000.00000" pt_clust_9="37.46276"></scales>
<clustering>
<clus scale="   37.463">  2  9  1 -1</clus>
<clus scale="   76.657">  5  6 -1 -1</clus>
<clus scale="   93.173">  7  8 -1 -1</clus>
<clus scale="  119.582">  2  5  1 -1</clus>
<clus scale="   37.463">  2  5  1 -1</clus>
</clustering>
</event>
<event>
 9    2  0.3764910E-005  0.1506258E+03  0.7546771E-02  0.1201334E+00
         21   -1    0    0  501  502  0.00000000000E+00  0.00000000000E+00  0.11056544489E+03  0.11056544489E+03  0.00000000000E+00 0.  1.
         -1   -1    0    0    0  501 -0.00000000000E+00 -0.00000000000E+00 -0.32153841468E+03  0.32153841468E+03  0.00000000000E+00 0.  1.
         24    2    1    2    0    0 -0.61594306834E+02  0.91303559217E+02 -0.70528605389E+02  0.15383971037E+03  0.81007245044E+02 0.  0.
         23    2    1    2    0    0  0.76024299677E+02 -0.11496781148E+03 -0.33800171177E+02  0.16807701077E+03  0.90056305497E+02 0.  0.
        -11    1    3    3    0    0 -0.63541948447E+02  0.67748431825E+02 -0.85182832111E+02  0.12602993340E+03  0.00000000000E+00 0.  1.
         12    1    3    3    0    0  0.19476416126E+01  0.23555127392E+02  0.14654226722E+02  0.27809776970E+02  0.00000000000E+00 0. -1.
        -11    1    4    4    0    0  0.38970366950E+02  0.39870007614E+00  0.82142594995E+01  0.39828664566E+02  0.00000000000E+00 0. -1.
         11    1    4    4    0    0  0.37053932728E+02 -0.11536651155E+03 -0.42014430676E+02  0.12824834620E+03  0.00000000000E+00 0.  1.
         -2    1    1    2    0  502 -0.14429992843E+02  0.23664252261E+02 -0.10664419322E+03  0.11018713843E+03  0.00000000000E+00 0.  1.
<scales pt_clust_5="13000.00000" pt_clust_6="13000.00000" pt_clust_7="13000.00000" pt_clust_8="13000.00000" pt_clust_9="27.71682"></scales>
<clustering>
<clus scale="   27.717">  1  9  2 -1</clus>
<clus scale="   81.007">  5  6 -1 -1</clus>
<clus scale="   90.056">  7  8 -1 -1</clus>
<clus scale="  145.397">  2  5  1 -1</clus>
<clus scale="   27.717">  1  5  2 -1</clus>
</clustering>
</event>
<event>
 9    2  0.3764910E-005  0.3969000E+03  0.7546771E-02  0.1044858E+00
          2   -1    0    0  502    0 -0.00000000000E+00  0.00000000000E+00  0.26106195472E+04  0.26106195472E+04  0.00000000000E+00 0. -1.
         21   -1    0    0  501  502  0.00000000000E+00 -0.00000000000E+00 -0.51928696852E+02  0.51928696852E+02  0.00000000000E+00 0.  1.
         24    2    1    2    0    0  0.27430395238E+03  0.16141139414E+02  0.86228963826E+03  0.90863406825E+03  0.81050941142E+02 0.  0.
         23    2    1    2    0    0  0.52244541145E+02  0.32807708141E+02  0.32155872325E+03  0.33997578344E+03  0.91529683890E+02 0.  0.
        -11    1    3    3    0    0  0.21116839604E+03  0.44985255338E+02  0.68587133739E+03  0.71905163663E+03  0.00000000000E+00 0.  1.
         12    1    3    3    0    0  0.63135556333E+02 -0.28844115924E+02  0.17641830087E+03  0.18958243162E+03  0.00000000000E+00 0. -1.
        -11    1    4    4    0    0  0.34176664796E+02 -0.19600160305E+02  0.54648436025E+02  0.67369594481E+02  0.00000000000E+00 0.  1.
         11    1    4    4    0    0  0.18067876349E+02  0.52407868447E+02  0.26691028723E+03  0.27260618896E+03  0.00000000000E+00 0. -1.
          1    1    1    2  501    0 -0.32654849352E+03 -0.48948847555E+02  0.13748424889E+04  0.14139383924E+04  0.00000000000E+00 0. -1.
<scales pt_clust_5="13000.00000" pt_clust_6="13000.00000" pt_clust_7="13000.00000" pt_clust_8="13000.00000" pt_clust_9="330.19694"></scales>
<clustering>
<clus scale="   81.051">  5  6 -1 -1</clus>
<clus scale="   91.530">  7  8 -1 -1</clus>
<clus scale="   96.995">  5  7 -1 -1</clus>
<clus scale="  330.197">  2  9  1 -1</clus>
<clus scale="  330.197">  2  5  1 -1</clus>
</clustering>
</event>
<event>
 9    2  0.3764910E-005  0.2983452E+03  0.7546771E-02  0.1086479E+00
         21   -1    0    0  501  502  0.00000000000E+00  0.00000000000E+00  0.35420537216E+02  0.35420537216E+02  0.00000000000E+00 0.  1.
          2   -1    0    0  502    0 -0.00000000000E+00 -0.00000000000E+00 -0.29325151496E+04  0.29325151496E+04  0.00000000000E+00 0. -1.
         23    2    1    2    0    0  0.18671102560E+03 -0.22084046384E+03 -0.14560205092E+04  0.14872065459E+04  0.90310959328E+02 0.  0.
         24    2    1    2    0    0 -0.21341674386E+03  0.18303519734E+03 -0.12938054065E+04  0.13263578269E+04  0.79019397186E+02 0.  0.
        -11    1    4    4    0    0 -0.10756312630E+03  0.14246308547E+03 -0.76860314008E+03  0.78906041834E+03  0.00000000000E+00 0.  1.
         12    1    4    4    0    0 -0.10585361756E+03  0.40572111873E+02 -0.52520226643E+03  0.53729740858E+03  0.00000000000E+00 0. -1.
        -11    1    3    3    0    0  0.73664114892E+02 -0.14426529077E+03 -0.66186539355E+03  0.68139905717E+03  0.00000000000E+00 0. -1.
         11    1    3    3    0    0  0.11304691071E+03 -0.76575173078E+02 -0.79415511564E+03  0.80580748870E+03  0.00000000000E+00 0.  1.
          1    1    1    2  501    0  0.26705718257E+02  0.37805266500E+02 -0.14726869667E+03  0.15437131398E+03  0.00000000000E+00 0. -1.
<scales pt_clust_5="13000.00000" pt_clust_6="13000.00000" pt_clust_7="13000.00000" pt_clust_8="13000.00000" pt_clust_9="46.28643"></scales>
<clustering>
<clus scale="   46.286">  1  9  2 -1</clus>
<clus scale="   79.019">  5  6 -1 -1</clus>
<clus scale="   90.311">  7  8 -1 -1</clus>
<clus scale="  295.123">  1  5  2 -1</clus>
<clus scale="   46.286">  1  5  2 -1</clus>
</clustering>
</event>
<event>
 9    2  0.3764910E-005  0.1106741E+03  0.7546771E-02  0.1263980E+00
          2   -1    0    0  502    0 -0.00000000000E+00  0.00000000000E+00  0.25137687002E+03  0.25137687002E+03  0.00000000000E+00 0. -1.
         21   -1    0    0  501  502  0.00000000000E+00 -0.00000000000E+00 -0.12932895050E+03  0.12932895050E+03  0.00000000000E+00 0.  1.
         24    2    1    2    0    0 -0.42124077449E+02 -0.36051373074E+02  0.11722979684E+03  0.15098058794E+03  0.77318647589E+02 0.  0.
         23    2    1    2    0    0  0.11918068608E+03  0.20121185184E+02 -0.44361262296E+01  0.15049687313E+03  0.89558537160E+02 0.  0.
        -13    1    3    3    0    0  0.65095199919E+01  0.19739023950E+02  0.20604887411E+02  0.29267119814E+02  0.00000000000E+00 0.  1.
         14    1    3    3    0    0 -0.48633597441E+02 -0.55790397023E+02  0.96624909433E+02  0.12171346812E+03  0.00000000000E+00 0. -1.
        -11    1    4    4    0    0  0.92347437488E+01 -0.27358687686E+02 -0.10132793198E+02  0.30601499669E+02  0.00000000000E+00 0. -1.
         11    1    4    4    0    0  0.10994594233E+03  0.47479872870E+02  0.56966669689E+01  0.11989537346E+03  0.00000000000E+00 0.  1.
          1    1    1    2  501    0 -0.77056608628E+02  0.15930187889E+02  0.92542489106E+01  0.79228359458E+02  0.00000000000E+00 0. -1.
<scales pt_clust_5="13000.00000" pt_clust_6="13000.00000" pt_clust_7="13000.00000" pt_clust_8="13000.00000" pt_clust_9="78.68603"></scales>
<clustering>
<clus scale="   77.319">  5  6 -1 -1</clus>
<clus scale="   78.686">  2  9  1 -1</clus>
<clus scale="   89.559">  7  8 -1 -1</clus>
<clus scale="  101.026">  1  5  2 -1</clus>
<clus scale="   78.686">  2  5  1 -1</clus>
</clustering>
</event>
<event>
 9    2  0.3764910E-005  0.1079609E+03  0.7546771E-02  0.1268170E+00
         21   -1    0    0  501  502  0.00000000000E+00  0.00000000000E+00  0.41193113721E+02  0.41193113721E+02  0.00000000000E+00 0.  1.
          4   -1    0    0  502    0 -0.00000000000E+00 -0.00000000000E+00 -0.56382389521E+03  0.56382389521E+03  0.00000000000E+00 0. -1.
         24    2    1    2    0    0 -0.76560351483E+02  0.30191874873E+02 -0.18183326207E+03  0.21495789662E+03  0.79815571141E+02 0.  0.
         23    2    1    2    0    0  0.39344205884E+02  0.17940998388E+02 -0.96752207894E+02  0.13854384626E+03  0.89238790015E+02 0.  0.
        -11    1    3    3    0    0 -0.80302639402E+02  0.33132483991E+02 -0.18804025467E+03  0.20713621790E+03  0.00000000000E+00 0.  1.
         12    1    3    3    0    0  0.37422879184E+01 -0.29406091175E+01  0.62069925995E+01  0.78216787186E+01  0.00000000000E+00 0. -1.
        -11    1    4    4    0    0  0.64229898854E+02  0.26212833860E+02 -0.85244825625E+02  0.10990574535E+03  0.00000000000E+00 0.  1.
         11    1    4    4    0    0 -0.24885692970E+02 -0.82718354718E+01 -0.11507382269E+02  0.28638100903E+02  0.00000000000E+00 0. -1.
          3    1    1    2  501    0  0.37216145599E+02 -0.48132873262E+02 -0.24404531153E+03  0.25151526606E+03  0.00000000000E+00 0. -1.
<scales pt_clust_5="13000.00000" pt_clust_6="13000.00000" pt_clust_7="13000.00000" pt_clust_8="13000.00000" pt_clust_9="60.84257"></scales>
<clustering>
<clus scale="   60.843">  1  9  2 -1</clus>
<clus scale="   79.816">  5  6 -1 -1</clus>
<clus scale="   89.239">  7  8 -1 -1</clus>
<clus scale="  100.312">  2  5  1 -1</clus>
<clus scale="   60.843">  1  5  2 -1</clus>
</clustering>
</event>
<event>
 9    2  0.3764910E-005  0.2016366E+03  0.7546771E-02  0.1148365E+00
         21   -1    0    0  501  502  0.00000000000E+00  0.00000000000E+00  0.10616640536E+03  0.10616640536E+03  0.00000000000E+00 0. -1.
          2   -1    0    0  502    0 -0.00000000000E+00 -0.00000000000E+00 -0.22420366783E+03  0.22420366783E+03  0.00000000000E+00 0. -1.
         24    2    1    2    0    0  0.53547749980E+02 -0.14645626881E+02 -0.31697332071E+02  0.10143018812E+03  0.78749643089E+02 0.  0.
         23    2    1    2    0    0  0.49319011699E+02 -0.38573300204E+01 -0.65307850567E+02  0.12232713511E+03  0.90838145776E+02 0.  0.
        -11    1    3    3    0    0  0.25534620724E+02  0.32521838096E+02 -0.16363315766E+02  0.44468470982E+02  0.00000000000E+00 0.  1.
         12    1    3    3    0    0  0.28013129256E+02 -0.47167464977E+02 -0.15334016305E+02  0.56961717136E+02  0.00000000000E+00 0. -1.
        -13    1    4    4    0    0 -0.20366832689E+02 -0.22248289443E+02 -0.28071680145E+02  0.41204532312E+02  0.00000000000E+00 0.  1.
         13    1    4    4    0    0  0.69685844388E+02  0.18390959422E+02 -0.37236170422E+02  0.81122602795E+02  0.00000000000E+00 0. -1.
          1    1    1    2  501    0 -0.10286676168E+03  0.18502956901E+02 -0.21032079827E+02  0.10661274996E+03  0.00000000000E+00 0. -1.
<scales pt_clust_5="13000.00000" pt_clust_6="13000.00000" pt_clust_7="13000.00000" pt_clust_8="13000.00000" pt_clust_9="104.51761"></scales>
<clustering>
<clus scale="   78.750">  5  6 -1 -1</clus>
<clus scale="   90.838">  7  8 -1 -1</clus>
<clus scale="   95.228">  5  7 -1 -1</clus>
<clus scale="  104.518">  1  9  2 -1</clus>
<clus scale="  104.518">  1  5  2 -1</clus>
</clustering>
</event>
<event>
 9    2  0.3764910E-005  0.2457713E+03  0.7546771E-02  0.1135208E+00
         21   -1    0    0  501  502  0.00000000000E+00  0.00000000000E+00  0.73255548079E+02  0.73255548079E+02  0.00000000000E+00 0. -1.
          2   -1    0    0  502    0 -0.00000000000E+00 -0.00000000000E+00 -0.19743741291E+04  0.19743741291E+04  0.00000000000E+00 0. -1.
         23    2    1    2    0    0  0.70744217366E+02 -0.10302858944E+03 -0.26649511743E+03  0.30718569438E+03  0.87884974172E+02 0.  0.
         24    2    1    2    0    0  0.20463787111E+02  0.30130833143E+03 -0.13267649938E+04  0.13630707013E+04  0.80317562218E+02 0.  0.
        -11    1    4    4    0    0  0.22645658579E+02  0.13383441867E+03 -0.76194222961E+03  0.77393826546E+03  0.00000000000E+00 0.  1.
         12    1    4    4    0    0 -0.21818714680E+01  0.16747391276E+03 -0.56482276420E+03  0.58913243586E+03  0.00000000000E+00 0. -1.
        -11    1    3    3    0    0  0.62121815477E+02 -0.27186340388E+02 -0.17708886516E+03  0.18962774909E+03  0.00000000000E+00 0.  1.
         11    1    3    3    0    0  0.86224018889E+01 -0.75842249052E+02 -0.89406252268E+02  0.11755794529E+03  0.00000000000E+00 0. -1.
          1    1    1    2  501    0 -0.91208004477E+02 -0.19827974199E+03 -0.30785846977E+03  0.37737328148E+03  0.00000000000E+00 0. -1.
<scales pt_clust_5="13000.00000" pt_clust_6="13000.00000" pt_clust_7="13000.00000" pt_clust_8="13000.00000" pt_clust_9="232.27709"></scales>
<clustering>
<clus scale="   80.318">  5  6 -1 -1</clus>
<clus scale="   87.885">  7  8 -1 -1</clus>
<clus scale="  152.786">  2  7  1 -1</clus>
<clus scale="  232.277">  1  9  2 -1</clus>
<clus scale="  232.277">  1  5  2 -1</clus>
</clustering>
</event>
<event>
 9    2  0.3764910E-005  0.1023158E+03  0.7546771E-02  0.1282242E+00
         21   -1    0    0  501  502  0.00000000000E+00  0.00000000000E+00  0.94446174767E+02  0.94446174767E+02  0.00000000000E+00 0. -1.
          2   -1    0    0  502    0 -0.00000000000E+00 -0.00000000000E+00 -0.20304704324E+03  0.20304704324E+03  0.00000000000E+00 0. -1.
         24    2    1    2    0    0 -0.30599224126E+02  0.32548978773E+02 -0.34953468805E+02  0.98687983841E+02  0.80757814710E+02 0.  0.
         23    2    1    2    0    0 -0.12871616489E+02 -0.44195790881E+02  0.83411297977E+01  0.10527726412E+03  0.94312149020E+02 0.  0.
        -13    1    3    3    0    0  0.17352293212E+02  0.13825606072E+02  0.15139810333E+02  0.26860069246E+02  0.00000000000E+00 0.  1.
         14    1    3    3    0    0 -0.47951517338E+02  0.18723372701E+02 -0.50093279137E+02  0.71827914595E+02  0.00000000000E+00 0. -1.
        -11    1    4    4    0    0 -0.50284853159E+02 -0.39106551445E+02 -0.78712099479E+01  0.64186016929E+02  0.00000000000E+00 0. -1.
         11    1    4    4    0    0  0.37413236669E+02 -0.50892394355E+01  0.16212339746E+02  0.41091247196E+02  0.00000000000E+00 0.  1.
          1    1    1    2  501    0  0.43470840616E+02  0.11646812108E+02 -0.81988529468E+02  0.93527970043E+02  0.00000000000E+00 0. -1.
<scales pt_clust_5="13000.00000" pt_clust_6="13000.00000" pt_clust_7="13000.00000" pt_clust_8="13000.00000" pt_clust_9="45.00405"></scales>
<clustering>
<clus scale="   45.004">  1  9  2 -1</clus>
<clus scale="   80.758">  5  6 -1 -1</clus>
<clus scale="   89.975">  2  5  1 -1</clus>
<clus scale="   94.312">  7  8 -1 -1</clus>
<clus scale="   45.004">  1  5  2 -1</clus>
</clustering>
</event>
<event>
 9    2  0.3764910E-005  0.1344753E+03  0.7546771E-02  0.1238551E+00
         21   -1    0    0  501  502  0.00000000000E+00  0.00000000000E+00  0.44950792656E+03  0.44950792656E+03  0.00000000000E+00 0. -1.
          2   -1    0    0  502    0 -0.00000000000E+00 -0.00000000000E+00 -0.48333836366E+03  0.48333836366E+03  0.00000000000E+00 0. -1.
         24    2    1    2    0    0 -0.47680808513E+02 -0.28437616658E+01 -0.43433684439E+03  0.44428798419E+03  0.80385148030E+02 0.  0.
         23    2    1    2    0    0 -0.61463736982E+02  0.65083692188E+02  0.30532247468E+03  0.33093114534E+03  0.90994128696E+02 0.  0.
        -11    1    3    3    0    0 -0.53027844397E+02 -0.11657268043E+02 -0.14602642029E+03  0.15579332335E+03  0.00000000000E+00 0.  1.
         12    1    3    3    0    0  0.53470358832E+01  0.88135063769E+01 -0.28831042410E+03  0.28849466084E+03  0.00000000000E+00 0. -1.
        -11    1    4    4    0    0 -0.49096610328E+02  0.88465067723E+02  0.24439115903E+03  0.26450630232E+03  0.00000000000E+00 0. -1.
         11    1    4    4    0    0 -0.12367126655E+02 -0.23381375535E+02  0.60931315650E+02  0.66424843022E+02  0.00000000000E+00 0.  1.
          1    1    1    2  501    0  0.10914454550E+03 -0.62239930522E+02  0.95183932600E+02  0.15762716069E+03  0.00000000000E+00 0. -1.
<scales pt_clust_5="13000.00000" pt_clust_6="13000.00000" pt_clust_7="13000.00000" pt_clust_8="13000.00000" pt_clust_9="99.01358"></scales>
<clustering>
<clus scale="   80.385">  5  6 -1 -1</clus>
<clus scale="   90.994">  7  8 -1 -1</clus>
<clus scale="   93.506">  2  5  1 -1</clus>
<clus scale="   99.014">  1  9  2 -1</clus>
<clus scale="   99.014">  1  5  2 -1</clus>
</clustering>
</event>
<event>
 9    2  0.3764910E-005  0.8406175E+02  0.7546771E-02  0.1319652E+00
         21   -1    0    0  501  502  0.00000000000E+00  0.00000000000E+00  0.32635856059E+02  0.32635856059E+02  0.00000000000E+00 0. -1.
          2   -1    0    0  502    0 -0.00000000000E+00 -0.00000000000E+00 -0.35162277239E+03  0.35162277239E+03  0.00000000000E+00 0. -1.
         23    2    1    2    0    0  0.10667733858E+01 -0.13390927294E+02 -0.12211481200E+03  0.14627796265E+03  0.79402519521E+02 0.  0.
         24    2    1    2    0    0  0.37125769971E+02 -0.44865481096E+01 -0.14919771730E+03  0.17433224341E+03  0.82056811627E+02 0.  0.
        -13    1    4    4    0    0 -0.95281049857E+01  0.26053746927E+02 -0.21854514496E+02  0.35315751690E+02  0.00000000000E+00 0.  1.
         14    1    4    4    0    0  0.46653874956E+02 -0.30540295037E+02 -0.12734320280E+03  0.13901649172E+03  0.00000000000E+00 0. -1.
        -13    1    3    3    0    0 -0.30408827985E+02  0.71492508569E+01 -0.94805410151E+02  0.99819208578E+02  0.00000000000E+00 0.  1.
         13    1    3    3    0    0  0.31475601371E+02 -0.20540178151E+02 -0.27309401854E+02  0.46458754070E+02  0.00000000000E+00 0. -1.
          1    1    1    2  501    0 -0.38192543356E+02  0.17877475404E+02 -0.47674387027E+02  0.63648422394E+02  0.00000000000E+00 0. -1.
<scales pt_clust_5="13000.00000" pt_clust_6="13000.00000" pt_clust_7="13000.00000" pt_clust_8="13000.00000" pt_clust_9="42.16959"></scales>
<clustering>
<clus scale="   42.170">  1  9  2 -1</clus>
<clus scale="   79.403">  7  8 -1 -1</clus>
<clus scale="   81.473">  2  7  1 -1</clus>
<clus scale="   82.057">  5  6 -1 -1</clus>
<clus scale="   42.170">  1  5  2 -1</clus>
</clustering>
</event>
<event>
 9    2  0.3764910E-005  0.2165826E+03  0.7546771E-02  0.1136457E+00
         21   -1    0    0  501  502  0.00000000000E+00  0.00000000000E+00  0.10989774058E+03  0.10989774058E+03  0.00000000000E+00 0.  1.
         -3   -1    0    0    0  501 -0.00000000000E+00 -0.00000000000E+00 -0.39902566947E+03  0.39902566947E+03  0.00000000000E+00 0.  1.
         24    2    1    2    0    0 -0.73635405891E+02  0.10176975149E+02 -0.12902755332E+03  0.16932834476E+03  0.80611630677E+02 0.  0.
         23    2    1    2    0    0 -0.49683200877E+02  0.10121188894E+02 -0.18501627730E+03  0.21215764379E+03  0.90603443855E+02 0.  0.
        -11    1    3    3    0    0 -0.28267503616E+02  0.42025317457E+02 -0.83215115155E+02  0.97416294624E+02  0.00000000000E+00 0.  1.
         12    1    3    3    0    0 -0.45367902275E+02 -0.31848342308E+02 -0.45812438167E+02  0.71912050140E+02  0.00000000000E+00 0. -1.
        -13    1    4    4    0    0 -0.32115816006E+02 -0.28766395932E+02 -0.33081702487E+02  0.54344550897E+02  0.00000000000E+00 0. -1.
         13    1    4    4    0    0 -0.17567384871E+02  0.38887584826E+02 -0.15193457482E+03  0.15781309290E+03  0.00000000000E+00 0.  1.
         -4    1    1    2    0  502  0.12331860677E+03 -0.20298164043E+02  0.24915901733E+02  0.12743742150E+03  0.00000000000E+00 0.  1.
<scales pt_clust_5="13000.00000" pt_clust_6="13000.00000" pt_clust_7="13000.00000" pt_clust_8="13000.00000" pt_clust_9="124.97798"></scales>
<clustering>
<clus scale="   80.612">  5  6 -1 -1</clus>
<clus scale="   90.603">  7  8 -1 -1</clus>
<clus scale="   97.748">  5  7 -1 -1</clus>
<clus scale="  124.978">  1  9  2 -1</clus>
<clus scale="  124.978">  1  5  2 -1</clus>
</clustering>
</event>
<event>
 9    2  0.3764910E-005  0.1126876E+03  0.7546771E-02  0.1260180E+00
         21   -1    0    0  501  502  0.00000000000E+00  0.00000000000E+00  0.49963165146E+02  0.49963165146E+02  0.00000000000E+00 0. -1.
         -3   -1    0    0    0  501 -0.00000000000E+00 -0.00000000000E+00 -0.34663930725E+03  0.34663930725E+03  0.00000000000E+00 0.  1.
         24    2    1    2    0    0 -0.53926500574E+02 -0.26693357619E+02 -0.19941386120E+03  0.22350599568E+03  0.81045908340E+02 0.  0.
         23    2    1    2    0    0  0.73437495470E+02  0.16237215288E+02 -0.72234327606E+02  0.13968378032E+03  0.92935717027E+02 0.  0.
        -13    1    3    3    0    0 -0.73635570124E+02 -0.85416839203E+01 -0.14827890612E+03  0.16577632989E+03  0.00000000000E+00 0.  1.
         14    1    3    3    0    0  0.19709069550E+02 -0.18151673699E+02 -0.51134955080E+02  0.57729665784E+02  0.00000000000E+00 0. -1.
        -13    1    4    4    0    0  0.47758051620E+02 -0.11912165369E+02  0.89262503781E+01  0.50024085440E+02  0.00000000000E+00 0. -1.
         13    1    4    4    0    0  0.25679443850E+02  0.28149380656E+02 -0.81160577984E+02  0.89659694883E+02  0.00000000000E+00 0.  1.
         -4    1    1    2    0  502 -0.19510994896E+02  0.10456142332E+02 -0.25027953295E+02  0.33412696395E+02  0.00000000000E+00 0.  1.
<scales pt_clust_5="13000.00000" pt_clust_6="13000.00000" pt_clust_7="13000.00000" pt_clust_8="13000.00000" pt_clust_9="22.13618"></scales>
<clustering>
<clus scale="   22.136">  1  9  2 -1</clus>
<clus scale="   81.046">  5  6 -1 -1</clus>
<clus scale="   92.936">  7  8 -1 -1</clus>
<clus scale="  103.101">  2  5  1 -1</clus>
<clus scale="   22.136">  1  5  2 -1</clus>
</clustering>
</event>
<event>
 9    2  0.3764910E-005  0.1865827E+03  0.7546771E-02  0.1169022E+00
         21   -1    0    0  501  502  0.00000000000E+00  0.00000000000E+00  0.35899552561E+03  0.35899552561E+03  0.00000000000E+00 0.  1.
          2   -1    0    0  502    0 -0.00000000000E+00 -0.00000000000E+00 -0.46803266904E+03  0.46803266904E+03  0.00000000000E+00 0. -1.
         24    2    1    2    0    0  0.93594063961E+02 -0.97581741303E+02  0.18010883533E+03  0.23903538680E+03  0.80104173004E+02 0.  0.
         23    2    1    2    0    0  0.11855349572E+03  0.70260248489E+02  0.48737406326E+02  0.18809502971E+03  0.11837639782E+03 0.  0.
        -11    1    3    3    0    0  0.95788959814E+02 -0.78195767986E+02  0.18134034280E+03  0.21948672598E+03  0.00000000000E+00 0.  1.
         12    1    3    3    0    0 -0.21948958533E+01 -0.19385973317E+02 -0.12315074683E+01  0.19548660821E+02  0.00000000000E+00 0. -1.
        -11    1    4    4    0    0  0.26352445260E+02  0.13285320003E+02  0.71495580742E+02  0.77347069527E+02  0.00000000000E+00 0. -1.
         11    1    4    4    0    0  0.92201050458E+02  0.56974928486E+02 -0.22758174417E+02  0.11074796018E+03  0.00000000000E+00 0.  1.
          1    1    1    2  501    0 -0.21214755968E+03  0.27321492815E+02 -0.33788338509E+03  0.39989777815E+03  0.00000000000E+00 0. -1.
<scales pt_clust_5="13000.00000" pt_clust_6="13000.00000" pt_clust_7="13000.00000" pt_clust_8="13000.00000" pt_clust_9="144.22255"></scales>
<clustering>
<clus scale="   80.104">  5  6 -1 -1</clus>
<clus scale="  118.376">  7  8 -1 -1</clus>
<clus scale="  157.158">  2  5  1 -1</clus>
<clus scale="  144.223">  1  9  2 -1</clus>
<clus scale="  144.223">  1  5  2 -1</clus>
</clustering>
</event>
<event>
 9    2  0.3764910E-005  0.1989089E+03  0.7546771E-02  0.1151518E+00
         -3   -1    0    0    0  501 -0.00000000000E+00  0.00000000000E+00  0.88606579864E+02  0.88606579864E+02  0.00000000000E+00 0.  1.
         21   -1    0    0  501  502  0.00000000000E+00 -0.00000000000E+00 -0.63711424805E+03  0.63711424805E+03  0.00000000000E+00 0.  1.
         23    2    1    2    0    0 -0.13103822490E+03 -0.15255707200E+03 -0.14436088819E+03  0.26358883961E+03  0.90522559206E+02 0.  0.
         24    2    1    2    0    0  0.93631194243E+02  0.10709053190E+03 -0.27381117735E+03  0.31911499096E+03  0.81404140296E+02 0.  0.
        -13    1    4    4    0    0  0.23312949713E+02  0.62352034416E+02 -0.18824020725E+03  0.19966383109E+03  0.00000000000E+00 0.  1.
         14    1    4    4    0    0  0.70318244530E+02  0.44738497483E+02 -0.85570970096E+02  0.11945115987E+03  0.00000000000E+00 0. -1.
        -13    1    3    3    0    0 -0.22829621991E+02  0.10145422163E+02 -0.13259534458E+02  0.28283148430E+02  0.00000000000E+00 0. -1.
         13    1    3    3    0    0 -0.10820860290E+03 -0.16270249417E+03 -0.13110135373E+03  0.23530569118E+03  0.00000000000E+00 0.  1.
         -4    1    1    2    0  502  0.37407030653E+02  0.45466540105E+02 -0.13033560266E+03  0.14301699735E+03  0.00000000000E+00 0.  1.
<scales pt_clust_5="13000.00000" pt_clust_6="13000.00000" pt_clust_7="13000.00000" pt_clust_8="13000.00000" pt_clust_9="58.87692"></scales>
<clustering>
<clus scale="   58.877">  2  9  1 -1</clus>
<clus scale="   81.404">  5  6 -1 -1</clus>
<clus scale="   90.523">  7  8 -1 -1</clus>
<clus scale="  194.928">  2  5  1 -1</clus>
<clus scale="   58.877">  2  5  1 -1</clus>
</clustering>
</event>
<event>
 9    2  0.3764910E-005  0.1610255E+03  0.7546771E-02  0.1189363E+00
         21   -1    0    0  501  502  0.00000000000E+00  0.00000000000E+00  0.10949520542E+03  0.10949520542E+03  0.00000000000E+00 0. -1.
          2   -1    0    0  502    0 -0.00000000000E+00 -0.00000000000E+00 -0.38960448115E+03  0.38960448115E+03  0.00000000000E+00 0. -1.
         23    2    1    2    0    0 -0.51729340540E+02 -0.11943460005E+03 -0.25246291552E+03  0.29849449357E+03  0.91765410766E+02 0.  0.
         24    2    1    2    0    0  0.84081560578E+02  0.11468517001E+03 -0.10147176386E+02  0.16351820524E+03  0.80080217319E+02 0.  0.
        -13    1    4    4    0    0 -0.65603299220E+01  0.21271543345E+02  0.19984028669E+02  0.29914509637E+02  0.00000000000E+00 0.  1.
         14    1    4    4    0    0  0.90641890500E+02  0.93413626669E+02 -0.30131205054E+02  0.13360369560E+03  0.00000000000E+00 0. -1.
        -13    1    3    3    0    0  0.18659753245E+02 -0.71905147235E+02 -0.11478354440E+03  0.13672526707E+03  0.00000000000E+00 0. -1.
         13    1    3    3    0    0 -0.70389093785E+02 -0.47529452820E+02 -0.13767937113E+03  0.16176922650E+03  0.00000000000E+00 0.  1.
          1    1    1    2  501    0 -0.32352220037E+02  0.47494300406E+01 -0.17499183819E+02  0.37086987763E+02  0.00000000000E+00 0. -1.
<scales pt_clust_5="13000.00000" pt_clust_6="13000.00000" pt_clust_7="13000.00000" pt_clust_8="13000.00000" pt_clust_9="32.69898"></scales>
<clustering>
<clus scale="   32.699">  1  9  2 -1</clus>
<clus scale="   80.080">  5  6 -1 -1</clus>
<clus scale="   91.765">  7  8 -1 -1</clus>
<clus scale="  154.665">  1  5  2 -1</clus>
<clus scale="   32.699">  1  5  2 -1</clus>
</clustering>
</event>
<event>
 9    2  0.3764910E-005  0.8880141E+02  0.7546771E-02  0.1306632E+00
         -1   -1    0    0    0  501 -0.00000000000E+00  0.00000000000E+00  0.31841462662E+03  0.31841462662E+03  0.00000000000E+00 0.  1.
         21   -1    0    0  501  502  0.00000000000E+00 -0.00000000000E+00 -0.49535177710E+02  0.49535177710E+02  0.00000000000E+00 0. -1.
         23    2    1    2    0    0  0.14906772309E+02  0.27097468154E+02  0.20890494921E+03  0.22588634468E+03  0.80167813160E+02 0.  0.
         24    2    1    2    0    0 -0.49681023527E+01 -0.53966779665E+02  0.35036406385E+02  0.10408128542E+03  0.81659468850E+02 0.  0.
        -11    1    4    4    0    0  0.25657470463E+02 -0.19106742469E+02  0.46352016154E+02  0.56319470877E+02  0.00000000000E+00 0.  1.
         12    1    4    4    0    0 -0.30625572816E+02 -0.34860037196E+02 -0.11315609768E+02  0.47761814538E+02  0.00000000000E+00 0. -1.
        -11    1    3    3    0    0 -0.14702642480E+02 -0.17603795694E+02  0.23312031546E+02  0.32703396361E+02  0.00000000000E+00 0. -1.
         11    1    3    3    0    0  0.29609414788E+02  0.44701263848E+02  0.18559291767E+03  0.19318294832E+03  0.00000000000E+00 0.  1.
         -2    1    1    2    0  502 -0.99386699562E+01  0.26869311511E+02  0.24938093315E+02  0.37982174237E+02  0.00000000000E+00 0.  1.
<scales pt_clust_5="13000.00000" pt_clust_6="13000.00000" pt_clust_7="13000.00000" pt_clust_8="13000.00000" pt_clust_9="28.64851"></scales>
<clustering>
<clus scale="   28.649">  2  9  1 -1</clus>
<clus scale="   80.168">  7  8 -1 -1</clus>
<clus scale="   81.659">  5  6 -1 -1</clus>
<clus scale="   87.432">  1  7  2 -1</clus>
<clus scale="   28.649">  2  5  1 -1</clus>
</clustering>
</event>
<event>
 9    2  0.3764910E-005  0.1352609E+03  0.7546771E-02  0.1224108E+00
          2   -1    0    0  502    0 -0.00000000000E+00  0.00000000000E+00  0.50254344956E+03  0.50254344956E+03  0.00000000000E+00 0. -1.
         21   -1    0    0  501  502  0.00000000000E+00 -0.00000000000E+00 -0.10708025730E+03  0.10708025730E+03  0.00000000000E+00 0. -1.
         23    2    1    2    0    0 -0.96588323866E+02  0.14262830581E+02  0.33478774459E+03  0.36194879782E+03  0.96909058754E+02 0.  0.
         24    2    1    2    0    0  0.89270264717E+02  0.44417689460E+02  0.11154007285E+03  0.16967383523E+03  0.80036936539E+02 0.  0.
        -13    1    4    4    0    0  0.82530821645E+02  0.40071965428E+02  0.44162171160E+02  0.10182041198E+03  0.00000000000E+00 0.  1.
         14    1    4    4    0    0  0.67394430716E+01  0.43457240318E+01  0.67377901688E+02  0.67853423245E+02  0.00000000000E+00 0. -1.
        -11    1    3    3    0    0 -0.45194285962E+02 -0.30238786359E+02  0.23496358910E+03  0.24117378773E+03  0.00000000000E+00 0. -1.
         11    1    3    3    0    0 -0.51394037904E+02  0.44501616940E+02  0.99824155492E+02  0.12077501009E+03  0.00000000000E+00 0.  1.
          1    1    1    2  501    0  0.73180591492E+01 -0.58680520041E+02 -0.50864625177E+02  0.78001073816E+02  0.00000000000E+00 0. -1.
<scales pt_clust_5="13000.00000" pt_clust_6="13000.00000" pt_clust_7="13000.00000" pt_clust_8="13000.00000" pt_clust_9="59.13508"></scales>
<clustering>
<clus scale="   59.135">  2  9  1 -1</clus>
<clus scale="   80.037">  5  6 -1 -1</clus>
<clus scale="   96.909">  7  8 -1 -1</clus>
<clus scale="  123.734">  2  5  1 -1</clus>
<clus scale="   59.135">  2  5  1 -1</clus>
</clustering>
</event>
<event>
 9    2  0.3764910E-005  0.9674180E+02  0.7546771E-02  0.1293578E+00
         21   -1    0    0  501  502  0.00000000000E+00  0.00000000000E+00  0.29937820229E+02  0.29937820229E+02  0.00000000000E+00 0. -1.
          2   -1    0    0  502    0 -0.00000000000E+00 -0.00000000000E+00 -0.59108809118E+03  0.59108809118E+03  0.00000000000E+00 0. -1.
         24    2    1    2    0    0  0.41018593331E+02 -0.23279845705E+02 -0.34580626554E+03  0.35804536431E+03  0.79937684488E+02 0.  0.
         23    2    1    2    0    0  0.14779188697E+02  0.15974820398E+02 -0.14701196581E+03  0.17445923040E+03  0.91377708858E+02 0.  0.
        -13    1    3    3    0    0  0.44624997601E+02 -0.20257466036E+02 -0.92371845894E+02  0.10456726665E+03  0.00000000000E+00 0.  1.
         14    1    3    3    0    0 -0.36064042701E+01 -0.30223796685E+01 -0.25343441965E+03  0.25347809766E+03  0.00000000000E+00 0. -1.
        -13    1    4    4    0    0  0.83436725077E+00  0.53626663943E+02 -0.79176423201E+02  0.95631695819E+02  0.00000000000E+00 0.  1.
         13    1    4    4    0    0  0.13944821447E+02 -0.37651843545E+02 -0.67835542607E+02  0.78827534582E+02  0.00000000000E+00 0. -1.
          1    1    1    2  501    0 -0.55797782028E+02  0.73050253068E+01 -0.68332039604E+02  0.88521316700E+02  0.00000000000E+00 0. -1.
<scales pt_clust_5="13000.00000" pt_clust_6="13000.00000" pt_clust_7="13000.00000" pt_clust_8="13000.00000" pt_clust_9="56.27394"></scales>
<clustering>
<clus scale="   56.274">  1  9  2 -1</clus>
<clus scale="   79.938">  5  6 -1 -1</clus>
<clus scale="   86.018">  2  5  1 -1</clus>
<clus scale="   91.378">  7  8 -1 -1</clus>
<clus scale="   56.274">  1  5  2 -1</clus>
</clustering>
</event>
<event>
 9    2  0.3764910E-005  0.9309901E+02  0.7546771E-02  0.1300702E+00
         21   -1    0    0  501  502  0.00000000000E+00  0.00000000000E+00  0.10260454975E+03  0.10260454975E+03  0.00000000000E+00 0. -1.
          2   -1    0    0  502    0 -0.00000000000E+00 -0.00000000000E+00 -0.53480056203E+03  0.53480056203E+03  0.00000000000E+00 0. -1.
         24    2    1    2    0    0  0.30354916561E+02 -0.58537037415E+01 -0.46211637215E+03  0.46990849251E+03  0.79415131569E+02 0.  0.
         23    2    1    2    0    0  0.15273007410E+02  0.42654144350E+02  0.41618184834E+02  0.10772188394E+03  0.88426750392E+02 0.  0.
        -13    1    3    3    0    0 -0.93571311848E+01 -0.17693662603E+02 -0.31621943400E+02  0.37424175404E+02  0.00000000000E+00 0.  1.
         14    1    3    3    0    0  0.39712047746E+02  0.11839958862E+02 -0.43049442875E+03  0.43248431711E+03  0.00000000000E+00 0. -1.
        -11    1    4    4    0    0 -0.19171381832E+02  0.55290997129E+02  0.40214109637E+02  0.71005710043E+02  0.00000000000E+00 0.  1.
         11    1    4    4    0    0  0.34444389242E+02 -0.12636852779E+02  0.14040751979E+01  0.36716173896E+02  0.00000000000E+00 0. -1.
          1    1    1    2  501    0 -0.45627923971E+02 -0.36800440609E+02 -0.11697824958E+02  0.59774735329E+02  0.00000000000E+00 0. -1.
<scales pt_clust_5="13000.00000" pt_clust_6="13000.00000" pt_clust_7="13000.00000" pt_clust_8="13000.00000" pt_clust_9="58.61894"></scales>
<clustering>
<clus scale="   58.619">  1  9  2 -1</clus>
<clus scale="   79.415">  5  6 -1 -1</clus>
<clus scale="   84.587">  2  5  1 -1</clus>
<clus scale="   88.427">  7  8 -1 -1</clus>
<clus scale="   58.619">  1  5  2 -1</clus>
</clustering>
</event>
<event>
 9    2  0.3764910E-005  0.1537931E+03  0.7546771E-02  0.1197874E+00
         21   -1    0    0  501  502  0.00000000000E+00  0.00000000000E+00  0.10426108224E+03  0.10426108224E+03  0.00000000000E+00 0. -1.
          2   -1    0    0  502    0 -0.00000000000E+00 -0.00000000000E+00 -0.71136555865E+03  0.71136555865E+03  0.00000000000E+00 0. -1.
         23    2    1    2    0    0 -0.74461423119E+02  0.82879223680E+02 -0.42245495500E+03  0.44655432063E+03  0.92353142982E+02 0.  0.
         24    2    1    2    0    0  0.14672528446E+03 -0.69333403886E+02 -0.22194212257E+03  0.28663268786E+03  0.81021984570E+02 0.  0.
        -13    1    4    4    0    0  0.71341790414E+02 -0.32880792574E+02 -0.44154844353E+02  0.90113527618E+02  0.00000000000E+00 0.  1.
         14    1    4    4    0    0  0.75383494048E+02 -0.36452611311E+02 -0.17778727822E+03  0.19651916024E+03  0.00000000000E+00 0. -1.
        -11    1    3    3    0    0 -0.26593696285E+01  0.32703307365E+02 -0.30054489483E+02  0.44495515476E+02  0.00000000000E+00 0. -1.
         11    1    3    3    0    0 -0.71802053490E+02  0.50175916315E+02 -0.39240046552E+03  0.40205880515E+03  0.00000000000E+00 0.  1.
          1    1    1    2  501    0 -0.72263861343E+02 -0.13545819794E+02  0.37292601151E+02  0.82439632403E+02  0.00000000000E+00 0. -1.
<scales pt_clust_5="13000.00000" pt_clust_6="13000.00000" pt_clust_7="13000.00000" pt_clust_8="13000.00000" pt_clust_9="73.52248"></scales>
<clustering>
<clus scale="   73.522">  1  9  2 -1</clus>
<clus scale="   81.022">  5  6 -1 -1</clus>
<clus scale="   92.353">  7  8 -1 -1</clus>
<clus scale="  147.268">  1  5  2 -1</clus>
<clus scale="   73.522">  1  5  2 -1</clus>
</clustering>
</event>
<event>
 9    2  0.3764910E-005  0.1007036E+03  0.7546771E-02  0.1286751E+00
         21   -1    0    0  501  502  0.00000000000E+00  0.00000000000E+00  0.21333581371E+03  0.21333581371E+03  0.00000000000E+00 0.  1.
          4   -1    0    0  502    0 -0.00000000000E+00 -0.00000000000E+00 -0.11434737866E+03  0.11434737866E+03  0.00000000000E+00 0. -1.
         23    2    1    2    0    0  0.25715865889E+02  0.27040871073E+02 -0.65115756604E+02  0.12062103654E+03  0.94429117490E+02 0.  0.
         24    2    1    2    0    0 -0.39258879910E+02  0.76371881039E+01  0.10961706997E+03  0.14107103942E+03  0.79281459615E+02 0.  0.
        -13    1    4    4    0    0 -0.51662506221E+02 -0.14045107912E+02  0.10158952529E+03  0.11483340652E+03  0.00000000000E+00 0.  1.
         14    1    4    4    0    0  0.12403626310E+02  0.21682296016E+02  0.80275446833E+01  0.26237632893E+02  0.00000000000E+00 0. -1.
        -11    1    3    3    0    0 -0.28726597876E+02 -0.15165803745E+02 -0.24104541172E+02  0.40450561601E+02  0.00000000000E+00 0.  1.
         11    1    3    3    0    0  0.54442463765E+02  0.42206674817E+02 -0.41011215432E+02  0.80170474934E+02  0.00000000000E+00 0. -1.
          3    1    1    2  501    0  0.13543014022E+02 -0.34678059176E+02  0.54487121676E+02  0.65991116414E+02  0.00000000000E+00 0. -1.
<scales pt_clust_5="13000.00000" pt_clust_6="13000.00000" pt_clust_7="13000.00000" pt_clust_8="13000.00000" pt_clust_9="37.22877"></scales>
<clustering>
<clus scale="   37.229">  1  9  2 -1</clus>
<clus scale="   79.281">  5  6 -1 -1</clus>
<clus scale="   86.660">  1  5  2 -1</clus>
<clus scale="   94.429">  7  8 -1 -1</clus>
<clus scale="   37.229">  1  5  2 -1</clus>
</clustering>
</event>
<event>
 9    2  0.3764910E-005  0.9433313E+02  0.7546771E-02  0.1311751E+00
          2   -1    0    0  502    0 -0.00000000000E+00  0.00000000000E+00  0.42757500857E+03  0.42757500857E+03  0.00000000000E+00 0. -1.
         21   -1    0    0  501  502  0.00000000000E+00 -0.00000000000E+00 -0.35446728365E+02  0.35446728365E+02  0.00000000000E+00 0. -1.
         24    2    1    2    0    0 -0.10614622457E+02 -0.22961996403E+02  0.22684898660E+03  0.23692329269E+03  0.63500081961E+02 0.  0.
         23    2    1    2    0    0 -0.17121019713E+02 -0.49403293859E+01  0.54722386643E+02  0.10875009399E+03  0.92274087218E+02 0.  0.
        -11    1    3    3    0    0  0.24967113147E+02 -0.11671406144E+02  0.61189549443E+02  0.67109905538E+02  0.00000000000E+00 0.  1.
         12    1    3    3    0    0 -0.35581735604E+02 -0.11290590259E+02  0.16565943716E+03  0.16981338715E+03  0.00000000000E+00 0. -1.
        -11    1    4    4    0    0  0.33050299125E+01 -0.40932083178E+02  0.11846475397E+01  0.41082381209E+02  0.00000000000E+00 0. -1.
         11    1    4    4    0    0 -0.20426049626E+02  0.35991753792E+02  0.53537739103E+02  0.67667712778E+02  0.00000000000E+00 0.  1.
          1    1    1    2  501    0  0.27735642170E+02  0.27902325789E+02  0.11055690697E+03  0.11734835026E+03  0.00000000000E+00 0. -1.
<scales pt_clust_5="13000.00000" pt_clust_6="13000.00000" pt_clust_7="13000.00000" pt_clust_8="13000.00000" pt_clust_9="39.34218"></scales>
<clustering>
<clus scale="   39.342">  2  9  1 -1</clus>
<clus scale="   63.500">  5  6 -1 -1</clus>
<clus scale="   66.457">  1  5  2 -1</clus>
<clus scale="   92.274">  7  8 -1 -1</clus>
<clus scale="   39.342">  2  5  1 -1</clus>
</clustering>
</event>
<event>
 9    2  0.3764910E-005  0.1078242E+03  0.7546771E-02  0.1270272E+00
          2   -1    0    0  502    0 -0.00000000000E+00  0.00000000000E+00  0.10184377041E+03  0.10184377041E+03  0.00000000000E+00 0. -1.
         21   -1    0    0  501  502  0.00000000000E+00 -0.00000000000E+00 -0.15985619669E+03  0.15985619669E+03  0.00000000000E+00 0.  1.
         23    2    1    2    0    0  0.32080202905E+00 -0.47147595781E+02  0.21363295651E+02  0.10710431860E+03  0.93765377196E+02 0.  0.
         24    2    1    2    0    0  0.19284814683E+02  0.64268950595E+02 -0.53142838525E+02  0.11764047065E+03  0.80701406187E+02 0.  0.
        -11    1    4    4    0    0  0.36276082606E+02  0.15916188013E+02  0.52336756579E+01  0.39958360464E+02  0.00000000000E+00 0.  1.
         12    1    4    4    0    0 -0.16991267923E+02  0.48352762583E+02 -0.58376514182E+02  0.77682110187E+02  0.00000000000E+00 0. -1.
        -11    1    3    3    0    0  0.48848876688E+01 -0.74181401286E+02  0.27039085346E+02  0.79106602510E+02  0.00000000000E+00 0.  1.
         11    1    3    3    0    0 -0.45640856397E+01  0.27033805505E+02 -0.56757896951E+01  0.27997716094E+02  0.00000000000E+00 0. -1.
          1    1    1    2  501    0 -0.19605616712E+02 -0.17121354814E+02 -0.26232883414E+02  0.36955177845E+02  0.00000000000E+00 0. -1.
<scales pt_clust_5="13000.00000" pt_clust_6="13000.00000" pt_clust_7="13000.00000" pt_clust_8="13000.00000" pt_clust_9="26.02923"></scales>
<clustering>
<clus scale="   26.029">  2  9  1 -1</clus>
<clus scale="   80.701">  5  6 -1 -1</clus>
<clus scale="   93.765">  7  8 -1 -1</clus>
<clus scale="   96.679">  2  5  1 -1</clus>
<clus scale="   26.029">  2  5  1 -1</clus>
</clustering>
</event>
<event>
 9    2  0.3764910E-005  0.9292216E+02  0.7546771E-02  0.1301931E+00
         21   -1    0    0  501  502  0.00000000000E+00  0.00000000000E+00  0.47333087655E+02  0.47333087655E+02  0.00000000000E+00 0.  1.
          2   -1    0    0  502    0 -0.00000000000E+00 -0.00000000000E+00 -0.38226249054E+03  0.38226249054E+03  0.00000000000E+00 0. -1.
         24    2    1    2    0    0 -0.11866538715E+02  0.19615352002E+02 -0.28002586636E+03  0.29227612227E+03  0.80531168169E+02 0.  0.
         23    2    1    2    0    0  0.25277563314E+02  0.76049132154E+01 -0.33192084542E+02  0.10000745294E+03  0.90570338716E+02 0.  0.
        -13    1    3    3    0    0  0.22143785792E+02 -0.21161266600E+02 -0.10119831096E+03  0.10573194689E+03  0.00000000000E+00 0.  1.
         14    1    3    3    0    0 -0.34010324507E+02  0.40776618602E+02 -0.17882755540E+03  0.18654417538E+03  0.00000000000E+00 0. -1.
        -11    1    4    4    0    0  0.32683754835E+02 -0.17331260173E+02  0.19076627224E+02  0.41623528389E+02  0.00000000000E+00 0.  1.
         11    1    4    4    0    0 -0.74061915217E+01  0.24936173389E+02 -0.52268711767E+02  0.58383924550E+02  0.00000000000E+00 0. -1.
          1    1    1    2  501    0 -0.13411024598E+02 -0.27220265217E+02 -0.21711451985E+02  0.37312002982E+02  0.00000000000E+00 0. -1.
<scales pt_clust_5="13000.00000" pt_clust_6="13000.00000" pt_clust_7="13000.00000" pt_clust_8="13000.00000" pt_clust_9="30.34466"></scales>
<clustering>
<clus scale="   30.345">  1  9  2 -1</clus>
<clus scale="   80.531">  5  6 -1 -1</clus>
<clus scale="   83.167">  2  5  1 -1</clus>
<clus scale="   90.570">  7  8 -1 -1</clus>
<clus scale="   30.345">  1  5  2 -1</clus>
</clustering>
</event>
<event>
 9    2  0.3764910E-005  0.1207344E+03  0.7546771E-02  0.1255021E+00
          2   -1    0    0  502    0 -0.00000000000E+00  0.00000000000E+00  0.11724369933E+04  0.11724369933E+04  0.00000000000E+00 0. -1.
         21   -1    0    0  501  502  0.00000000000E+00 -0.00000000000E+00 -0.18862392514E+02  0.18862392514E+02  0.00000000000E+00 0. -1.
         24    2    1    2    0    0 -0.44424189075E+02 -0.13407852966E+02  0.37657492340E+03  0.38784411124E+03  0.80380984068E+02 0.  0.
         23    2    1    2    0    0 -0.39202687873E+02 -0.35193847175E+02  0.45910150478E+03  0.47116800736E+03  0.91921933441E+02 0.  0.
        -11    1    3    3    0    0 -0.37108799959E+01  0.23727905027E+02  0.39003984446E+02  0.45804965997E+02  0.00000000000E+00 0.  1.
         12    1    3    3    0    0 -0.40713309079E+02 -0.37135757993E+02  0.33757093895E+03  0.34203914525E+03  0.00000000000E+00 0. -1.
        -11    1    4    4    0    0 -0.54097562220E+02  0.12768512433E+02  0.22894914405E+03  0.23559985507E+03  0.00000000000E+00 0. -1.
         11    1    4    4    0    0  0.14894874347E+02 -0.47962359608E+02  0.23015236074E+03  0.23556815229E+03  0.00000000000E+00 0.  1.
          1    1    1    2  501    0  0.83626876947E+02  0.48601700141E+02  0.31789817259E+03  0.33228726719E+03  0.00000000000E+00 0. -1.
<scales pt_clust_5="13000.00000" pt_clust_6="13000.00000" pt_clust_7="13000.00000" pt_clust_8="13000.00000" pt_clust_9="78.27623"></scales>
<clustering>
<clus scale="   80.381">  5  6 -1 -1</clus>
<clus scale="   91.922">  7  8 -1 -1</clus>
<clus scale="   92.814">  1  5  2 -1</clus>
<clus scale="   78.276">  2  9  1 -1</clus>
<clus scale="   78.276">  2  5  1 -1</clus>
</clustering>
</event>
<event>
 9    2  0.3764910E-005  0.1017770E+03  0.7546771E-02  0.1284382E+00
         21   -1    0    0  501  502  0.00000000000E+00  0.00000000000E+00  0.81398477877E+02  0.81398477877E+02  0.00000000000E+00 0. -1.
          2   -1    0    0  502    0 -0.00000000000E+00 -0.00000000000E+00 -0.32701358533E+03  0.32701358533E+03  0.00000000000E+00 0. -1.
         23    2    1    2    0    0 -0.26945021970E+02  0.42467949681E+02 -0.27301871993E+03  0.29211369096E+03  0.90893487419E+02 0.  0.
         24    2    1    2    0    0  0.91640013383E+01 -0.26002987089E+02  0.11783790139E+00  0.79804904583E+02  0.74891085261E+02 0.  0.
        -11    1    4    4    0    0 -0.41898752078E+01 -0.48770456715E+02  0.12690969824E+02  0.50568500250E+02  0.00000000000E+00 0.  1.
         12    1    4    4    0    0  0.13353876546E+02  0.22767469626E+02 -0.12573131922E+02  0.29236404333E+02  0.00000000000E+00 0. -1.
        -13    1    3    3    0    0 -0.48031535839E+02 -0.81242219885E+01 -0.14058907349E+03  0.14878951241E+03  0.00000000000E+00 0. -1.
         13    1    3    3    0    0  0.21086513869E+02  0.50592171669E+02 -0.13242964644E+03  0.14332417856E+03  0.00000000000E+00 0.  1.
          1    1    1    2  501    0  0.17781020632E+02 -0.16464962591E+02  0.27285774577E+02  0.36493467663E+02  0.00000000000E+00 0. -1.
<scales pt_clust_5="13000.00000" pt_clust_6="13000.00000" pt_clust_7="13000.00000" pt_clust_8="13000.00000" pt_clust_9="24.23344"></scales>
<clustering>
<clus scale="   24.233">  1  9  2 -1</clus>
<clus scale="   74.891">  5  6 -1 -1</clus>
<clus scale="   87.782">  1  5  2 -1</clus>
<clus scale="   90.893">  7  8 -1 -1</clus>
<clus scale="   24.233">  1  5  2 -1</clus>
</clustering>
</event>
<event>
 9    2  0.3764910E-005  0.1340414E+03  0.7546771E-02  0.1227245E+00
         21   -1    0    0  501  502  0.00000000000E+00  0.00000000000E+00  0.37980554936E+02  0.37980554936E+02  0.00000000000E+00 0. -1.
          2   -1    0    0  502    0 -0.00000000000E+00 -0.00000000000E+00 -0.63747607954E+03  0.63747607954E+03  0.00000000000E+00 0. -1.
         23    2    1    2    0    0 -0.17838044026E+02  0.82738928873E+02 -0.26170885452E+03  0.28896750601E+03  0.88581989328E+02 0.  0.
         24    2    1    2    0    0  0.15400114145E+01 -0.11754980706E+03 -0.31397509148E+03  0.34127392767E+03  0.63774656887E+02 0.  0.
        -11    1    4    4    0    0  0.25387024574E+02 -0.85576595930E+02 -0.17174449195E+03  0.19355625876E+03  0.00000000000E+00 0.  1.
         12    1    4    4    0    0 -0.23847013160E+02 -0.31973211128E+02 -0.14223059953E+03  0.14771766891E+03  0.00000000000E+00 0. -1.
        -11    1    3    3    0    0 -0.49846294660E+01  0.99453450243E+02 -0.19418938491E+03  0.21823233607E+03  0.00000000000E+00 0.  1.
         11    1    3    3    0    0 -0.12853414560E+02 -0.16714521370E+02 -0.67519469608E+02  0.70735169942E+02  0.00000000000E+00 0. -1.
          1    1    1    2  501    0  0.16298032612E+02  0.34810878184E+02 -0.23811578602E+02  0.45215200790E+02  0.00000000000E+00 0. -1.
<scales pt_clust_5="13000.00000" pt_clust_6="13000.00000" pt_clust_7="13000.00000" pt_clust_8="13000.00000" pt_clust_9="38.43726"></scales>
<clustering>
<clus scale="   38.437">  1  9  2 -1</clus>
<clus scale="   63.775">  5  6 -1 -1</clus>
<clus scale="   88.582">  7  8 -1 -1</clus>
<clus scale="  119.111">  1  5  2 -1</clus>
<clus scale="   38.437">  1  5  2 -1</clus>
</clustering>
</event>
<event>
 9    2  0.3764910E-005  0.9399330E+02  0.7546771E-02  0.1299981E+00
         21   -1    0    0  501  502  0.00000000000E+00  0.00000000000E+00  0.61713648611E+03  0.61713648611E+03  0.00000000000E+00 0.  1.
          2   -1    0    0  502    0 -0.00000000000E+00 -0.00000000000E+00 -0.36950789784E+02  0.36950789784E+02  0.00000000000E+00 0. -1.
         23    2    1    2    0    0 -0.96046456027E+01 -0.40648644574E+01  0.16133490858E+03  0.18604227005E+03  0.92054338187E+02 0.  0.
         24    2    1    2    0    0 -0.65987601795E+02  0.24885573760E+02  0.34107072954E+03  0.35760304255E+03  0.81098940291E+02 0.  0.
        -11    1    4    4    0    0 -0.71668288069E+02  0.10725358278E+02  0.33207791044E+03  0.33989279990E+03  0.00000000000E+00 0.  1.
         12    1    4    4    0    0  0.56806862744E+01  0.14160215482E+02  0.89928191031E+01  0.17710242643E+02  0.00000000000E+00 0. -1.
        -11    1    3    3    0    0  0.11397481751E+02  0.38214224875E+02  0.10630112734E+03  0.11353483715E+03  0.00000000000E+00 0.  1.
         11    1    3    3    0    0 -0.21002127354E+02 -0.42279089333E+02  0.55033781236E+02  0.72507432897E+02  0.00000000000E+00 0. -1.
          1    1    1    2  501    0  0.75592247398E+02 -0.20820709303E+02  0.77780058206E+02  0.11044196330E+03  0.00000000000E+00 0. -1.
<scales pt_clust_5="13000.00000" pt_clust_6="13000.00000" pt_clust_7="13000.00000" pt_clust_8="13000.00000" pt_clust_9="78.40724"></scales>
<clustering>
<clus scale="   78.407">  1  9  2 -1</clus>
<clus scale="   81.099">  5  6 -1 -1</clus>
<clus scale="   83.293">  1  5  2 -1</clus>
<clus scale="   92.054">  7  8 -1 -1</clus>
<clus scale="   78.407">  1  5  2 -1</clus>
</clustering>
</event>
<event>
 9    2  0.3764910E-005  0.1252848E+03  0.7546771E-02  0.1237184E+00
         21   -1    0    0  501  502  0.00000000000E+00  0.00000000000E+00  0.20127816246E+02  0.20127816246E+02  0.00000000000E+00 0. -1.
         -3   -1    0    0    0  501 -0.00000000000E+00 -0.00000000000E+00 -0.10289233988E+04  0.10289233988E+04  0.00000000000E+00 0.  1.
         23    2    1    2    0    0 -0.54629130767E+02 -0.78093030107E+02 -0.61672838162E+03  0.63057833639E+03  0.90511205677E+02 0.  0.
         24    2    1    2    0    0  0.39601166508E+02  0.59146738092E+02 -0.22481948202E+03  0.24948589344E+03  0.81442142112E+02 0.  0.
        -11    1    4    4    0    0  0.29556247890E+02 -0.14740030336E+02 -0.81271529384E+02  0.87726288945E+02  0.00000000000E+00 0.  1.
         12    1    4    4    0    0  0.10044918618E+02  0.73886768428E+02 -0.14354795264E+03  0.16175960449E+03  0.00000000000E+00 0. -1.
        -11    1    3    3    0    0 -0.71664320238E+02 -0.26824521014E+02 -0.39687709945E+03  0.40418654331E+03  0.00000000000E+00 0.  1.
         11    1    3    3    0    0  0.17035189471E+02 -0.51268509093E+02 -0.21985128216E+03  0.22639179308E+03  0.00000000000E+00 0. -1.
         -4    1    1    2    0  502  0.15027964259E+02  0.18946292015E+02 -0.16724771896E+03  0.16898698526E+03  0.00000000000E+00 0.  1.
<scales pt_clust_5="13000.00000" pt_clust_6="13000.00000" pt_clust_7="13000.00000" pt_clust_8="13000.00000" pt_clust_9="24.18269"></scales>
<clustering>
<clus scale="   24.183">  1  9  2 -1</clus>
<clus scale="   81.442">  5  6 -1 -1</clus>
<clus scale="   90.511">  7  8 -1 -1</clus>
<clus scale="  118.898">  1  5  2 -1</clus>
<clus scale="   24.183">  1  5  2 -1</clus>
</clustering>
</event>
<event>
 9    2  0.3764910E-005  0.1545193E+03  0.7546771E-02  0.1198952E+00
         21   -1    0    0  501  502  0.00000000000E+00  0.00000000000E+00  0.24539692074E+03  0.24539692074E+03  0.00000000000E+00 0.  1.
         -3   -1    0    0    0  501 -0.00000000000E+00 -0.00000000000E+00 -0.27022913072E+03  0.27022913072E+03  0.00000000000E+00 0.  1.
         24    2    1    2    0    0 -0.11169084514E+03 -0.28593355362E+02 -0.16031022359E+03  0.21327267881E+03  0.80581901697E+02 0.  0.
         23    2    1    2    0    0  0.13527491685E+03 -0.18771903347E+02  0.16899646465E+03  0.23971821694E+03  0.10125873288E+03 0.  0.
        -13    1    3    3    0    0 -0.96792625380E+02 -0.27635390454E+02 -0.16847576301E+03  0.19625648997E+03  0.00000000000E+00 0.  1.
         14    1    3    3    0    0 -0.14898219757E+02 -0.95796490792E+00  0.81655394183E+01  0.17016188842E+02  0.00000000000E+00 0. -1.
        -11    1    4    4    0    0  0.13945515618E+03  0.74440218300E+01  0.15829985718E+03  0.21109713127E+03  0.00000000000E+00 0.  1.
         11    1    4    4    0    0 -0.41802393269E+01 -0.26215925177E+02  0.10696607472E+02  0.28621085674E+02  0.00000000000E+00 0. -1.
         -4    1    1    2    0  502 -0.23584071711E+02  0.47365258710E+02 -0.33518451031E+02  0.62635155708E+02  0.00000000000E+00 0.  1.
<scales pt_clust_5="13000.00000" pt_clust_6="13000.00000" pt_clust_7="13000.00000" pt_clust_8="13000.00000" pt_clust_9="52.91199"></scales>
<clustering>
<clus scale="   52.912">  1  9  2 -1</clus>
<clus scale="   80.582">  5  6 -1 -1</clus>
<clus scale="  101.259">  7  8 -1 -1</clus>
<clus scale="  141.832">  2  5  1 -1</clus>
<clus scale="   52.912">  1  5  2 -1</clus>
</clustering>
</event>
<event>
 9    2  0.3764910E-005  0.9652529E+02  0.7546771E-02  0.1293798E+00
          2   -1    0    0  502    0 -0.00000000000E+00  0.00000000000E+00  0.43240403342E+03  0.43240403342E+03  0.00000000000E+00 0. -1.
         21   -1    0    0  501  502  0.00000000000E+00 -0.00000000000E+00 -0.46655746634E+02  0.46655746634E+02  0.00000000000E+00 0.  1.
         23    2    1    2    0    0  0.15865601769E+01 -0.64246221247E+01  0.17443902225E+03  0.19750974630E+03  0.92397697256E+02 0.  0.
         24    2    1    2    0    0 -0.70713299866E+02  0.28664271283E+02  0.10892390112E+03  0.15602764221E+03  0.81597779835E+02 0.  0.
        -13    1    4    4    0    0 -0.61382348135E+02 -0.15217360361E+02  0.43723373024E+02  0.76883639791E+02  0.00000000000E+00 0.  1.
         14    1    4    4    0    0 -0.93309517311E+01  0.43881631643E+02  0.65200528091E+02  0.79144002421E+02  0.00000000000E+00 0. -1.
        -11    1    3    3    0    0 -0.26169427448E+02 -0.40503440224E+02  0.10104453903E+03  0.11196145082E+03  0.00000000000E+00 0. -1.
         11    1    3    3    0    0  0.27755987624E+02  0.34078818099E+02  0.73394483223E+02  0.85548295480E+02  0.00000000000E+00 0.  1.
          1    1    1    2  501    0  0.69126739689E+02 -0.22239649158E+02  0.10238536342E+03  0.12552239154E+03  0.00000000000E+00 0. -1.
<scales pt_clust_5="13000.00000" pt_clust_6="13000.00000" pt_clust_7="13000.00000" pt_clust_8="13000.00000" pt_clust_9="72.61621"></scales>
<clustering>
<clus scale="   72.616">  2  9  1 -1</clus>
<clus scale="   81.598">  5  6 -1 -1</clus>
<clus scale="   86.244">  2  5  1 -1</clus>
<clus scale="   92.398">  7  8 -1 -1</clus>
<clus scale="   72.616">  2  5  1 -1</clus>
</clustering>
</event>
<event>
 9    2  0.3764910E-005  0.1040735E+03  0.7546771E-02  0.1276157E+00
          4   -1    0    0  502    0 -0.00000000000E+00  0.00000000000E+00  0.37902205079E+03  0.37902205079E+03  0.00000000000E+00 0. -1.
         21   -1    0    0  501  502  0.00000000000E+00 -0.00000000000E+00 -0.11100234039E+03  0.11100234039E+03  0.00000000000E+00 0.  1.
         23    2    1    2    0    0  0.10339674820E+02  0.46672159191E+02  0.32054490395E+03  0.33738650526E+03  0.93783896079E+02 0.  0.
         24    2    1    2    0    0  0.32140287058E+02 -0.31498389091E+02 -0.22810998981E+02  0.98621926985E+02  0.84739578948E+02 0.  0.
        -11    1    4    4    0    0  0.35252365930E+02  0.16395626920E+02 -0.31262121766E+02  0.49888537191E+02  0.00000000000E+00 0.  1.
         12    1    4    4    0    0 -0.31120788720E+01 -0.47894016011E+02  0.84511227843E+01  0.48733389794E+02  0.00000000000E+00 0. -1.
        -11    1    3    3    0    0 -0.40800158838E+02  0.23251026571E+02  0.17945893060E+03  0.18550140423E+03  0.00000000000E+00 0. -1.
         11    1    3    3    0    0  0.51139833657E+02  0.23421132620E+02  0.14108597335E+03  0.15188510104E+03  0.00000000000E+00 0.  1.
          3    1    1    2  501    0 -0.42479961877E+02 -0.15173770100E+02 -0.29714194568E+02  0.54015958929E+02  0.00000000000E+00 0. -1.
<scales pt_clust_5="13000.00000" pt_clust_6="13000.00000" pt_clust_7="13000.00000" pt_clust_8="13000.00000" pt_clust_9="45.10865"></scales>
<clustering>
<clus scale="   45.109">  2  9  1 -1</clus>
<clus scale="   84.740">  5  6 -1 -1</clus>
<clus scale="   93.784">  7  8 -1 -1</clus>
<clus scale="   96.004">  2  5  1 -1</clus>
<clus scale="   45.109">  2  5  1 -1</clus>
</clustering>
</event>
<event>
 9    2  0.3764910E-005  0.1356836E+03  0.7546771E-02  0.1232061E+00
         21   -1    0    0  501  502  0.00000000000E+00  0.00000000000E+00  0.80124296719E+02  0.80124296719E+02  0.00000000000E+00 0. -1.
         -1   -1    0    0    0  501 -0.00000000000E+00 -0.00000000000E+00 -0.38526831208E+03  0.38526831208E+03  0.00000000000E+00 0.  1.
         24    2    1    2    0    0  0.61398824360E+02 -0.11166566253E+02 -0.59670976878E+02  0.11986973828E+03  0.83148186028E+02 0.  0.
         23    2    1    2    0    0  0.59045942675E+02  0.38828732039E+02 -0.14701745758E+03  0.18751768474E+03  0.92491380559E+02 0.  0.
        -13    1    3    3    0    0  0.62830775879E+02  0.11683858317E+02 -0.69971520898E+02  0.94764089610E+02  0.00000000000E+00 0.  1.
         14    1    3    3    0    0 -0.14319515187E+01 -0.22850424570E+02  0.10300544020E+02  0.25105648674E+02  0.00000000000E+00 0. -1.
        -11    1    4    4    0    0  0.45008619883E+02  0.70696345432E+01 -0.10636153652E+02  0.46785503747E+02  0.00000000000E+00 0.  1.
         11    1    4    4    0    0  0.14037322791E+02  0.31759097495E+02 -0.13638130393E+03  0.14073218099E+03  0.00000000000E+00 0. -1.
         -2    1    1    2    0  502 -0.12044476703E+03 -0.27662165786E+02 -0.98455580900E+02  0.15800518578E+03  0.00000000000E+00 0.  1.
<scales pt_clust_5="13000.00000" pt_clust_6="13000.00000" pt_clust_7="13000.00000" pt_clust_8="13000.00000" pt_clust_9="99.27431"></scales>
<clustering>
<clus scale="   83.148">  5  6 -1 -1</clus>
<clus scale="   92.491">  7  8 -1 -1</clus>
<clus scale="  103.962">  2  5  1 -1</clus>
<clus scale="   99.274">  1  9  2 -1</clus>
<clus scale="   99.274">  1  5  2 -1</clus>
</clustering>
</event>
<event>
 9    2  0.3764910E-005  0.9223395E+02  0.7546771E-02  0.1306399E+00
         -3   -1    0    0    0  501 -0.00000000000E+00  0.00000000000E+00  0.21510095236E+03  0.21510095236E+03  0.00000000000E+00 0.  1.
         21   -1    0    0  501  502  0.00000000000E+00 -0.00000000000E+00 -0.53354206460E+02  0.53354206460E+02  0.00000000000E+00 0. -1.
         24    2    1    2    0    0 -0.86071340352E+01 -0.20926532484E+01  0.11518447653E+03  0.13877118106E+03  0.76886377894E+02 0.  0.
         23    2    1    2    0    0  0.31745616046E+02  0.45042712806E+00  0.45223645550E+02  0.10644869919E+03  0.90984396570E+02 0.  0.
        -13    1    3    3    0    0  0.28556869889E+02  0.18289371402E+02  0.62947084557E+02  0.71500569077E+02  0.00000000000E+00 0.  1.
         14    1    3    3    0    0 -0.37164003924E+02 -0.20382024650E+02  0.52237391978E+02  0.67270611988E+02  0.00000000000E+00 0. -1.
        -11    1    4    4    0    0  0.20654693180E+02 -0.25301864882E+02 -0.17994985899E+02  0.37291020828E+02  0.00000000000E+00 0. -1.
         11    1    4    4    0    0  0.11090922866E+02  0.25752292010E+02  0.63218631449E+02  0.69157678360E+02  0.00000000000E+00 0.  1.
         -4    1    1    2    0  502 -0.23138482010E+02  0.16422261204E+01  0.13386238159E+01  0.23235278567E+02  0.00000000000E+00 0.  1.
<scales pt_clust_5="13000.00000" pt_clust_6="13000.00000" pt_clust_7="13000.00000" pt_clust_8="13000.00000" pt_clust_9="23.19669"></scales>
<clustering>
<clus scale="   23.197">  2  9  1 -1</clus>
<clus scale="   76.886">  5  6 -1 -1</clus>
<clus scale="   78.361">  1  5  2 -1</clus>
<clus scale="   90.984">  7  8 -1 -1</clus>
<clus scale="   23.197">  2  5  1 -1</clus>
</clustering>
</event>
<event>
 9    2  0.3764910E-005  0.9308794E+02  0.7546771E-02  0.1305369E+00
         -1   -1    0    0    0  501 -0.00000000000E+00  0.00000000000E+00  0.26287618220E+03  0.26287618220E+03  0.00000000000E+00 0.  1.
         21   -1    0    0  501  502  0.00000000000E+00 -0.00000000000E+00 -0.10041880982E+03  0.10041880982E+03  0.00000000000E+00 0.  1.
         24    2    1    2    0    0  0.81833207906E+01 -0.23899144922E+02  0.16178076284E+03  0.18004272772E+03  0.74861423397E+02 0.  0.
         23    2    1    2    0    0  0.18256459585E+02  0.12036378134E+02  0.64290040043E+02  0.11334907579E+03  0.90755886968E+02 0.  0.
        -11    1    3    3    0    0  0.11580849053E+02 -0.50687371254E+02  0.10496383454E+03  0.11713552933E+03  0.00000000000E+00 0.  1.
         12    1    3    3    0    0 -0.33975282621E+01  0.26788226332E+02  0.56816928296E+02  0.62907198390E+02  0.00000000000E+00 0. -1.
        -13    1    4    4    0    0  0.22555037872E+02 -0.37342291219E+02  0.26769662150E+02  0.51183896476E+02  0.00000000000E+00 0.  1.
         13    1    4    4    0    0 -0.42985782870E+01  0.49378669352E+02  0.37520377893E+02  0.62165179317E+02  0.00000000000E+00 0. -1.
         -2    1    1    2    0  502 -0.26439780375E+02  0.11862766788E+02 -0.63613430501E+02  0.69903188498E+02  0.00000000000E+00 0.  1.
<scales pt_clust_5="13000.00000" pt_clust_6="13000.00000" pt_clust_7="13000.00000" pt_clust_8="13000.00000" pt_clust_9="28.97908"></scales>
<clustering>
<clus scale="   28.979">  2  9  1 -1</clus>
<clus scale="   74.861">  5  6 -1 -1</clus>
<clus scale="   77.672">  1  5  2 -1</clus>
<clus scale="   90.756">  7  8 -1 -1</clus>
<clus scale="   28.979">  2  5  1 -1</clus>
</clustering>
</event>
<event>
 9    2  0.3764910E-005  0.1595070E+03  0.7546771E-02  0.1207929E+00
         21   -1    0    0  501  502  0.00000000000E+00  0.00000000000E+00  0.51217548598E+02  0.51217548598E+02  0.00000000000E+00 0.  1.
         -3   -1    0    0    0  501 -0.00000000000E+00 -0.00000000000E+00 -0.87657918997E+03  0.87657918997E+03  0.00000000000E+00 0.  1.
         23    2    1    2    0    0 -0.30997665933E+02  0.45849365083E+02 -0.26124192482E+03  0.28201011741E+03  0.90660594893E+02 0.  0.
         24    2    1    2    0    0  0.11461706849E+03  0.70134805909E+02 -0.39146140013E+03  0.42160939967E+03  0.80352316141E+02 0.  0.
        -11    1    4    4    0    0  0.94466938506E+02  0.13372828576E+02 -0.21717162051E+03  0.23720528613E+03  0.00000000000E+00 0.  1.
         12    1    4    4    0    0  0.20150129983E+02  0.56761977333E+02 -0.17428977962E+03  0.18440411354E+03  0.00000000000E+00 0. -1.
        -11    1    3    3    0    0 -0.44336765492E+02  0.51231140993E+01 -0.52467995246E+02  0.68883129992E+02  0.00000000000E+00 0. -1.
         11    1    3    3    0    0  0.13339099559E+02  0.40726250984E+02 -0.20877392958E+03  0.21312698742E+03  0.00000000000E+00 0.  1.
         -4    1    1    2    0  502 -0.83619402556E+02 -0.11598417099E+03 -0.17265831642E+03  0.22417722149E+03  0.00000000000E+00 0.  1.
<scales pt_clust_5="13000.00000" pt_clust_6="13000.00000" pt_clust_7="13000.00000" pt_clust_8="13000.00000" pt_clust_9="137.78963"></scales>
<clustering>
<clus scale="   80.352">  5  6 -1 -1</clus>
<clus scale="   90.661">  7  8 -1 -1</clus>
<clus scale="  106.218">  2  7  1 -1</clus>
<clus scale="  137.790">  1  9  2 -1</clus>
<clus scale="  137.790">  1  5  2 -1</clus>
</clustering>
</event>
<event>
 9    2  0.3764910E-005  0.1135434E+03  0.7546771E-02  0.1258037E+00
         21   -1    0    0  501  502  0.00000000000E+00  0.00000000000E+00  0.38717701389E+02  0.38717701389E+02  0.00000000000E+00 0. -1.
          2   -1    0    0  502    0 -0.00000000000E+00 -0.00000000000E+00 -0.87733984322E+03  0.87733984322E+03  0.00000000000E+00 0. -1.
         24    2    1    2    0    0 -0.49037326639E+02 -0.48584913025E+02 -0.75756439751E+03  0.76504899198E+03  0.81430894550E+02 0.  0.
         23    2    1    2    0    0  0.38472146833E+02  0.30204965091E+02 -0.76593936261E+02  0.12934357876E+03  0.92036320528E+02 0.  0.
        -11    1    3    3    0    0 -0.43030043970E+02 -0.25026508609E+02 -0.17405428060E+03  0.18103260317E+03  0.00000000000E+00 0.  1.
         12    1    3    3    0    0 -0.60072826687E+01 -0.23558404416E+02 -0.58351011691E+03  0.58401638881E+03  0.00000000000E+00 0. -1.
        -13    1    4    4    0    0  0.53292066856E+02  0.46448030838E+02 -0.80367132329E+02  0.10703429318E+03  0.00000000000E+00 0.  1.
         13    1    4    4    0    0 -0.14819920023E+02 -0.16243065747E+02  0.37731960683E+01  0.22309285576E+02  0.00000000000E+00 0. -1.
          1    1    1    2  501    0  0.10565179806E+02  0.18379947934E+02 -0.44638080688E+01  0.21664973872E+02  0.00000000000E+00 0. -1.
<scales pt_clust_5="13000.00000" pt_clust_6="13000.00000" pt_clust_7="13000.00000" pt_clust_8="13000.00000" pt_clust_9="21.20013"></scales>
<clustering>
<clus scale="   21.200">  1  9  2 -1</clus>
<clus scale="   81.431">  5  6 -1 -1</clus>
<clus scale="   92.036">  7  8 -1 -1</clus>
<clus scale="  105.130">  2  5  1 -1</clus>
<clus scale="   21.200">  1  5  2 -1</clus>
</clustering>
</event>
<event>
 9    2  0.3764910E-005  0.1010316E+03  0.7546771E-02  0.1283976E+00
          2   -1    0    0  502    0 -0.00000000000E+00  0.00000000000E+00  0.91717264574E+03  0.91717264574E+03  0.00000000000E+00 0. -1.
         21   -1    0    0  501  502  0.00000000000E+00 -0.00000000000E+00 -0.14726916702E+02  0.14726916702E+02  0.00000000000E+00 0.  1.
         24    2    1    2    0    0 -0.21962153562E+02 -0.45647760358E+02  0.57104379159E+03  0.57882405380E+03  0.79876273933E+02 0.  0.
         23    2    1    2    0    0  0.96464684886E+01  0.21859508834E+02  0.24870054387E+03  0.26614405570E+03  0.91704991047E+02 0.  0.
        -11    1    3    3    0    0 -0.46591971236E+02 -0.51029820679E+02  0.39814793747E+03  0.40409978284E+03  0.00000000000E+00 0.  1.
         12    1    3    3    0    0  0.24629817675E+02  0.53820603217E+01  0.17289585412E+03  0.17472427096E+03  0.00000000000E+00 0. -1.
        -11    1    4    4    0    0  0.13432450636E+02  0.52957332356E+02  0.20638600784E+03  0.21349495079E+03  0.00000000000E+00 0. -1.
         11    1    4    4    0    0 -0.37859821469E+01 -0.31097823522E+02  0.42314536033E+02  0.52649104914E+02  0.00000000000E+00 0.  1.
          1    1    1    2  501    0  0.12315685073E+02  0.23788251524E+02  0.82701393578E+02  0.86931452933E+02  0.00000000000E+00 0. -1.
<scales pt_clust_5="13000.00000" pt_clust_6="13000.00000" pt_clust_7="13000.00000" pt_clust_8="13000.00000" pt_clust_9="26.78725"></scales>
<clustering>
<clus scale="   26.787">  2  9  1 -1</clus>
<clus scale="   79.876">  5  6 -1 -1</clus>
<clus scale="   90.431">  1  5  2 -1</clus>
<clus scale="   91.705">  7  8 -1 -1</clus>
<clus scale="   26.787">  2  5  1 -1</clus>
</clustering>
</event>
<event>
 9    2  0.3764910E-005  0.2671870E+03  0.7546771E-02  0.1103596E+00
          2   -1    0    0  502    0 -0.00000000000E+00  0.00000000000E+00  0.11722884122E+04  0.11722884122E+04  0.00000000000E+00 0. -1.
         21   -1    0    0  501  502  0.00000000000E+00 -0.00000000000E+00 -0.12131418618E+03  0.12131418618E+03  0.00000000000E+00 0. -1.
         23    2    1    2    0    0  0.14110966152E+03  0.19549145642E+03  0.47238139995E+03  0.53831794576E+03  0.92266882468E+02 0.  0.
         24    2    1    2    0    0 -0.27757989780E+03 -0.11306813652E+03  0.28295190022E+03  0.41939585244E+03  0.77434488712E+02 0.  0.
        -13    1    4    4    0    0 -0.11378805644E+03 -0.60140017451E+02  0.17115247906E+03  0.21414414439E+03  0.00000000000E+00 0.  1.
         14    1    4    4    0    0 -0.16379184136E+03 -0.52928119068E+02  0.11179942116E+03  0.20525170804E+03  0.00000000000E+00 0. -1.
        -11    1    3    3    0    0  0.94591811560E+02  0.18687431441E+03  0.36202529182E+03  0.41824864867E+03  0.00000000000E+00 0. -1.
         11    1    3    3    0    0  0.46517849962E+02  0.86171420158E+01  0.11035610813E+03  0.12006929709E+03  0.00000000000E+00 0.  1.
          1    1    1    2  501    0  0.13647023628E+03 -0.82423319906E+02  0.29564092582E+03  0.33588880016E+03  0.00000000000E+00 0. -1.
<scales pt_clust_5="13000.00000" pt_clust_6="13000.00000" pt_clust_7="13000.00000" pt_clust_8="13000.00000" pt_clust_9="159.42947"></scales>
<clustering>
<clus scale="   77.434">  5  6 -1 -1</clus>
<clus scale="   92.267">  7  8 -1 -1</clus>
<clus scale="  159.429">  2  9  1 -1</clus>
<clus scale="  262.434">  2  5  1 -1</clus>
<clus scale="  159.429">  2  5  1 -1</clus>
</clustering>
</event>
<event>
 9    2  0.3764910E-005  0.9488405E+02  0.7546771E-02  0.1305068E+00
         -3   -1    0    0    0  501 -0.00000000000E+00  0.00000000000E+00  0.48025285219E+03  0.48025285219E+03  0.00000000000E+00 0.  1.
         21   -1    0    0  501  502  0.00000000000E+00 -0.00000000000E+00 -0.38691002975E+02  0.38691002975E+02  0.00000000000E+00 0.  1.
         23    2    1    2    0    0 -0.45153597418E+01  0.15774763788E+02  0.25547028724E+03  0.27291012121E+03  0.94581366816E+02 0.  0.
         24    2    1    2    0    0  0.34929687656E+01  0.26180960311E+02  0.18850781994E+03  0.20399605597E+03  0.73359042801E+02 0.  0.
        -13    1    4    4    0    0 -0.10434839380E+02  0.37061968046E+02  0.18055544872E+03  0.18461512779E+03  0.00000000000E+00 0.  1.
         14    1    4    4    0    0  0.13927808146E+02 -0.10881007734E+02  0.79523712205E+01  0.19380928179E+02  0.00000000000E+00 0. -1.
        -11    1    3    3    0    0 -0.42967918383E+02 -0.11670851948E+02  0.84248378541E+02  0.95290293745E+02  0.00000000000E+00 0. -1.
         11    1    3    3    0    0  0.38452558641E+02  0.27445615735E+02  0.17122190870E+03  0.17761982746E+03  0.00000000000E+00 0.  1.
         -4    1    1    2    0  502  0.10223909761E+01 -0.41955724099E+02 -0.24162579627E+01  0.42037677987E+02  0.00000000000E+00 0.  1.
<scales pt_clust_5="13000.00000" pt_clust_6="13000.00000" pt_clust_7="13000.00000" pt_clust_8="13000.00000" pt_clust_9="41.96818"></scales>
<clustering>
<clus scale="   41.968">  2  9  1 -1</clus>
<clus scale="   73.359">  5  6 -1 -1</clus>
<clus scale="   73.749">  2  5  1 -1</clus>
<clus scale="   94.581">  7  8 -1 -1</clus>
<clus scale="   41.968">  2  5  1 -1</clus>
</clustering>
</event>
<event>
 9    2  0.3764910E-005  0.1308967E+03  0.7546771E-02  0.1228542E+00
          2   -1    0    0  502    0 -0.00000000000E+00  0.00000000000E+00  0.18861773265E+04  0.18861773265E+04  0.00000000000E+00 0. -1.
         21   -1    0    0  501  502  0.00000000000E+00 -0.00000000000E+00 -0.13331276801E+02  0.13331276801E+02  0.00000000000E+00 0. -1.
         24    2    1    2    0    0  0.37484770459E+01 -0.10209032531E+03  0.10384274940E+04  0.10466860655E+04  0.82362454652E+02 0.  0.
         23    2    1    2    0    0  0.34585929445E+02  0.75880956521E+02  0.49720375319E+03  0.51242529809E+03  0.91727901191E+02 0.  0.
        -11    1    3    3    0    0 -0.68428920762E+01 -0.71890456536E+02  0.34285940290E+03  0.35038212436E+03  0.00000000000E+00 0.  1.
         12    1    3    3    0    0  0.10591369122E+02 -0.30199868773E+02  0.69556809108E+03  0.69630394118E+03  0.00000000000E+00 0. -1.
        -13    1    4    4    0    0  0.60516631567E+02  0.24259697139E+02  0.29583196358E+03  0.30293125668E+03  0.00000000000E+00 0.  1.
         13    1    4    4    0    0 -0.25930702122E+02  0.51621259382E+02  0.20137178961E+03  0.20949404141E+03  0.00000000000E+00 0. -1.
          1    1    1    2  501    0 -0.38334406491E+02  0.26209368789E+02  0.33721480257E+03  0.34039723972E+03  0.00000000000E+00 0. -1.
<scales pt_clust_5="13000.00000" pt_clust_6="13000.00000" pt_clust_7="13000.00000" pt_clust_8="13000.00000" pt_clust_9="46.43770"></scales>
<clustering>
<clus scale="   46.438">  2  9  1 -1</clus>
<clus scale="   82.362">  5  6 -1 -1</clus>
<clus scale="   91.728">  7  8 -1 -1</clus>
<clus scale="  124.513">  1  5  2 -1</clus>
<clus scale="   46.438">  2  5  1 -1</clus>
</clustering>
</event>
<event>
 9    2  0.3764910E-005  0.1374360E+03  0.7546771E-02  0.1231504E+00
         21   -1    0    0  501  502  0.00000000000E+00  0.00000000000E+00  0.53119891716E+02  0.53119891716E+02  0.00000000000E+00 0.  1.
          2   -1    0    0  502    0 -0.00000000000E+00 -0.00000000000E+00 -0.62269467526E+03  0.62269467526E+03  0.00000000000E+00 0. -1.
         23    2    1    2    0    0  0.13522443669E+02  0.36930266284E+02 -0.98387890448E+02  0.14113684732E+03  0.93234819862E+02 0.  0.
         24    2    1    2    0    0  0.68948050390E+02  0.62618688822E+02 -0.25036967783E+03  0.27880349389E+03  0.79821543371E+02 0.  0.
        -13    1    4    4    0    0  0.30514910927E+02  0.75698399018E+02 -0.17811902591E+03  0.19592803473E+03  0.00000000000E+00 0.  1.
         14    1    4    4    0    0  0.38433139462E+02 -0.13079710197E+02 -0.72250651924E+02  0.82875459161E+02  0.00000000000E+00 0. -1.
        -11    1    3    3    0    0 -0.64413609320E+01  0.60381975413E+02 -0.91107117886E+02  0.10948963885E+03  0.00000000000E+00 0. -1.
         11    1    3    3    0    0  0.19963804601E+02 -0.23451709128E+02 -0.72807725619E+01  0.31647208475E+02  0.00000000000E+00 0.  1.
          1    1    1    2  501    0 -0.82470494058E+02 -0.99548955106E+02 -0.22081721527E+03  0.25587422576E+03  0.00000000000E+00 0. -1.
<scales pt_clust_5="13000.00000" pt_clust_6="13000.00000" pt_clust_7="13000.00000" pt_clust_8="13000.00000" pt_clust_9="111.88029"></scales>
<clustering>
<clus scale="   79.822">  5  6 -1 -1</clus>
<clus scale="   93.235">  7  8 -1 -1</clus>
<clus scale="  101.190">  2  7  1 -1</clus>
<clus scale="  111.880">  1  9  2 -1</clus>
<clus scale="  111.880">  1  5  2 -1</clus>
</clustering>
</event>
<event>
 9    2  0.3764910E-005  0.1318331E+03  0.7546771E-02  0.1227694E+00
          2   -1    0    0  502    0 -0.00000000000E+00  0.00000000000E+00  0.76497636290E+03  0.76497636290E+03  0.00000000000E+00 0. -1.
         21   -1    0    0  501  502  0.00000000000E+00 -0.00000000000E+00 -0.11413615661E+03  0.11413615661E+03  0.00000000000E+00 0.  1.
         24    2    1    2    0    0 -0.94937223637E+02  0.17738895686E+02  0.61269887131E+03  0.62562272242E+03  0.81707643762E+02 0.  0.
         23    2    1    2    0    0  0.51440541915E+02  0.36934958008E+02 -0.64161504284E+02  0.12960653543E+03  0.93117318045E+02 0.  0.
        -13    1    3    3    0    0 -0.34356912042E+02  0.47462515919E+02  0.25906276546E+03  0.26560610737E+03  0.00000000000E+00 0.  1.
         14    1    3    3    0    0 -0.60580311595E+02 -0.29723620233E+02  0.35363610585E+03  0.36001661506E+03  0.00000000000E+00 0. -1.
        -13    1    4    4    0    0  0.15057406920E+02  0.58719661398E+02 -0.62645087271E+02  0.87172995229E+02  0.00000000000E+00 0.  1.
         13    1    4    4    0    0  0.36383134995E+02 -0.21784703390E+02 -0.15164170130E+01  0.42433540206E+02  0.00000000000E+00 0. -1.
          1    1    1    2  501    0  0.43496681722E+02 -0.54673853694E+02  0.10230283926E+03  0.12388326166E+03  0.00000000000E+00 0. -1.
<scales pt_clust_5="13000.00000" pt_clust_6="13000.00000" pt_clust_7="13000.00000" pt_clust_8="13000.00000" pt_clust_9="69.86556"></scales>
<clustering>
<clus scale="   69.866">  2  9  1 -1</clus>
<clus scale="   81.708">  5  6 -1 -1</clus>
<clus scale="   93.117">  7  8 -1 -1</clus>
<clus scale="  124.037">  1  5  2 -1</clus>
<clus scale="   69.866">  2  5  1 -1</clus>
</clustering>
</event>
<event>
 9    2  0.3764910E-005  0.1312067E+03  0.7546771E-02  0.1227743E+00
          2   -1    0    0  502    0 -0.00000000000E+00  0.00000000000E+00  0.86273221481E+03  0.86273221481E+03  0.00000000000E+00 0. -1.
         21   -1    0    0  501  502  0.00000000000E+00 -0.00000000000E+00 -0.54516814148E+02  0.54516814148E+02  0.00000000000E+00 0.  1.
         23    2    1    2    0    0 -0.75995099022E+02  0.59715593328E+01  0.28812844664E+03  0.31182132422E+03  0.91671270732E+02 0.  0.
         24    2    1    2    0    0  0.11477240169E+03 -0.11544128245E+03  0.23686113260E+03  0.29931634363E+03  0.83592365333E+02 0.  0.
        -11    1    4    4    0    0  0.60536932941E+02 -0.99759583270E+02  0.20104749735E+03  0.23245814870E+03  0.00000000000E+00 0.  1.
         12    1    4    4    0    0  0.54235468749E+02 -0.15681699182E+02  0.35813635247E+02  0.66858194930E+02  0.00000000000E+00 0. -1.
        -11    1    3    3    0    0  0.63613365374E+01  0.31060162483E+02  0.10053107092E+03  0.10541203212E+03  0.00000000000E+00 0.  1.
         11    1    3    3    0    0 -0.82356435560E+02 -0.25088603150E+02  0.18759737572E+03  0.20640929210E+03  0.00000000000E+00 0. -1.
          1    1    1    2  501    0 -0.38777302667E+02  0.10946972312E+03  0.28322582142E+03  0.30611136111E+03  0.00000000000E+00 0. -1.
<scales pt_clust_5="13000.00000" pt_clust_6="13000.00000" pt_clust_7="13000.00000" pt_clust_8="13000.00000" pt_clust_9="116.13489"></scales>
<clustering>
<clus scale="   83.592">  5  6 -1 -1</clus>
<clus scale="   91.671">  7  8 -1 -1</clus>
<clus scale="  116.135">  2  9  1 -1</clus>
<clus scale="  125.695">  2  5  1 -1</clus>
<clus scale="  116.135">  2  5  1 -1</clus>
</clustering>
</event>
<event>
 9    2  0.3764910E-005  0.1478249E+03  0.7546771E-02  0.1205279E+00
         -3   -1    0    0    0  501 -0.00000000000E+00  0.00000000000E+00  0.75003042191E+02  0.75003042191E+02  0.00000000000E+00 0.  1.
         21   -1    0    0  501  502  0.00000000000E+00 -0.00000000000E+00 -0.81949887142E+03  0.81949887142E+03  0.00000000000E+00 0. -1.
         23    2    1    2    0    0  0.81370951921E+02  0.69782768542E+02 -0.69407388483E+02  0.15699949129E+03  0.91326820201E+02 0.  0.
         24    2    1    2    0    0 -0.12484698732E+03 -0.11316644163E+03 -0.64023074608E+03  0.66688112509E+03  0.80259659999E+02 0.  0.
        -13    1    4    4    0    0 -0.17021156079E+02 -0.12050779120E+02 -0.18691180218E+02  0.28005378941E+02  0.00000000000E+00 0.  1.
         14    1    4    4    0    0 -0.10782583124E+03 -0.10111566251E+03 -0.62153956586E+03  0.63887574615E+03  0.00000000000E+00 0. -1.
        -13    1    3    3    0    0  0.37459046373E+02  0.60351544132E+02 -0.83783463715E+02  0.10984151231E+03  0.00000000000E+00 0.  1.
         13    1    3    3    0    0  0.43911905548E+02  0.94312244099E+01  0.14376075232E+02  0.47157978983E+02  0.00000000000E+00 0. -1.
         -4    1    1    2    0  502  0.43476035395E+02  0.43383673091E+02 -0.34857694662E+02  0.70621297225E+02  0.00000000000E+00 0.  1.
<scales pt_clust_5="13000.00000" pt_clust_6="13000.00000" pt_clust_7="13000.00000" pt_clust_8="13000.00000" pt_clust_9="61.41915"></scales>
<clustering>
<clus scale="   61.419">  2  9  1 -1</clus>
<clus scale="   80.260">  5  6 -1 -1</clus>
<clus scale="   91.327">  7  8 -1 -1</clus>
<clus scale="  141.256">  2  5  1 -1</clus>
<clus scale="   61.419">  2  5  1 -1</clus>
</clustering>
</event>
<event>
 9    2  0.3764910E-005  0.1015752E+03  0.7546771E-02  0.1286278E+00
         21   -1    0    0  501  502  0.00000000000E+00  0.00000000000E+00  0.35850918682E+03  0.35850918682E+03  0.00000000000E+00 0.  1.
         -1   -1    0    0    0  501 -0.00000000000E+00 -0.00000000000E+00 -0.85272565536E+02  0.85272565536E+02  0.00000000000E+00 0.  1.
         23    2    1    2    0    0  0.45237831720E+02  0.29677349923E+02  0.12623166580E+03  0.16583196835E+03  0.92944078671E+02 0.  0.
         24    2    1    2    0    0 -0.34996760156E+02  0.47985449670E+02  0.17116539153E+03  0.19597346634E+03  0.74703625419E+02 0.  0.
        -13    1    4    4    0    0 -0.29613009825E+02  0.18565651964E+02  0.16876979748E+02  0.38812964704E+02  0.00000000000E+00 0.  1.
         14    1    4    4    0    0 -0.53837503315E+01  0.29419797706E+02  0.15428841178E+03  0.15716050163E+03  0.00000000000E+00 0. -1.
        -13    1    3    3    0    0  0.17364376747E+02  0.16639111685E+02  0.13229921483E+03  0.13446733381E+03  0.00000000000E+00 0.  1.
         13    1    3    3    0    0  0.27873454973E+02  0.13038238238E+02 -0.60675490338E+01  0.31364634539E+02  0.00000000000E+00 0. -1.
         -2    1    1    2    0  502 -0.10241071564E+02 -0.77662799593E+02 -0.24160436045E+02  0.81976317661E+02  0.00000000000E+00 0.  1.
<scales pt_clust_5="13000.00000" pt_clust_6="13000.00000" pt_clust_7="13000.00000" pt_clust_8="13000.00000" pt_clust_9="78.33515"></scales>
<clustering>
<clus scale="   74.704">  5  6 -1 -1</clus>
<clus scale="   78.335">  1  9  2 -1</clus>
<clus scale="   85.203">  1  5  2 -1</clus>
<clus scale="   92.944">  7  8 -1 -1</clus>
<clus scale="   78.335">  1  5  2 -1</clus>
</clustering>
</event>
<event>
 9    2  0.3764910E-005  0.9143071E+02  0.7546771E-02  0.1305712E+00
         -1   -1    0    0    0  501 -0.00000000000E+00  0.00000000000E+00  0.15241908395E+03  0.15241908395E+03  0.00000000000E+00 0.  1.
         21   -1    0    0  501  502  0.00000000000E+00 -0.00000000000E+00 -0.64116621205E+02  0.64116621205E+02  0.00000000000E+00 0. -1.
         23    2    1    2    0    0  0.54977810158E+01 -0.20669459973E+01  0.54939418192E+02  0.10620025502E+03  0.90695405799E+02 0.  0.
         24    2    1    2    0    0  0.10885845217E+01  0.22459157110E+02  0.25494286562E+02  0.87506962727E+02  0.80634428901E+02 0.  0.
        -13    1    4    4    0    0  0.20987195791E+02 -0.57276577246E+01  0.43464450048E+02  0.48604802933E+02  0.00000000000E+00 0.  1.
         14    1    4    4    0    0 -0.19898611269E+02  0.28186814834E+02 -0.17970163486E+02  0.38902159794E+02  0.00000000000E+00 0. -1.
        -13    1    3    3    0    0 -0.32338279374E+02 -0.13508722747E+02  0.56673114659E+02  0.66634014049E+02  0.00000000000E+00 0.  1.
         13    1    3    3    0    0  0.37836060390E+02  0.11441776750E+02 -0.17336964669E+01  0.39566240970E+02  0.00000000000E+00 0. -1.
         -2    1    1    2    0  502 -0.65863655375E+01 -0.20392211112E+02  0.78687579896E+01  0.22828487408E+02  0.00000000000E+00 0.  1.
<scales pt_clust_5="13000.00000" pt_clust_6="13000.00000" pt_clust_7="13000.00000" pt_clust_8="13000.00000" pt_clust_9="21.42948"></scales>
<clustering>
<clus scale="   21.429">  2  9  1 -1</clus>
<clus scale="   80.634">  5  6 -1 -1</clus>
<clus scale="   81.461">  2  5  1 -1</clus>
<clus scale="   90.695">  7  8 -1 -1</clus>
<clus scale="   21.429">  2  5  1 -1</clus>
</clustering>
</event>
<event>
 9    2  0.3764910E-005  0.1018221E+03  0.7546771E-02  0.1283402E+00
         21   -1    0    0  501  502  0.00000000000E+00  0.00000000000E+00  0.11925846807E+03  0.11925846807E+03  0.00000000000E+00 0.  1.
          2   -1    0    0  502    0 -0.00000000000E+00 -0.00000000000E+00 -0.23079859982E+03  0.23079859982E+03  0.00000000000E+00 0. -1.
         23    2    1    2    0    0 -0.20735497788E+02  0.29475657916E+02 -0.14855001073E+03  0.17826769113E+03  0.91725071459E+02 0.  0.
         24    2    1    2    0    0  0.17086361298E+02 -0.72528689440E+02 -0.98730707072E+01  0.10803288146E+03  0.77596851853E+02 0.  0.
        -13    1    4    4    0    0  0.40808161327E+02 -0.70779216769E+02  0.13951348222E+01  0.81712605873E+02  0.00000000000E+00 0.  1.
         14    1    4    4    0    0 -0.23721800029E+02 -0.17494726710E+01 -0.11268205529E+02  0.26320275589E+02  0.00000000000E+00 0. -1.
        -13    1    3    3    0    0 -0.30409910669E+02 -0.15134879026E+02 -0.11932646030E+03  0.12406704380E+03  0.00000000000E+00 0.  1.
         13    1    3    3    0    0  0.96744128811E+01  0.44610536942E+02 -0.29223550430E+02  0.54200647326E+02  0.00000000000E+00 0. -1.
          1    1    1    2  501    0  0.36491364900E+01  0.43053031525E+02  0.46882949690E+02  0.63756495294E+02  0.00000000000E+00 0. -1.
<scales pt_clust_5="13000.00000" pt_clust_6="13000.00000" pt_clust_7="13000.00000" pt_clust_8="13000.00000" pt_clust_9="43.20740"></scales>
<clustering>
<clus scale="   43.207">  1  9  2 -1</clus>
<clus scale="   77.597">  5  6 -1 -1</clus>
<clus scale="   89.306">  1  5  2 -1</clus>
<clus scale="   91.725">  7  8 -1 -1</clus>
<clus scale="   43.207">  1  5  2 -1</clus>
</clustering>
</event>
<event>
 9    2  0.3764910E-005  0.1355189E+03  0.7546771E-02  0.1229530E+00
         -1   -1    0    0    0  501 -0.00000000000E+00  0.00000000000E+00  0.22843055995E+03  0.22843055995E+03  0.00000000000E+00 0.  1.
         21   -1    0    0  501  502  0.00000000000E+00 -0.00000000000E+00 -0.11786233311E+03  0.11786233311E+03  0.00000000000E+00 0.  1.
         23    2    1    2    0    0  0.60866760980E+02  0.59994462092E+02  0.13773544794E+03  0.19758487909E+03  0.11298067425E+03 0.  0.
         24    2    1    2    0    0 -0.45391699324E+02 -0.38161959924E+02  0.12577586601E+02  0.10079365888E+03  0.80525923978E+02 0.  0.
        -13    1    4    4    0    0 -0.10866887741E+02 -0.58486644420E+02  0.27938902421E+01  0.59553191748E+02  0.00000000000E+00 0.  1.
         14    1    4    4    0    0 -0.34524811583E+02  0.20324684496E+02  0.97836963587E+01  0.41240467130E+02  0.00000000000E+00 0. -1.
        -13    1    3    3    0    0 -0.28518499070E+02  0.40853779225E+02  0.56059287069E+02  0.74999864885E+02  0.00000000000E+00 0.  1.
         13    1    3    3    0    0  0.89385260049E+02  0.19140682867E+02  0.81676160867E+02  0.12258501421E+03  0.00000000000E+00 0. -1.
         -2    1    1    2    0  502 -0.15475061656E+02 -0.21832502168E+02 -0.39744807700E+02  0.47914355086E+02  0.00000000000E+00 0.  1.
<scales pt_clust_5="13000.00000" pt_clust_6="13000.00000" pt_clust_7="13000.00000" pt_clust_8="13000.00000" pt_clust_9="26.76071"></scales>
<clustering>
<clus scale="   26.761">  2  9  1 -1</clus>
<clus scale="   80.526">  5  6 -1 -1</clus>
<clus scale="  109.933">  2  5  1 -1</clus>
<clus scale="  112.981">  7  8 -1 -1</clus>
<clus scale="   26.761">  2  5  1 -1</clus>
</clustering>
</event>
<event>
 9    2  0.3764910E-005  0.9142261E+02  0.7546771E-02  0.1307191E+00
         21   -1    0    0  501  502  0.00000000000E+00  0.00000000000E+00  0.36388718887E+02  0.36388718887E+02  0.00000000000E+00 0. -1.
          2   -1    0    0  502    0 -0.00000000000E+00 -0.00000000000E+00 -0.80985878338E+03  0.80985878338E+03  0.00000000000E+00 0. -1.
         24    2    1    2    0    0 -0.16831779098E+02 -0.11010440088E+02 -0.55681043139E+03  0.56272276034E+03  0.78832162979E+02 0.  0.
         23    2    1    2    0    0 -0.28450477465E+02 -0.15421865831E+02 -0.20938597139E+03  0.23059029464E+03  0.91006237972E+02 0.  0.
        -11    1    3    3    0    0 -0.29222327508E+00 -0.32720231095E+02 -0.10256471056E+03  0.10765787835E+03  0.00000000000E+00 0.  1.
         12    1    3    3    0    0 -0.16539555823E+02  0.21709791007E+02 -0.45424572083E+03  0.45506488199E+03  0.00000000000E+00 0. -1.
        -11    1    4    4    0    0 -0.26422049693E+02 -0.52647577621E+02 -0.11779221853E+03  0.13170003373E+03  0.00000000000E+00 0. -1.
         11    1    4    4    0    0 -0.20284277717E+01  0.37225711790E+02 -0.91593752868E+02  0.98890260905E+02  0.00000000000E+00 0.  1.
          1    1    1    2  501    0  0.45282256563E+02  0.26432305919E+02 -0.72736617092E+01  0.52934447293E+02  0.00000000000E+00 0. -1.
<scales pt_clust_5="13000.00000" pt_clust_6="13000.00000" pt_clust_7="13000.00000" pt_clust_8="13000.00000" pt_clust_9="52.43233"></scales>
<clustering>
<clus scale="   52.432">  1  9  2 -1</clus>
<clus scale="   78.832">  5  6 -1 -1</clus>
<clus scale="   79.312">  2  5  1 -1</clus>
<clus scale="   91.006">  7  8 -1 -1</clus>
<clus scale="   52.432">  1  5  2 -1</clus>
</clustering>
</event>
<event>
 9    2  0.3764910E-005  0.1580301E+03  0.7546771E-02  0.1192889E+00
         21   -1    0    0  501  502  0.00000000000E+00  0.00000000000E+00  0.30753138968E+03  0.30753138968E+03  0.00000000000E+00 0. -1.
          2   -1    0    0  502    0 -0.00000000000E+00 -0.00000000000E+00 -0.20571760456E+03  0.20571760456E+03  0.00000000000E+00 0. -1.
         23    2    1    2    0    0 -0.28689898611E+02  0.14617575467E+03 -0.11787409159E+03  0.21153178176E+03  0.93064126758E+02 0.  0.
         24    2    1    2    0    0  0.80679426392E+01 -0.82732389704E+02  0.64845234290E+02  0.13311540484E+03  0.81271560769E+02 0.  0.
        -11    1    4    4    0    0 -0.17011436956E+02 -0.86174120593E+02  0.62269763194E+02  0.10767029050E+03  0.00000000000E+00 0.  1.
         12    1    4    4    0    0  0.25079379595E+02  0.34417308888E+01  0.25754710962E+01  0.25445114340E+02  0.00000000000E+00 0. -1.
        -13    1    3    3    0    0  0.20215377799E+02 -0.24131993025E+00 -0.67050358837E+01  0.21299700493E+02  0.00000000000E+00 0.  1.
         13    1    3    3    0    0 -0.48905276411E+02  0.14641707460E+03 -0.11116905571E+03  0.19023208127E+03  0.00000000000E+00 0. -1.
          1    1    1    2  501    0  0.20621955972E+02 -0.63443364966E+02  0.15484264243E+03  0.16860180764E+03  0.00000000000E+00 0. -1.
<scales pt_clust_5="13000.00000" pt_clust_6="13000.00000" pt_clust_7="13000.00000" pt_clust_8="13000.00000" pt_clust_9="66.71076"></scales>
<clustering>
<clus scale="   66.711">  1  9  2 -1</clus>
<clus scale="   81.272">  5  6 -1 -1</clus>
<clus scale="   93.064">  7  8 -1 -1</clus>
<clus scale="  151.386">  1  5  2 -1</clus>
<clus scale="   66.711">  1  5  2 -1</clus>
</clustering>
</event>
<event>
 9    2  0.3764910E-005  0.1063303E+03  0.7546771E-02  0.1275501E+00
         -3   -1    0    0    0  501 -0.00000000000E+00  0.00000000000E+00  0.17979188295E+03  0.17979188295E+03  0.00000000000E+00 0.  1.
         21   -1    0    0  501  502  0.00000000000E+00 -0.00000000000E+00 -0.39424621267E+03  0.39424621267E+03  0.00000000000E+00 0.  1.
         23    2    1    2    0    0 -0.20843814147E+02  0.18944715763E+02  0.13739244471E+03  0.17300658386E+03  0.10129771643E+03 0.  0.
         24    2    1    2    0    0  0.49946670983E+02 -0.32633653838E+02 -0.91039481028E+02  0.13824869728E+03  0.85234323415E+02 0.  0.
        -13    1    4    4    0    0  0.64318504215E+02  0.12626092581E+01 -0.41612056508E+02  0.76616104139E+02  0.00000000000E+00 0.  1.
         14    1    4    4    0    0 -0.14371833232E+02 -0.33896263096E+02 -0.49427424520E+02  0.61632593138E+02  0.00000000000E+00 0. -1.
        -11    1    3    3    0    0  0.34256296123E+02  0.26685987258E+02  0.89958298216E+02  0.99890595943E+02  0.00000000000E+00 0.  1.
         11    1    3    3    0    0 -0.55100110270E+02 -0.77412714951E+01  0.47434146490E+02  0.73115987919E+02  0.00000000000E+00 0. -1.
         -4    1    1    2    0  502 -0.29102856836E+02  0.13688938075E+02 -0.26080729339E+03  0.26278281448E+03  0.00000000000E+00 0.  1.
<scales pt_clust_5="13000.00000" pt_clust_6="13000.00000" pt_clust_7="13000.00000" pt_clust_8="13000.00000" pt_clust_9="32.16152"></scales>
<clustering>
<clus scale="   32.162">  2  9  1 -1</clus>
<clus scale="   85.234">  5  6 -1 -1</clus>
<clus scale="   91.158">  2  5  1 -1</clus>
<clus scale="  101.298">  7  8 -1 -1</clus>
<clus scale="   32.162">  2  5  1 -1</clus>
</clustering>
</event>
<event>
 9    2  0.3764910E-005  0.1350537E+03  0.7546771E-02  0.1222524E+00
         -1   -1    0    0    0  501 -0.00000000000E+00  0.00000000000E+00  0.35268829549E+03  0.35268829549E+03  0.00000000000E+00 0.  1.
         21   -1    0    0  501  502  0.00000000000E+00 -0.00000000000E+00 -0.71449156324E+02  0.71449156324E+02  0.00000000000E+00 0.  1.
         24    2    1    2    0    0 -0.10155187838E+03  0.28400202645E+02  0.20619604350E+03  0.24532103086E+03  0.80908864244E+02 0.  0.
         23    2    1    2    0    0  0.76515158987E+02 -0.44698652220E+02  0.40848931780E+02  0.13341028018E+03  0.90978725892E+02 0.  0.
        -13    1    3    3    0    0 -0.91119755299E+02  0.53485107479E+02  0.16752323096E+03  0.19805933313E+03  0.00000000000E+00 0.  1.
         14    1    3    3    0    0 -0.10432123079E+02 -0.25084904834E+02  0.38672812538E+02  0.47261697727E+02  0.00000000000E+00 0. -1.
        -13    1    4    4    0    0  0.75491371504E+02 -0.17804017020E+02 -0.76553007141E+01  0.77939295754E+02  0.00000000000E+00 0.  1.
         13    1    4    4    0    0  0.10237874837E+01 -0.26894635200E+02  0.48504232494E+02  0.55470984426E+02  0.00000000000E+00 0. -1.
         -2    1    1    2    0  502  0.25036719391E+02  0.16298449575E+02  0.34194163885E+02  0.45406140777E+02  0.00000000000E+00 0.  1.
<scales pt_clust_5="13000.00000" pt_clust_6="13000.00000" pt_clust_7="13000.00000" pt_clust_8="13000.00000" pt_clust_9="29.87436"></scales>
<clustering>
<clus scale="   29.874">  2  9  1 -1</clus>
<clus scale="   80.909">  5  6 -1 -1</clus>
<clus scale="   90.979">  7  8 -1 -1</clus>
<clus scale="  128.486">  1  5  2 -1</clus>
<clus scale="   29.874">  2  5  1 -1</clus>
</clustering>
</event>
<event>
 9    2  0.3764910E-005  0.9460578E+02  0.7546771E-02  0.1298960E+00
         21   -1    0    0  501  502  0.00000000000E+00  0.00000000000E+00  0.14723720845E+03  0.14723720845E+03  0.00000000000E+00 0. -1.
         -1   -1    0    0    0  501 -0.00000000000E+00 -0.00000000000E+00 -0.22377156818E+03  0.22377156818E+03  0.00000000000E+00 0.  1.
         23    2    1    2    0    0 -0.25247604835E+02  0.91950652557E+01 -0.18921329684E+03  0.21170445099E+03  0.91077505947E+02 0.  0.
         24    2    1    2    0    0  0.77246914637E+01 -0.23656393719E+02  0.61537513616E+02  0.10334337755E+03  0.79206642898E+02 0.  0.
        -13    1    4    4    0    0  0.27744365212E+02 -0.23976392681E+02 -0.20022296683E+01  0.36723645389E+02  0.00000000000E+00 0.  1.
         14    1    4    4    0    0 -0.20019673749E+02  0.31999896167E+00  0.63539743284E+02  0.66619732159E+02  0.00000000000E+00 0. -1.
        -13    1    3    3    0    0 -0.43539395480E+02  0.37120781469E+02 -0.14795106782E+03  0.15862896912E+03  0.00000000000E+00 0.  1.
         13    1    3    3    0    0  0.18291790646E+02 -0.27925716213E+02 -0.41262229026E+02  0.53075481865E+02  0.00000000000E+00 0. -1.
         -2    1    1    2    0  502  0.17522913371E+02  0.14461328464E+02  0.51141423497E+02  0.55960948091E+02  0.00000000000E+00 0.  1.
<scales pt_clust_5="13000.00000" pt_clust_6="13000.00000" pt_clust_7="13000.00000" pt_clust_8="13000.00000" pt_clust_9="22.71965"></scales>
<clustering>
<clus scale="   22.720">  1  9  2 -1</clus>
<clus scale="   79.207">  5  6 -1 -1</clus>
<clus scale="   83.240">  1  5  2 -1</clus>
<clus scale="   91.078">  7  8 -1 -1</clus>
<clus scale="   22.720">  1  5  2 -1</clus>
</clustering>
</event>
<event>
 9    2  0.3764910E-005  0.3209107E+03  0.7546771E-02  0.1075552E+00
         21   -1    0    0  501  502  0.00000000000E+00  0.00000000000E+00  0.10429774375E+03  0.10429774375E+03  0.00000000000E+00 0. -1.
         -1   -1    0    0    0  501 -0.00000000000E+00 -0.00000000000E+00 -0.13348830442E+04  0.13348830442E+04  0.00000000000E+00 0.  1.
         23    2    1    2    0    0  0.26230678785E+03  0.18753629453E+03 -0.89038556288E+03  0.95139211470E+03  0.91573973416E+02 0.  0.
         24    2    1    2    0    0 -0.23419245368E+03 -0.14412149999E+03 -0.23566850037E+03  0.37116089045E+03  0.81262859993E+02 0.  0.
        -13    1    4    4    0    0 -0.20786746537E+03 -0.12311379622E+03 -0.23564293518E+03  0.33748108522E+03  0.00000000000E+00 0.  1.
         14    1    4    4    0    0 -0.26324988302E+02 -0.21007703769E+02 -0.25565191024E-01  0.33679805230E+02  0.00000000000E+00 0. -1.
        -13    1    3    3    0    0  0.85608963341E+02  0.90872079387E+02 -0.45249713100E+03  0.46940417870E+03  0.00000000000E+00 0.  1.
         13    1    3    3    0    0  0.17669782451E+03  0.96664215146E+02 -0.43788843189E+03  0.48198793601E+03  0.00000000000E+00 0. -1.
         -2    1    1    2    0  502 -0.28114334174E+02 -0.43414794540E+02 -0.10453123717E+03  0.11662778278E+03  0.00000000000E+00 0.  1.
<scales pt_clust_5="13000.00000" pt_clust_6="13000.00000" pt_clust_7="13000.00000" pt_clust_8="13000.00000" pt_clust_9="51.72294"></scales>
<clustering>
<clus scale="   51.723">  1  9  2 -1</clus>
<clus scale="   81.263">  5  6 -1 -1</clus>
<clus scale="   91.574">  7  8 -1 -1</clus>
<clus scale="  318.122">  1  5  2 -1</clus>
<clus scale="   51.723">  1  5  2 -1</clus>
</clustering>
</event>
<event>
 9    2  0.3764910E-005  0.1071169E+03  0.7546771E-02  0.1271702E+00
         21   -1    0    0  501  502  0.00000000000E+00  0.00000000000E+00  0.54635720600E+03  0.54635720600E+03  0.00000000000E+00 0. -1.
         -1   -1    0    0    0  501 -0.00000000000E+00 -0.00000000000E+00 -0.39727839567E+02  0.39727839567E+02  0.00000000000E+00 0.  1.
         24    2    1    2    0    0 -0.68822149154E+02 -0.27944945395E+02  0.11427152631E+03  0.15805339911E+03  0.80034286766E+02 0.  0.
         23    2    1    2    0    0  0.28382805951E+02 -0.24606690207E+02  0.18752774668E+03  0.21273561290E+03  0.93159606838E+02 0.  0.
        -11    1    3    3    0    0 -0.26309593752E+02 -0.52419689009E+02  0.49146365840E+02  0.76520479576E+02  0.00000000000E+00 0.  1.
         12    1    3    3    0    0 -0.42512555402E+02  0.24474743614E+02  0.65125160473E+02  0.81532919538E+02  0.00000000000E+00 0. -1.
        -13    1    4    4    0    0  0.40609081478E+02  0.25920131833E+02  0.82194189324E+02  0.95272427760E+02  0.00000000000E+00 0.  1.
         13    1    4    4    0    0 -0.12226275527E+02 -0.50526822040E+02  0.10533355736E+03  0.11746318514E+03  0.00000000000E+00 0. -1.
         -2    1    1    2    0  502  0.40439343203E+02  0.52551635602E+02  0.20483009344E+03  0.21529603355E+03  0.00000000000E+00 0.  1.
<scales pt_clust_5="13000.00000" pt_clust_6="13000.00000" pt_clust_7="13000.00000" pt_clust_8="13000.00000" pt_clust_9="66.30999"></scales>
<clustering>
<clus scale="   66.310">  1  9  2 -1</clus>
<clus scale="   80.034">  5  6 -1 -1</clus>
<clus scale="   93.160">  7  8 -1 -1</clus>
<clus scale="   95.921">  2  5  1 -1</clus>
<clus scale="   66.310">  1  5  2 -1</clus>
</clustering>
</event>
<event>
 9    2  0.3764910E-005  0.9660401E+02  0.7546771E-02  0.1293199E+00
          2   -1    0    0  502    0 -0.00000000000E+00  0.00000000000E+00  0.45499389831E+03  0.45499389831E+03  0.00000000000E+00 0. -1.
         21   -1    0    0  501  502  0.00000000000E+00 -0.00000000000E+00 -0.70298834028E+02  0.70298834028E+02  0.00000000000E+00 0. -1.
         24    2    1    2    0    0  0.29549638775E+02 -0.48438740410E+02  0.37120599442E+03  0.38401860147E+03  0.80354858342E+02 0.  0.
         23    2    1    2    0    0 -0.38398209346E+02  0.25298213775E+02  0.50499836732E+02  0.96736752872E+02  0.68507983076E+02 0.  0.
        -13    1    3    3    0    0  0.95524161688E+01 -0.37774719940E+02  0.57282711508E+02  0.69278331092E+02  0.00000000000E+00 0.  1.
         14    1    3    3    0    0  0.19997222606E+02 -0.10664020469E+02  0.31392328291E+03  0.31474027038E+03  0.00000000000E+00 0. -1.
        -11    1    4    4    0    0 -0.80223640223E+01  0.40976831254E+02  0.85467876189E+01  0.42620495102E+02  0.00000000000E+00 0.  1.
         11    1    4    4    0    0 -0.30375845324E+02 -0.15678617479E+02  0.41953049113E+02  0.54116257770E+02  0.00000000000E+00 0. -1.
          1    1    1    2  501    0  0.88485705711E+01  0.23140526635E+02 -0.37010766871E+02  0.44537377993E+02  0.00000000000E+00 0. -1.
<scales pt_clust_5="13000.00000" pt_clust_6="13000.00000" pt_clust_7="13000.00000" pt_clust_8="13000.00000" pt_clust_9="24.77461"></scales>
<clustering>
<clus scale="   24.775">  2  9  1 -1</clus>
<clus scale="   68.508">  7  8 -1 -1</clus>
<clus scale="   80.355">  5  6 -1 -1</clus>
<clus scale="   86.999">  2  7  1 -1</clus>
<clus scale="   24.775">  2  5  1 -1</clus>
</clustering>
</event>
<event>
 9    2  0.3764910E-005  0.9463520E+02  0.7546771E-02  0.1296921E+00
          2   -1    0    0  502    0 -0.00000000000E+00  0.00000000000E+00  0.13396196571E+03  0.13396196571E+03  0.00000000000E+00 0. -1.
         21   -1    0    0  501  502  0.00000000000E+00 -0.00000000000E+00 -0.39552485696E+03  0.39552485696E+03  0.00000000000E+00 0. -1.
         24    2    1    2    0    0  0.87858225058E+01  0.30594370359E+02  0.10787199049E+03  0.13843210949E+03  0.80708589567E+02 0.  0.
         23    2    1    2    0    0 -0.27938436325E+02 -0.20329604809E+01 -0.27492302332E+03  0.29048101814E+03  0.89509016297E+02 0.  0.
        -11    1    3    3    0    0 -0.67846113538E+01  0.35449067202E+02  0.76533370520E+01  0.36894998099E+02  0.00000000000E+00 0.  1.
         12    1    3    3    0    0  0.15570433860E+02 -0.48546968429E+01  0.10021865344E+03  0.10153711139E+03  0.00000000000E+00 0. -1.
        -11    1    4    4    0    0 -0.51357670670E+02 -0.21177635314E+02 -0.22786968744E+03  0.23454359302E+03  0.00000000000E+00 0.  1.
         11    1    4    4    0    0  0.23419234346E+02  0.19144674833E+02 -0.47053335879E+02  0.55937425120E+02  0.00000000000E+00 0. -1.
          1    1    1    2  501    0  0.19152613819E+02 -0.28561409878E+02 -0.94511858425E+02  0.10057369504E+03  0.00000000000E+00 0. -1.
<scales pt_clust_5="13000.00000" pt_clust_6="13000.00000" pt_clust_7="13000.00000" pt_clust_8="13000.00000" pt_clust_9="34.38861"></scales>
<clustering>
<clus scale="   34.389">  2  9  1 -1</clus>
<clus scale="   80.709">  5  6 -1 -1</clus>
<clus scale="   86.359">  1  5  2 -1</clus>
<clus scale="   89.509">  7  8 -1 -1</clus>
<clus scale="   34.389">  2  5  1 -1</clus>
</clustering>
</event>
<event>
 9    2  0.3764910E-005  0.1252481E+03  0.7546771E-02  0.1238851E+00
         21   -1    0    0  501  502  0.00000000000E+00  0.00000000000E+00  0.47400405444E+02  0.47400405444E+02  0.00000000000E+00 0. -1.
         -1   -1    0    0    0  501 -0.00000000000E+00 -0.00000000000E+00 -0.89096312795E+03  0.89096312795E+03  0.00000000000E+00 0.  1.
         24    2    1    2    0    0  0.10490644951E+03 -0.14141895663E+02 -0.44972571972E+03  0.46889120726E+03  0.80002405627E+02 0.  0.
         23    2    1    2    0    0 -0.31879228696E+01  0.87220166488E+02 -0.15624563895E+03  0.20088947393E+03  0.91248894515E+02 0.  0.
        -11    1    3    3    0    0  0.84247432829E+02 -0.22812811118E+02 -0.43082937749E+03  0.43958162700E+03  0.00000000000E+00 0.  1.
         12    1    3    3    0    0  0.20659016683E+02  0.86709154551E+01 -0.18896342225E+02  0.29309580253E+02  0.00000000000E+00 0. -1.
        -13    1    4    4    0    0 -0.27406494007E+02  0.96510234564E+02 -0.12352678127E+03  0.15913581301E+03  0.00000000000E+00 0.  1.
         13    1    4    4    0    0  0.24218571137E+02 -0.92900680761E+01 -0.32718857673E+02  0.41753660920E+02  0.00000000000E+00 0. -1.
         -2    1    1    2    0  502 -0.10171852664E+03 -0.73078270825E+02 -0.23759136385E+03  0.26858285222E+03  0.00000000000E+00 0.  1.
<scales pt_clust_5="13000.00000" pt_clust_6="13000.00000" pt_clust_7="13000.00000" pt_clust_8="13000.00000" pt_clust_9="125.24812"></scales>
<clustering>
<clus scale="   80.002">  5  6 -1 -1</clus>
<clus scale="   91.249">  7  8 -1 -1</clus>
<clus scale="  125.248">  1  9  2 -1</clus>
<clus scale="  115.029">  2  5  1 -1</clus>
<clus scale="  125.248">  1  5  2 -1</clus>
</clustering>
</event>
<event>
 9    2  0.3764910E-005  0.1049147E+03  0.7546771E-02  0.1275902E+00
         21   -1    0    0  501  502  0.00000000000E+00  0.00000000000E+00  0.16945453019E+03  0.16945453019E+03  0.00000000000E+00 0.  1.
         -3   -1    0    0    0  501 -0.00000000000E+00 -0.00000000000E+00 -0.88412540881E+02  0.88412540881E+02  0.00000000000E+00 0.  1.
         24    2    1    2    0    0 -0.46711879670E+02 -0.23000031801E+02  0.13636935383E+02  0.96535146711E+02  0.80137802433E+02 0.  0.
         23    2    1    2    0    0  0.52033152121E+02 -0.15259747992E+02  0.56383792355E+02  0.12116234760E+03  0.92524989101E+02 0.  0.
        -13    1    3    3    0    0  0.62390163403E-01 -0.40872984837E+02 -0.85654320365E+01  0.41760883707E+02  0.00000000000E+00 0.  1.
         14    1    3    3    0    0 -0.46774269833E+02  0.17872953036E+02  0.22202367419E+02  0.54774263004E+02  0.00000000000E+00 0. -1.
        -11    1    4    4    0    0  0.74837030324E+02 -0.18253519012E+02  0.60307764133E+02  0.97830457828E+02  0.00000000000E+00 0.  1.
         11    1    4    4    0    0 -0.22803878203E+02  0.29937710200E+01 -0.39239717778E+01  0.23331889776E+02  0.00000000000E+00 0. -1.
         -4    1    1    2    0  502 -0.53212724509E+01  0.38259779793E+02  0.11021261574E+02  0.40169576759E+02  0.00000000000E+00 0.  1.
<scales pt_clust_5="13000.00000" pt_clust_6="13000.00000" pt_clust_7="13000.00000" pt_clust_8="13000.00000" pt_clust_9="38.62808"></scales>
<clustering>
<clus scale="   38.628">  1  9  2 -1</clus>
<clus scale="   80.138">  5  6 -1 -1</clus>
<clus scale="   92.525">  7  8 -1 -1</clus>
<clus scale="   94.172">  2  5  1 -1</clus>
<clus scale="   38.628">  1  5  2 -1</clus>
</clustering>
</event>
<event>
 9    2  0.3764910E-005  0.9549009E+02  0.7546771E-02  0.1290448E+00
          2   -1    0    0  502    0 -0.00000000000E+00  0.00000000000E+00  0.84366866494E+03  0.84366866494E+03  0.00000000000E+00 0. -1.
         21   -1    0    0  501  502  0.00000000000E+00 -0.00000000000E+00 -0.24586582588E+02  0.24586582588E+02  0.00000000000E+00 0.  1.
         23    2    1    2    0    0  0.21868954799E+02  0.77562073377E+00  0.47998875788E+03  0.48917281476E+03  0.91771358455E+02 0.  0.
         24    2    1    2    0    0 -0.11361422311E+02  0.57909938217E+02  0.21160733596E+03  0.23834480336E+03  0.92455058225E+02 0.  0.
        -11    1    4    4    0    0  0.99773549712E+01  0.21893396849E+02  0.14988136199E+01  0.24106324483E+02  0.00000000000E+00 0.  1.
         12    1    4    4    0    0 -0.21338777282E+02  0.36016541368E+02  0.21010852234E+03  0.21423847887E+03  0.00000000000E+00 0. -1.
        -13    1    3    3    0    0 -0.35497836023E+02 -0.77843482258E+01  0.18598645357E+03  0.18950370274E+03  0.00000000000E+00 0. -1.
         13    1    3    3    0    0  0.57366790822E+02  0.85599689596E+01  0.29400230431E+03  0.29966911202E+03  0.00000000000E+00 0.  1.
          1    1    1    2  501    0 -0.10507532488E+02 -0.58685558950E+02  0.12748598851E+03  0.14073762942E+03  0.00000000000E+00 0. -1.
<scales pt_clust_5="13000.00000" pt_clust_6="13000.00000" pt_clust_7="13000.00000" pt_clust_8="13000.00000" pt_clust_9="59.61881"></scales>
<clustering>
<clus scale="   59.619">  2  9  1 -1</clus>
<clus scale="   91.771">  7  8 -1 -1</clus>
<clus scale="   92.455">  5  6 -1 -1</clus>
<clus scale="   94.828">  1  7  2 -1</clus>
<clus scale="   59.619">  2  5  1 -1</clus>
</clustering>
</event>
<event>
 9    2  0.3764910E-005  0.1223203E+03  0.7546771E-02  0.1243586E+00
         21   -1    0    0  501  502  0.00000000000E+00  0.00000000000E+00  0.20598301097E+03  0.20598301097E+03  0.00000000000E+00 0.  1.
          4   -1    0    0  502    0 -0.00000000000E+00 -0.00000000000E+00 -0.29583424806E+03  0.29583424806E+03  0.00000000000E+00 0. -1.
         23    2    1    2    0    0 -0.71796016881E+02 -0.33543527406E+02 -0.25574430926E+03  0.28338783937E+03  0.92863768565E+02 0.  0.
         24    2    1    2    0    0  0.85533073001E+02  0.13866479908E+02  0.12828419098E+03  0.17381640751E+03  0.79038750138E+02 0.  0.
        -11    1    4    4    0    0  0.66922989684E+02 -0.33883386534E+01  0.13212805683E+03  0.14814854299E+03  0.00000000000E+00 0.  1.
         12    1    4    4    0    0  0.18610083317E+02  0.17254818561E+02 -0.38438658524E+01  0.25667864526E+02  0.00000000000E+00 0. -1.
        -13    1    3    3    0    0 -0.37569433511E+02 -0.28228966176E+02 -0.24134459292E+03  0.24587710223E+03  0.00000000000E+00 0. -1.
         13    1    3    3    0    0 -0.34226583371E+02 -0.53145612292E+01 -0.14399716334E+02  0.37510737140E+02  0.00000000000E+00 0.  1.
          3    1    1    2  501    0 -0.13737056119E+02  0.19677047498E+02  0.37608881188E+02  0.44613012152E+02  0.00000000000E+00 0. -1.
<scales pt_clust_5="13000.00000" pt_clust_6="13000.00000" pt_clust_7="13000.00000" pt_clust_8="13000.00000" pt_clust_9="23.99777"></scales>
<clustering>
<clus scale="   23.998">  1  9  2 -1</clus>
<clus scale="   79.039">  5  6 -1 -1</clus>
<clus scale="   92.864">  7  8 -1 -1</clus>
<clus scale="  112.186">  1  5  2 -1</clus>
<clus scale="   23.998">  1  5  2 -1</clus>
</clustering>
</event>
<event>
 9    2  0.3764910E-005  0.1868378E+03  0.7546771E-02  0.1162662E+00
          2   -1    0    0  502    0 -0.00000000000E+00  0.00000000000E+00  0.11136769283E+04  0.11136769283E+04  0.00000000000E+00 0. -1.
         21   -1    0    0  501  502  0.00000000000E+00 -0.00000000000E+00 -0.67317305235E+02  0.67317305235E+02  0.00000000000E+00 0.  1.
         24    2    1    2    0    0 -0.14097069412E+03  0.53309678696E+02  0.52476117714E+03  0.55210356358E+03  0.82032880211E+02 0.  0.
         23    2    1    2    0    0  0.19322794713E+03 -0.61530359818E+02  0.19057517580E+03  0.29366715429E+03  0.93800187357E+02 0.  0.
        -11    1    3    3    0    0 -0.31384682439E+02  0.50268079619E+02  0.23323628244E+03  0.24064713081E+03  0.00000000000E+00 0.  1.
         12    1    3    3    0    0 -0.10958601168E+03  0.30415990772E+01  0.29152489470E+03  0.31145643277E+03  0.00000000000E+00 0. -1.
        -13    1    4    4    0    0  0.17505035294E+03 -0.73931606843E+02  0.13275841747E+03  0.23180445631E+03  0.00000000000E+00 0.  1.
         13    1    4    4    0    0  0.18177594185E+02  0.12401247025E+02  0.57816758324E+02  0.61862697979E+02  0.00000000000E+00 0. -1.
          1    1    1    2  501    0 -0.52257253006E+02  0.82206811220E+01  0.33102327008E+03  0.33522351562E+03  0.00000000000E+00 0. -1.
<scales pt_clust_5="13000.00000" pt_clust_6="13000.00000" pt_clust_7="13000.00000" pt_clust_8="13000.00000" pt_clust_9="52.89993"></scales>
<clustering>
<clus scale="   52.900">  2  9  1 -1</clus>
<clus scale="   82.033">  5  6 -1 -1</clus>
<clus scale="   93.800">  7  8 -1 -1</clus>
<clus scale="  181.216">  1  5  2 -1</clus>
<clus scale="   52.900">  2  5  1 -1</clus>
</clustering>
</event>
<event>
 9    2  0.3764910E-005  0.1848900E+03  0.7546771E-02  0.1170313E+00
         21   -1    0    0  501  502  0.00000000000E+00  0.00000000000E+00  0.46910167523E+03  0.46910167523E+03  0.00000000000E+00 0. -1.
         -1   -1    0    0    0  501 -0.00000000000E+00 -0.00000000000E+00 -0.97505940594E+02  0.97505940594E+02  0.00000000000E+00 0.  1.
         24    2    1    2    0    0 -0.91505216424E+02  0.10102210078E+03  0.23683636563E+02  0.15959326878E+03  0.79563982559E+02 0.  0.
         23    2    1    2    0    0  0.10744449440E+03 -0.78639409251E+02  0.29487315552E+03  0.34728014503E+03  0.12619368139E+03 0.  0.
        -13    1    3    3    0    0 -0.85807548113E+02  0.91031759876E+02 -0.85288781203E+01  0.12538922753E+03  0.00000000000E+00 0.  1.
         14    1    3    3    0    0 -0.56976683109E+01  0.99903409056E+01  0.32212514683E+02  0.34204041250E+02  0.00000000000E+00 0. -1.
        -13    1    4    4    0    0 -0.74817147878E+01  0.19957483473E+02  0.90185311913E+02  0.92669669728E+02  0.00000000000E+00 0. -1.
         13    1    4    4    0    0  0.11492620919E+03 -0.98596892723E+02  0.20468784361E+03  0.25461047531E+03  0.00000000000E+00 0.  1.
         -2    1    1    2    0  502 -0.15939277979E+02 -0.22382691531E+02  0.53038942547E+02  0.59734202005E+02  0.00000000000E+00 0.  1.
<scales pt_clust_5="13000.00000" pt_clust_6="13000.00000" pt_clust_7="13000.00000" pt_clust_8="13000.00000" pt_clust_9="27.47809"></scales>
<clustering>
<clus scale="   27.478">  1  9  2 -1</clus>
<clus scale="   79.564">  5  6 -1 -1</clus>
<clus scale="  126.194">  7  8 -1 -1</clus>
<clus scale="  156.812">  2  5  1 -1</clus>
<clus scale="   27.478">  1  5  2 -1</clus>
</clustering>
</event>
<event>
 9    2  0.3764910E-005  0.1669194E+03  0.7546771E-02  0.1182960E+00
         -1   -1    0    0    0  501 -0.00000000000E+00  0.00000000000E+00  0.17735846183E+03  0.17735846183E+03  0.00000000000E+00 0.  1.
         21   -1    0    0  501  502  0.00000000000E+00 -0.00000000000E+00 -0.29587718732E+03  0.29587718732E+03  0.00000000000E+00 0.  1.
         24    2    1    2    0    0  0.22681387378E+02 -0.14164756350E+03  0.85235016673E+02  0.18416961895E+03  0.77942048330E+02 0.  0.
         23    2    1    2    0    0 -0.37861525235E+02  0.11800561343E+03 -0.20997152090E+03  0.26029036060E+03  0.91127451075E+02 0.  0.
        -13    1    3    3    0    0  0.71317353054E+01 -0.12527645194E+03  0.97101510780E+02  0.15866239143E+03  0.00000000000E+00 0.  1.
         14    1    3    3    0    0  0.15549652072E+02 -0.16371111565E+02 -0.11866494107E+02  0.25507227521E+02  0.00000000000E+00 0. -1.
        -11    1    4    4    0    0 -0.23828603429E+02  0.80208826841E+02 -0.20274165170E+03  0.21932951369E+03  0.00000000000E+00 0.  1.
         11    1    4    4    0    0 -0.14032921806E+02  0.37796786587E+02 -0.72298692043E+01  0.40960846908E+02  0.00000000000E+00 0. -1.
         -2    1    1    2    0  502  0.15180137858E+02  0.23641950072E+02  0.62177787369E+01  0.28775669601E+02  0.00000000000E+00 0.  1.
<scales pt_clust_5="13000.00000" pt_clust_6="13000.00000" pt_clust_7="13000.00000" pt_clust_8="13000.00000" pt_clust_9="28.09589"></scales>
<clustering>
<clus scale="   28.096">  2  9  1 -1</clus>
<clus scale="   77.942">  5  6 -1 -1</clus>
<clus scale="   91.127">  7  8 -1 -1</clus>
<clus scale="  160.103">  1  5  2 -1</clus>
<clus scale="   28.096">  2  5  1 -1</clus>
</clustering>
</event>
<event>
 9    2  0.3764910E-005  0.1022269E+03  0.7546771E-02  0.1280297E+00
         -1   -1    0    0    0  501 -0.00000000000E+00  0.00000000000E+00  0.20536204091E+03  0.20536204091E+03  0.00000000000E+00 0.  1.
         21   -1    0    0  501  502  0.00000000000E+00 -0.00000000000E+00 -0.21148290647E+03  0.21148290647E+03  0.00000000000E+00 0.  1.
         23    2    1    2    0    0  0.18584618086E+02 -0.40134296088E+02  0.14291408478E+03  0.17601054651E+03  0.92731478484E+02 0.  0.
         24    2    1    2    0    0 -0.54607467626E+02  0.11741496325E+02 -0.17679058133E+02  0.10170077020E+03  0.83130375355E+02 0.  0.
        -11    1    4    4    0    0 -0.76005338282E+02  0.66762982824E+00 -0.12037854801E+02  0.76955617892E+02  0.00000000000E+00 0.  1.
         12    1    4    4    0    0  0.21397870656E+02  0.11073866497E+02 -0.56412033317E+01  0.24745152310E+02  0.00000000000E+00 0. -1.
        -11    1    3    3    0    0 -0.14458521704E+02  0.23465590230E+02  0.62408843645E+02  0.68224237188E+02  0.00000000000E+00 0.  1.
         11    1    3    3    0    0  0.33043139790E+02 -0.63599886318E+02  0.80505241136E+02  0.10778630932E+03  0.00000000000E+00 0. -1.
         -2    1    1    2    0  502  0.36022849539E+02  0.28392799763E+02 -0.13135589221E+03  0.13913363067E+03  0.00000000000E+00 0.  1.
<scales pt_clust_5="13000.00000" pt_clust_6="13000.00000" pt_clust_7="13000.00000" pt_clust_8="13000.00000" pt_clust_9="45.86716"></scales>
<clustering>
<clus scale="   45.867">  2  9  1 -1</clus>
<clus scale="   83.130">  5  6 -1 -1</clus>
<clus scale="   92.731">  7  8 -1 -1</clus>
<clus scale="   93.605">  2  5  1 -1</clus>
<clus scale="   45.867">  2  5  1 -1</clus>
</clustering>
</event>
<event>
 9    2  0.3764910E-005  0.1021118E+03  0.7546771E-02  0.1281585E+00
         21   -1    0    0  501  502  0.00000000000E+00  0.00000000000E+00  0.16048678450E+03  0.16048678450E+03  0.00000000000E+00 0.  1.
         -3   -1    0    0    0  501 -0.00000000000E+00 -0.00000000000E+00 -0.28049334263E+03  0.28049334263E+03  0.00000000000E+00 0.  1.
         23    2    1    2    0    0 -0.92259922675E+01  0.41777425277E+02 -0.23633658282E+03  0.25714274651E+03  0.91852814365E+02 0.  0.
         24    2    1    2    0    0 -0.71684560841E+01 -0.69708532136E+02  0.10511012650E+03  0.14956186776E+03  0.80062146982E+02 0.  0.
        -13    1    4    4    0    0 -0.36260097793E+02 -0.16411211305E+02  0.18761315258E+02  0.44001244285E+02  0.00000000000E+00 0.  1.
         14    1    4    4    0    0  0.29091641709E+02 -0.53297320832E+02  0.86348811243E+02  0.10556062347E+03  0.00000000000E+00 0. -1.
        -13    1    3    3    0    0  0.33619044466E+02  0.25409973327E+02 -0.17807901307E+03  0.18299738192E+03  0.00000000000E+00 0.  1.
         13    1    3    3    0    0 -0.42845036734E+02  0.16367451950E+02 -0.58257569749E+02  0.74145364583E+02  0.00000000000E+00 0. -1.
         -4    1    1    2    0  502  0.16394448352E+02  0.27931106860E+02  0.11219898183E+02  0.34275512868E+02  0.00000000000E+00 0.  1.
<scales pt_clust_5="13000.00000" pt_clust_6="13000.00000" pt_clust_7="13000.00000" pt_clust_8="13000.00000" pt_clust_9="32.38711"></scales>
<clustering>
<clus scale="   32.387">  1  9  2 -1</clus>
<clus scale="   80.062">  5  6 -1 -1</clus>
<clus scale="   91.651">  1  5  2 -1</clus>
<clus scale="   91.853">  7  8 -1 -1</clus>
<clus scale="   32.387">  1  5  2 -1</clus>
</clustering>
</event>
<event>
 9    2  0.3764910E-005  0.1181483E+03  0.7546771E-02  0.1253151E+00
          2   -1    0    0  502    0 -0.00000000000E+00  0.00000000000E+00  0.84869188811E+03  0.84869188811E+03  0.00000000000E+00 0. -1.
         21   -1    0    0  501  502  0.00000000000E+00 -0.00000000000E+00 -0.28606873780E+02  0.28606873780E+02  0.00000000000E+00 0. -1.
         24    2    1    2    0    0 -0.60128064188E+02 -0.59419527763E+02  0.47732601020E+03  0.49005972172E+03  0.71919027085E+02 0.  0.
         23    2    1    2    0    0 -0.44329689142E+01  0.62667147819E+02  0.17773596843E+03  0.21000677351E+03  0.92552405802E+02 0.  0.
        -13    1    3    3    0    0 -0.41744021367E+02 -0.14942709322E+02  0.96423370534E+02  0.10612876267E+03  0.00000000000E+00 0.  1.
         14    1    3    3    0    0 -0.18384042821E+02 -0.44476818441E+02  0.38090263967E+03  0.38393095905E+03  0.00000000000E+00 0. -1.
        -13    1    4    4    0    0  0.40978109727E+02  0.97724031571E+01  0.65060419805E+02  0.77508474153E+02  0.00000000000E+00 0.  1.
         13    1    4    4    0    0 -0.45411078641E+02  0.52894744662E+02  0.11267554862E+03  0.13249829936E+03  0.00000000000E+00 0. -1.
          1    1    1    2  501    0  0.64561033102E+02 -0.32476200562E+01  0.16502303570E+03  0.17723226666E+03  0.00000000000E+00 0. -1.
<scales pt_clust_5="13000.00000" pt_clust_6="13000.00000" pt_clust_7="13000.00000" pt_clust_8="13000.00000" pt_clust_9="64.64266"></scales>
<clustering>
<clus scale="   64.643">  2  9  1 -1</clus>
<clus scale="   71.919">  5  6 -1 -1</clus>
<clus scale="   92.552">  7  8 -1 -1</clus>
<clus scale="  102.788">  1  5  2 -1</clus>
<clus scale="   64.643">  2  5  1 -1</clus>
</clustering>
</event>
<event>
 9    2  0.3780209E-005  0.1616347E+03  0.7546771E-02  0.1217505E+00
         -1   -1    0    0    0  501 -0.00000000000E+00  0.00000000000E+00  0.73634043996E+03  0.73634043996E+03  0.00000000000E+00 0.  1.
         21   -1    0    0  501  502  0.00000000000E+00 -0.00000000000E+00 -0.16270872850E+03  0.16270872850E+03  0.00000000000E+00 0. -1.
         24    2    1    2    0    0 -0.23284959851E+01 -0.36673538888E+02  0.21907270852E+02  0.86112630413E+02  0.74733434635E+02 0.  0.
         23    2    1    2    0    0  0.12532405370E+03 -0.39486090503E+02 -0.69267548982E+02  0.17531655130E+03  0.93126956566E+02 0.  0.
        -13    1    3    3    0    0  0.34122891369E+02 -0.41126872207E+01  0.78520972242E+01  0.35255373241E+02  0.00000000000E+00 0.  1.
         14    1    3    3    0    0 -0.36451387354E+02 -0.32560851667E+02  0.14055173628E+02  0.50857257172E+02  0.00000000000E+00 0. -1.
        -13    1    4    4    0    0  0.57176120821E+02  0.28335246624E+02 -0.37725727130E+02  0.74129788081E+02  0.00000000000E+00 0. -1.
         13    1    4    4    0    0  0.68147932878E+02 -0.67821337127E+02 -0.31541821852E+02  0.10118676322E+03  0.00000000000E+00 0.  1.
         -2    1    1    2    0  502 -0.12299555771E+03  0.76159629390E+02  0.62099198958E+03  0.63761998674E+03  0.00000000000E+00 0.  1.
<scales pt_clust_5="13000.00000" pt_clust_6="13000.00000" pt_clust_7="13000.00000" pt_clust_8="13000.00000" pt_clust_9="132.11038"></scales>
<clustering>
<clus scale="   74.733">  5  6 -1 -1</clus>
<clus scale="   83.279">  1  5  2 -1</clus>
<clus scale="   93.127">  7  8 -1 -1</clus>
<clus scale="  132.110">  2  9  1 -1</clus>
<clus scale="  132.110">  2  5  1 -1</clus>
</clustering>
</event>
<event>
 9    2  0.3764910E-005  0.1169813E+03  0.7546771E-02  0.1253062E+00
         21   -1    0    0  501  502  0.00000000000E+00  0.00000000000E+00  0.21778223157E+03  0.21778223157E+03  0.00000000000E+00 0.  1.
         -1   -1    0    0    0  501 -0.00000000000E+00 -0.00000000000E+00 -0.13456012278E+03  0.13456012278E+03  0.00000000000E+00 0.  1.
         23    2    1    2    0    0  0.20369640851E+02  0.57014378979E+02 -0.10522501135E+02  0.10978065837E+03  0.90969820512E+02 0.  0.
         24    2    1    2    0    0 -0.38627686589E+02 -0.76430985575E+02 -0.27812234897E+02  0.11811722094E+03  0.76448438474E+02 0.  0.
        -13    1    4    4    0    0  0.42784634306E+01 -0.26066549192E+02 -0.42784009673E+02  0.50281624077E+02  0.00000000000E+00 0.  1.
         14    1    4    4    0    0 -0.42906150020E+02 -0.50364436383E+02  0.14971774776E+02  0.67835596862E+02  0.00000000000E+00 0. -1.
        -13    1    3    3    0    0  0.22947065124E+02  0.80918643279E+02 -0.14680403826E+02  0.85380963243E+02  0.00000000000E+00 0. -1.
         13    1    3    3    0    0 -0.25774242731E+01 -0.23904264300E+02  0.41579026918E+01  0.24399695129E+02  0.00000000000E+00 0.  1.
         -2    1    1    2    0  502  0.18258045739E+02  0.19416606596E+02  0.12155684482E+03  0.12444447504E+03  0.00000000000E+00 0.  1.
<scales pt_clust_5="13000.00000" pt_clust_6="13000.00000" pt_clust_7="13000.00000" pt_clust_8="13000.00000" pt_clust_9="26.65260"></scales>
<clustering>
<clus scale="   26.653">  1  9  2 -1</clus>
<clus scale="   76.448">  5  6 -1 -1</clus>
<clus scale="   90.970">  7  8 -1 -1</clus>
<clus scale="  106.082">  1  5  2 -1</clus>
<clus scale="   26.653">  1  5  2 -1</clus>
</clustering>
</event>
<event>
 9    2  0.3764910E-005  0.9225732E+02  0.7546771E-02  0.1303367E+00
         -1   -1    0    0    0  501 -0.00000000000E+00  0.00000000000E+00  0.10287936102E+03  0.10287936102E+03  0.00000000000E+00 0.  1.
         21   -1    0    0  501  502  0.00000000000E+00 -0.00000000000E+00 -0.21347860138E+03  0.21347860138E+03  0.00000000000E+00 0.  1.
         23    2    1    2    0    0  0.12145706554E+02 -0.78610490860E+01  0.44363411521E+02  0.10238713495E+03  0.91135606879E+02 0.  0.
         24    2    1    2    0    0  0.65170168970E+01  0.23949862431E+02 -0.36033516640E+02  0.92515953643E+02  0.81515151581E+02 0.  0.
        -11    1    4    4    0    0  0.41990563921E+02  0.10786927920E+02 -0.33138246126E+02  0.54568384883E+02  0.00000000000E+00 0.  1.
         12    1    4    4    0    0 -0.35473547024E+02  0.13162934511E+02 -0.28952705133E+01  0.37947568760E+02  0.00000000000E+00 0. -1.
        -11    1    3    3    0    0  0.11698056638E+02 -0.43260416072E+02  0.49320607824E+02  0.66639556451E+02  0.00000000000E+00 0.  1.
         11    1    3    3    0    0  0.44764991667E+00  0.35399366986E+02 -0.49571963028E+01  0.35747578500E+02  0.00000000000E+00 0. -1.
         -2    1    1    2    0  502 -0.18662723451E+02 -0.16088813345E+02 -0.11892913524E+03  0.12145487380E+03  0.00000000000E+00 0.  1.
<scales pt_clust_5="13000.00000" pt_clust_6="13000.00000" pt_clust_7="13000.00000" pt_clust_8="13000.00000" pt_clust_9="24.64036"></scales>
<clustering>
<clus scale="   24.640">  2  9  1 -1</clus>
<clus scale="   81.515">  5  6 -1 -1</clus>
<clus scale="   82.767">  2  5  1 -1</clus>
<clus scale="   91.136">  7  8 -1 -1</clus>
<clus scale="   24.640">  2  5  1 -1</clus>
</clustering>
</event>
<event>
 9    2  0.3764910E-005  0.1548643E+03  0.7546771E-02  0.1197570E+00
          2   -1    0    0  502    0 -0.00000000000E+00  0.00000000000E+00  0.27578357149E+03  0.27578357149E+03  0.00000000000E+00 0. -1.
         21   -1    0    0  501  502  0.00000000000E+00 -0.00000000000E+00 -0.16161799455E+03  0.16161799455E+03  0.00000000000E+00 0.  1.
         23    2    1    2    0    0 -0.87095318716E+01 -0.70921213533E+02 -0.40825198316E+01  0.11653218701E+03  0.91964173278E+02 0.  0.
         24    2    1    2    0    0  0.93672393596E+01  0.17486410554E+03  0.10115312434E+03  0.21552805067E+03  0.74533116691E+02 0.  0.
        -11    1    4    4    0    0  0.27189454741E+02  0.45913960185E+02  0.48077032053E+01  0.53576787875E+02  0.00000000000E+00 0.  1.
         12    1    4    4    0    0 -0.17822215381E+02  0.12895014535E+03  0.96345421130E+02  0.16195126279E+03  0.00000000000E+00 0. -1.
        -13    1    3    3    0    0  0.39480395596E+02 -0.50549680732E+02 -0.25416882854E+01  0.64190591506E+02  0.00000000000E+00 0. -1.
         13    1    3    3    0    0 -0.48189927468E+02 -0.20371532801E+02 -0.15408315462E+01  0.52341595504E+02  0.00000000000E+00 0.  1.
          1    1    1    2  501    0 -0.65770748804E+00 -0.10394289200E+03  0.17094972435E+02  0.10534132835E+03  0.00000000000E+00 0. -1.
<scales pt_clust_5="13000.00000" pt_clust_6="13000.00000" pt_clust_7="13000.00000" pt_clust_8="13000.00000" pt_clust_9="103.94497"></scales>
<clustering>
<clus scale="   74.533">  5  6 -1 -1</clus>
<clus scale="   91.964">  7  8 -1 -1</clus>
<clus scale="  103.945">  2  9  1 -1</clus>
<clus scale="  145.192">  2  5  1 -1</clus>
<clus scale="  103.945">  2  5  1 -1</clus>
</clustering>
</event>
<event>
 9    2  0.3764910E-005  0.1434466E+03  0.7546771E-02  0.1230767E+00
          2   -1    0    0  502    0 -0.00000000000E+00  0.00000000000E+00  0.56045289942E+03  0.56045289942E+03  0.00000000000E+00 0. -1.
         21   -1    0    0  501  502  0.00000000000E+00 -0.00000000000E+00 -0.89150674111E+02  0.89150674111E+02  0.00000000000E+00 0. -1.
         24    2    1    2    0    0  0.40880721599E+02 -0.50909845384E+01 -0.18068510420E+02  0.92146597711E+02  0.80419978108E+02 0.  0.
         23    2    1    2    0    0  0.49339930536E+02 -0.48964105022E+02  0.15510187207E+03  0.20703238765E+03  0.11821127904E+03 0.  0.
        -13    1    3    3    0    0  0.38096391070E+02  0.33932786221E+02 -0.70540039651E+01  0.51502698621E+02  0.00000000000E+00 0.  1.
         14    1    3    3    0    0  0.27843305293E+01 -0.39023770760E+02 -0.11014506455E+02  0.40643899090E+02  0.00000000000E+00 0. -1.
        -11    1    4    4    0    0  0.21786015878E+02  0.30816315784E+02  0.98297186531E+02  0.10529298498E+03  0.00000000000E+00 0. -1.
         11    1    4    4    0    0  0.27553914658E+02 -0.79780420806E+02  0.56804685536E+02  0.10173940267E+03  0.00000000000E+00 0.  1.
          1    1    1    2  501    0 -0.90220652135E+02  0.54055089560E+02  0.33426886366E+03  0.35042458817E+03  0.00000000000E+00 0. -1.
<scales pt_clust_5="13000.00000" pt_clust_6="13000.00000" pt_clust_7="13000.00000" pt_clust_8="13000.00000" pt_clust_9="81.25898"></scales>
<clustering>
<clus scale="   80.420">  5  6 -1 -1</clus>
<clus scale="   90.358">  1  5  2 -1</clus>
<clus scale="   81.259">  2  9  1 -1</clus>
<clus scale="  118.211">  7  8 -1 -1</clus>
<clus scale="   81.259">  2  5  1 -1</clus>
</clustering>
</event>
<event>
 9    2  0.3764910E-005  0.9891493E+02  0.7546771E-02  0.1288207E+00
          2   -1    0    0  502    0 -0.00000000000E+00  0.00000000000E+00  0.46325735759E+03  0.46325735759E+03  0.00000000000E+00 0. -1.
         21   -1    0    0  501  502  0.00000000000E+00 -0.00000000000E+00 -0.88874454767E+02  0.88874454767E+02  0.00000000000E+00 0.  1.
         24    2    1    2    0    0 -0.36010454030E+02  0.16680860317E+02  0.37146827396E+03  0.38216444386E+03  0.80535580298E+02 0.  0.
         23    2    1    2    0    0  0.38353989717E+02  0.44253257396E+02  0.75628788198E+01  0.10881129693E+03  0.91396509161E+02 0.  0.
        -13    1    3    3    0    0 -0.46876294601E+02  0.33690388150E+02  0.33939042263E+03  0.34426485186E+03  0.00000000000E+00 0.  1.
         14    1    3    3    0    0  0.10865840571E+02 -0.17009527833E+02  0.32077851324E+02  0.37899592003E+02  0.00000000000E+00 0. -1.
        -11    1    4    4    0    0  0.43999661767E+02 -0.13551628597E+01  0.34153939613E+02  0.55716230069E+02  0.00000000000E+00 0. -1.
         11    1    4    4    0    0 -0.56456720501E+01  0.45608420256E+02 -0.26591060794E+02  0.53095066864E+02  0.00000000000E+00 0.  1.
          1    1    1    2  501    0 -0.23435356867E+01 -0.60934117713E+02 -0.46482499586E+01  0.61156071560E+02  0.00000000000E+00 0. -1.
<scales pt_clust_5="13000.00000" pt_clust_6="13000.00000" pt_clust_7="13000.00000" pt_clust_8="13000.00000" pt_clust_9="60.97917"></scales>
<clustering>
<clus scale="   60.979">  2  9  1 -1</clus>
<clus scale="   80.536">  5  6 -1 -1</clus>
<clus scale="   88.977">  1  5  2 -1</clus>
<clus scale="   91.397">  7  8 -1 -1</clus>
<clus scale="   60.979">  2  5  1 -1</clus>
</clustering>
</event>
<event>
 9    2  0.3764910E-005  0.9174000E+02  0.7546771E-02  0.1304896E+00
         21   -1    0    0  501  502  0.00000000000E+00  0.00000000000E+00  0.79901134136E+02  0.79901134136E+02  0.00000000000E+00 0.  1.
         -1   -1    0    0    0  501 -0.00000000000E+00 -0.00000000000E+00 -0.17591799746E+03  0.17591799746E+03  0.00000000000E+00 0.  1.
         24    2    1    2    0    0  0.96569465780E+00  0.88126268554E+01 -0.94686583471E+02  0.12496135343E+03  0.81062912626E+02 0.  0.
         23    2    1    2    0    0  0.19684141416E+02 -0.13013250968E+02 -0.26810820783E+02  0.97792404451E+02  0.91036938290E+02 0.  0.
        -13    1    3    3    0    0  0.40779057908E+02  0.12766750866E+00 -0.46071293934E+02  0.61526514509E+02  0.00000000000E+00 0.  1.
         14    1    3    3    0    0 -0.39813363250E+02  0.86849593467E+01 -0.48615289537E+02  0.63434838921E+02  0.00000000000E+00 0. -1.
        -11    1    4    4    0    0 -0.30608717968E+02  0.16801726867E+02 -0.44645647692E+01  0.35201192877E+02  0.00000000000E+00 0. -1.
         11    1    4    4    0    0  0.50292859385E+02 -0.29814977835E+02 -0.22346256014E+02  0.62591211574E+02  0.00000000000E+00 0.  1.
         -2    1    1    2    0  502 -0.20649836074E+02  0.42006241128E+01  0.25480540930E+02  0.33065373715E+02  0.00000000000E+00 0.  1.
<scales pt_clust_5="13000.00000" pt_clust_6="13000.00000" pt_clust_7="13000.00000" pt_clust_8="13000.00000" pt_clust_9="21.07275"></scales>
<clustering>
<clus scale="   21.073">  1  9  2 -1</clus>
<clus scale="   81.063">  5  6 -1 -1</clus>
<clus scale="   81.852">  2  5  1 -1</clus>
<clus scale="   91.037">  7  8 -1 -1</clus>
<clus scale="   21.073">  1  5  2 -1</clus>
</clustering>
</event>
<event>
 9    2  0.3764910E-005  0.2192480E+03  0.7546771E-02  0.1135534E+00
          2   -1    0    0  502    0 -0.00000000000E+00  0.00000000000E+00  0.23095715209E+04  0.23095715209E+04  0.00000000000E+00 0. -1.
         21   -1    0    0  501  502  0.00000000000E+00 -0.00000000000E+00 -0.43345768683E+02  0.43345768683E+02  0.00000000000E+00 0. -1.
         24    2    1    2    0    0 -0.22374026159E+03 -0.12126874931E+03  0.93896467177E+03  0.97599967404E+03  0.78453136764E+02 0.  0.
         23    2    1    2    0    0  0.91919823672E+02  0.11051421727E+03  0.33817195250E+03  0.37902504076E+03  0.92935815784E+02 0.  0.
        -13    1    3    3    0    0 -0.36762103743E+02 -0.57851601641E+02  0.22141836914E+03  0.23178514680E+03  0.00000000000E+00 0.  1.
         14    1    3    3    0    0 -0.18697815785E+03 -0.63417147667E+02  0.71754630263E+03  0.74421452724E+03  0.00000000000E+00 0. -1.
        -11    1    4    4    0    0  0.37693954810E+02  0.90338243038E+01  0.17577908874E+03  0.18000203401E+03  0.00000000000E+00 0.  1.
         11    1    4    4    0    0  0.54225868862E+02  0.10148039297E+03  0.16239286377E+03  0.19902300674E+03  0.00000000000E+00 0. -1.
          1    1    1    2  501    0  0.13182043792E+03  0.10754532035E+02  0.98908912797E+03  0.99789257482E+03  0.00000000000E+00 0. -1.
<scales pt_clust_5="13000.00000" pt_clust_6="13000.00000" pt_clust_7="13000.00000" pt_clust_8="13000.00000" pt_clust_9="132.25848"></scales>
<clustering>
<clus scale="   78.453">  5  6 -1 -1</clus>
<clus scale="   92.936">  7  8 -1 -1</clus>
<clus scale="  132.258">  2  9  1 -1</clus>
<clus scale="  213.512">  1  5  2 -1</clus>
<clus scale="  132.258">  2  5  1 -1</clus>
</clustering>
</event>
<event>
 9    2  0.3764910E-005  0.1006371E+03  0.7546771E-02  0.1281695E+00
          2   -1    0    0  502    0 -0.00000000000E+00  0.00000000000E+00  0.23606500781E+03  0.23606500781E+03  0.00000000000E+00 0. -1.
         21   -1    0    0  501  502  0.00000000000E+00 -0.00000000000E+00 -0.53580610923E+02  0.53580610923E+02  0.00000000000E+00 0.  1.
         23    2    1    2    0    0  0.46908441480E+00 -0.37696947873E+02  0.86697926472E+02  0.12974077697E+03  0.88853018157E+02 0.  0.
         24    2    1    2    0    0  0.15186988597E+02  0.56486237851E+02  0.87564094474E+02  0.13410256461E+03  0.83034255004E+02 0.  0.
        -11    1    4    4    0    0  0.38086061906E+02 -0.13211929711E+01  0.23223873971E+02  0.44627816265E+02  0.00000000000E+00 0.  1.
         12    1    4    4    0    0 -0.22899073309E+02  0.57807430822E+02  0.64340220503E+02  0.89474748343E+02  0.00000000000E+00 0. -1.
        -11    1    3    3    0    0  0.31963981984E+02  0.34893649137E+01  0.43738416488E+01  0.32449996958E+02  0.00000000000E+00 0.  1.
         11    1    3    3    0    0 -0.31494897569E+02 -0.41186312787E+02  0.82324084824E+02  0.97290780015E+02  0.00000000000E+00 0. -1.
          1    1    1    2  501    0 -0.15656073012E+02 -0.18789289978E+02  0.82223759363E+01  0.25802277149E+02  0.00000000000E+00 0. -1.
<scales pt_clust_5="13000.00000" pt_clust_6="13000.00000" pt_clust_7="13000.00000" pt_clust_8="13000.00000" pt_clust_9="24.45711"></scales>
<clustering>
<clus scale="   24.457">  2  9  1 -1</clus>
<clus scale="   83.034">  5  6 -1 -1</clus>
<clus scale="   88.853">  7  8 -1 -1</clus>
<clus scale="   95.539">  2  5  1 -1</clus>
<clus scale="   24.457">  2  5  1 -1</clus>
</clustering>
</event>
<event>
 9    2  0.3764910E-005  0.9432375E+02  0.7546771E-02  0.1300081E+00
          2   -1    0    0  502    0 -0.00000000000E+00  0.00000000000E+00  0.88792879825E+03  0.88792879825E+03  0.00000000000E+00 0. -1.
         21   -1    0    0  501  502  0.00000000000E+00 -0.00000000000E+00 -0.12290911651E+02  0.12290911651E+02  0.00000000000E+00 0. -1.
         23    2    1    2    0    0  0.20712262521E+02  0.57210191463E+01  0.49552092224E+03  0.50440805165E+03  0.91786547578E+02 0.  0.
         24    2    1    2    0    0 -0.21780012942E+02  0.19825412329E+02  0.28302728676E+03  0.29541162962E+03  0.79348408472E+02 0.  0.
        -13    1    4    4    0    0  0.15391523538E+02  0.22730189798E+02  0.34430144422E+02  0.44034025140E+02  0.00000000000E+00 0.  1.
         14    1    4    4    0    0 -0.37171536480E+02 -0.29047774684E+01  0.24859714234E+03  0.25137760448E+03  0.00000000000E+00 0. -1.
        -13    1    3    3    0    0  0.39189323532E+02 -0.32792346222E+02  0.24510059542E+03  0.25037061115E+03  0.00000000000E+00 0.  1.
         13    1    3    3    0    0 -0.18477061011E+02  0.38513365369E+02  0.25042032681E+03  0.25403744050E+03  0.00000000000E+00 0. -1.
          1    1    1    2  501    0  0.10677504208E+01 -0.25546431475E+02  0.97089677601E+02  0.10040002863E+03  0.00000000000E+00 0. -1.
<scales pt_clust_5="13000.00000" pt_clust_6="13000.00000" pt_clust_7="13000.00000" pt_clust_8="13000.00000" pt_clust_9="25.56874"></scales>
<clustering>
<clus scale="   25.569">  2  9  1 -1</clus>
<clus scale="   79.348">  5  6 -1 -1</clus>
<clus scale="   82.270">  2  5  1 -1</clus>
<clus scale="   91.787">  7  8 -1 -1</clus>
<clus scale="   25.569">  2  5  1 -1</clus>
</clustering>
</event>
<event>
 9    2  0.3764910E-005  0.2654829E+03  0.7546771E-02  0.1104792E+00
         -1   -1    0    0    0  501 -0.00000000000E+00  0.00000000000E+00  0.24691459903E+03  0.24691459903E+03  0.00000000000E+00 0.  1.
         21   -1    0    0  501  502  0.00000000000E+00 -0.00000000000E+00 -0.47780851664E+03  0.47780851664E+03  0.00000000000E+00 0. -1.
         24    2    1    2    0    0  0.10773896260E+03 -0.26612873255E+03 -0.37603911826E+02  0.30058860650E+03  0.80667650377E+02 0.  0.
         23    2    1    2    0    0  0.22506387034E+02  0.21149858023E+03 -0.14103532396E+03  0.27353950122E+03  0.98461714530E+02 0.  0.
        -13    1    3    3    0    0  0.15291459196E+01 -0.97351111242E+02  0.15044482972E+01  0.97374742679E+02  0.00000000000E+00 0.  1.
         14    1    3    3    0    0  0.10620981668E+03 -0.16877762131E+03 -0.39108360124E+02  0.20321386382E+03  0.00000000000E+00 0. -1.
        -11    1    4    4    0    0  0.58383741353E+02  0.10672929355E+03 -0.56046563563E+02  0.13394409521E+03  0.00000000000E+00 0.  1.
         11    1    4    4    0    0 -0.35877354318E+02  0.10476928668E+03 -0.84988760402E+02  0.13959540601E+03  0.00000000000E+00 0. -1.
         -2    1    1    2    0  502 -0.13024534964E+03  0.54630152326E+02 -0.52254681816E+02  0.15059500794E+03  0.00000000000E+00 0.  1.
<scales pt_clust_5="13000.00000" pt_clust_6="13000.00000" pt_clust_7="13000.00000" pt_clust_8="13000.00000" pt_clust_9="141.23847"></scales>
<clustering>
<clus scale="   80.668">  5  6 -1 -1</clus>
<clus scale="   98.462">  7  8 -1 -1</clus>
<clus scale="  141.238">  2  9  1 -1</clus>
<clus scale="  259.410">  1  5  2 -1</clus>
<clus scale="  141.238">  2  5  1 -1</clus>
</clustering>
</event>
<event>
 9    2  0.3764910E-005  0.1073013E+03  0.7546771E-02  0.1270084E+00
          2   -1    0    0  502    0 -0.00000000000E+00  0.00000000000E+00  0.61129749428E+03  0.61129749428E+03  0.00000000000E+00 0. -1.
         21   -1    0    0  501  502  0.00000000000E+00 -0.00000000000E+00 -0.44165135332E+02  0.44165135332E+02  0.00000000000E+00 0. -1.
         24    2    1    2    0    0  0.31991489649E+02  0.63798021404E+02  0.43400465943E+03  0.44722549325E+03  0.80975023733E+02 0.  0.
         23    2    1    2    0    0 -0.20605657357E+02 -0.77340685350E+01  0.11415963350E+03  0.14796615232E+03  0.91526779574E+02 0.  0.
        -13    1    3    3    0    0  0.32436011331E+02  0.37331411176E+02  0.94210156950E+02  0.10640151674E+03  0.00000000000E+00 0.  1.
         14    1    3    3    0    0 -0.44452168148E+00  0.26466610228E+02  0.33979450247E+03  0.34082397652E+03  0.00000000000E+00 0. -1.
        -13    1    4    4    0    0  0.63862742600E+01  0.38895900766E+02  0.58135779258E+02  0.70238482510E+02  0.00000000000E+00 0. -1.
         13    1    4    4    0    0 -0.26991931617E+02 -0.46629969301E+02  0.56023854246E+02  0.77727669810E+02  0.00000000000E+00 0.  1.
          1    1    1    2  501    0 -0.11385832292E+02 -0.56063952869E+02  0.18968066015E+02  0.60270984035E+02  0.00000000000E+00 0. -1.
<scales pt_clust_5="13000.00000" pt_clust_6="13000.00000" pt_clust_7="13000.00000" pt_clust_8="13000.00000" pt_clust_9="57.20843"></scales>
<clustering>
<clus scale="   57.208">  2  9  1 -1</clus>
<clus scale="   80.975">  5  6 -1 -1</clus>
<clus scale="   91.527">  7  8 -1 -1</clus>
<clus scale="   98.455">  1  5  2 -1</clus>
<clus scale="   57.208">  2  5  1 -1</clus>
</clustering>
</event>
<event>
 9    2  0.3764910E-005  0.1000773E+03  0.7546771E-02  0.1284923E+00
         21   -1    0    0  501  502  0.00000000000E+00  0.00000000000E+00  0.26275035781E+02  0.26275035781E+02  0.00000000000E+00 0.  1.
          2   -1    0    0  502    0 -0.00000000000E+00 -0.00000000000E+00 -0.69439101363E+03  0.69439101363E+03  0.00000000000E+00 0. -1.
         23    2    1    2    0    0 -0.28116188870E+02 -0.41589697120E+02 -0.27743930582E+03  0.29574841524E+03  0.89299124945E+02 0.  0.
         24    2    1    2    0    0  0.50694835162E+02  0.14420258388E+01 -0.13214004630E+03  0.16230990843E+03  0.79444753061E+02 0.  0.
        -13    1    4    4    0    0  0.29210818267E+02  0.35524619646E+02 -0.37125463506E+02  0.59106434044E+02  0.00000000000E+00 0.  1.
         14    1    4    4    0    0  0.21484016895E+02 -0.34082593807E+02 -0.95014582795E+02  0.10320347439E+03  0.00000000000E+00 0. -1.
        -13    1    3    3    0    0  0.11818718812E+02 -0.52196135246E+02 -0.98493182281E+02  0.11209382501E+03  0.00000000000E+00 0.  1.
         13    1    3    3    0    0 -0.39934907682E+02  0.10606438126E+02 -0.17894612354E+03  0.18365459023E+03  0.00000000000E+00 0. -1.
          1    1    1    2  501    0 -0.22578646292E+02  0.40147671281E+02 -0.25853662573E+03  0.26260772575E+03  0.00000000000E+00 0. -1.
<scales pt_clust_5="13000.00000" pt_clust_6="13000.00000" pt_clust_7="13000.00000" pt_clust_8="13000.00000" pt_clust_9="46.06119"></scales>
<clustering>
<clus scale="   46.061">  1  9  2 -1</clus>
<clus scale="   79.445">  5  6 -1 -1</clus>
<clus scale="   89.299">  7  8 -1 -1</clus>
<clus scale="   91.393">  1  5  2 -1</clus>
<clus scale="   46.061">  1  5  2 -1</clus>
</clustering>
</event>
<event>
 9    2  0.3764910E-005  0.9396517E+02  0.7546771E-02  0.1299481E+00
         21   -1    0    0  501  502  0.00000000000E+00  0.00000000000E+00  0.17747147986E+03  0.17747147986E+03  0.00000000000E+00 0. -1.
          2   -1    0    0  502    0 -0.00000000000E+00 -0.00000000000E+00 -0.33277880332E+03  0.33277880332E+03  0.00000000000E+00 0. -1.
         24    2    1    2    0    0  0.59146455145E+01  0.23582987124E+02 -0.28134352269E+03  0.29382029135E+03  0.81148293465E+02 0.  0.
         23    2    1    2    0    0 -0.31221509969E+02  0.64288346185E+01  0.13992329483E+02  0.97707729468E+02  0.91295687270E+02 0.  0.
        -11    1    3    3    0    0 -0.26866987767E+02  0.37673118778E+02 -0.12078983500E+03  0.12934946135E+03  0.00000000000E+00 0.  1.
         12    1    3    3    0    0  0.32781633281E+02 -0.14090131653E+02 -0.16055368769E+03  0.16447083000E+03  0.00000000000E+00 0. -1.
        -13    1    4    4    0    0 -0.37754143996E+02 -0.36855179937E+02  0.47975368231E+01  0.52978260038E+02  0.00000000000E+00 0.  1.
         13    1    4    4    0    0  0.65326340274E+01  0.43284014556E+02  0.91947926601E+01  0.44729469430E+02  0.00000000000E+00 0. -1.
          1    1    1    2  501    0  0.25306864454E+02 -0.30011821743E+02  0.11204386975E+03  0.11872226237E+03  0.00000000000E+00 0. -1.
<scales pt_clust_5="13000.00000" pt_clust_6="13000.00000" pt_clust_7="13000.00000" pt_clust_8="13000.00000" pt_clust_9="39.25744"></scales>
<clustering>
<clus scale="   39.257">  1  9  2 -1</clus>
<clus scale="   81.148">  5  6 -1 -1</clus>
<clus scale="   84.140">  2  5  1 -1</clus>
<clus scale="   91.296">  7  8 -1 -1</clus>
<clus scale="   39.257">  1  5  2 -1</clus>
</clustering>
</event>
<event>
 9    2  0.3764910E-005  0.1461160E+03  0.7546771E-02  0.1208218E+00
         21   -1    0    0  501  502  0.00000000000E+00  0.00000000000E+00  0.45129598038E+02  0.45129598038E+02  0.00000000000E+00 0. -1.
          2   -1    0    0  502    0 -0.00000000000E+00 -0.00000000000E+00 -0.57822362736E+03  0.57822362736E+03  0.00000000000E+00 0. -1.
         23    2    1    2    0    0  0.31033758473E+02  0.11450377771E+03 -0.31806635807E+03  0.35250846988E+03  0.94983177074E+02 0.  0.
         24    2    1    2    0    0 -0.54690266881E+01 -0.10351436613E+03 -0.19971153201E+03  0.23908146225E+03  0.80809128971E+02 0.  0.
        -11    1    4    4    0    0 -0.15013022164E+02 -0.11079289903E+03 -0.19739166844E+03  0.22685662451E+03  0.00000000000E+00 0.  1.
         12    1    4    4    0    0  0.95439954763E+01  0.72785329014E+01 -0.23198635616E+01  0.12224837741E+02  0.00000000000E+00 0. -1.
        -13    1    3    3    0    0 -0.17169340854E+02  0.85212887781E+02 -0.24655524131E+03  0.26142974110E+03  0.00000000000E+00 0.  1.
         13    1    3    3    0    0  0.48203099328E+02  0.29290889928E+02 -0.71511116754E+02  0.91078728784E+02  0.00000000000E+00 0. -1.
          1    1    1    2  501    0 -0.25564731785E+02 -0.10989411577E+02 -0.15316139249E+02  0.31763293273E+02  0.00000000000E+00 0. -1.
<scales pt_clust_5="13000.00000" pt_clust_6="13000.00000" pt_clust_7="13000.00000" pt_clust_8="13000.00000" pt_clust_9="27.82665"></scales>
<clustering>
<clus scale="   27.827">  1  9  2 -1</clus>
<clus scale="   80.809">  5  6 -1 -1</clus>
<clus scale="   94.983">  7  8 -1 -1</clus>
<clus scale="  137.325">  1  5  2 -1</clus>
<clus scale="   27.827">  1  5  2 -1</clus>
</clustering>
</event>
<event>
 9    2  0.3764910E-005  0.9468702E+02  0.7546771E-02  0.1299500E+00
         21   -1    0    0  501  502  0.00000000000E+00  0.00000000000E+00  0.96257648061E+02  0.96257648061E+02  0.00000000000E+00 0.  1.
         -1   -1    0    0    0  501 -0.00000000000E+00 -0.00000000000E+00 -0.17428425326E+03  0.17428425326E+03  0.00000000000E+00 0.  1.
         23    2    1    2    0    0  0.76647919535E+01 -0.14708835769E+02 -0.12149440373E+03  0.15447021717E+03  0.93941785005E+02 0.  0.
         24    2    1    2    0    0  0.11634092817E+02  0.15263845904E+00  0.25785231806E+02  0.86121675812E+02  0.81343035665E+02 0.  0.
        -11    1    4    4    0    0  0.46272518077E+02  0.14230339815E+01  0.21993621598E+02  0.51253198397E+02  0.00000000000E+00 0.  1.
         12    1    4    4    0    0 -0.34638425260E+02 -0.12703955224E+01  0.37916102081E+01  0.34868477415E+02  0.00000000000E+00 0. -1.
        -13    1    3    3    0    0  0.46705257483E+02 -0.20553226189E+02 -0.91961571023E+02  0.10517008476E+03  0.00000000000E+00 0.  1.
         13    1    3    3    0    0 -0.39040465530E+02  0.58443904199E+01 -0.29532832708E+02  0.49300132413E+02  0.00000000000E+00 0. -1.
         -2    1    1    2    0  502 -0.19298884771E+02  0.14556197310E+02  0.17682566724E+02  0.29950008339E+02  0.00000000000E+00 0.  1.
<scales pt_clust_5="13000.00000" pt_clust_6="13000.00000" pt_clust_7="13000.00000" pt_clust_8="13000.00000" pt_clust_9="24.17292"></scales>
<clustering>
<clus scale="   24.173">  1  9  2 -1</clus>
<clus scale="   81.343">  5  6 -1 -1</clus>
<clus scale="   82.203">  1  5  2 -1</clus>
<clus scale="   93.942">  7  8 -1 -1</clus>
<clus scale="   24.173">  1  5  2 -1</clus>
</clustering>
</event>
<event>
 9    2  0.3764910E-005  0.9474201E+02  0.7546771E-02  0.1299419E+00
         21   -1    0    0  501  502  0.00000000000E+00  0.00000000000E+00  0.15181361043E+03  0.15181361043E+03  0.00000000000E+00 0.  1.
         -1   -1    0    0    0  501 -0.00000000000E+00 -0.00000000000E+00 -0.87229235190E+02  0.87229235190E+02  0.00000000000E+00 0.  1.
         24    2    1    2    0    0 -0.51819553255E+01 -0.38211648806E+01  0.24033807558E+02  0.85286886730E+02  0.81576805407E+02 0.  0.
         23    2    1    2    0    0 -0.11651890602E+02 -0.30681214937E+02  0.53539590697E+02  0.11322810057E+03  0.94217893635E+02 0.  0.
        -11    1    3    3    0    0 -0.75898902878E+01  0.21660957313E+02  0.46096705667E+02  0.51494754876E+02  0.00000000000E+00 0.  1.
         12    1    3    3    0    0  0.24079349622E+01 -0.25482122194E+02 -0.22062898109E+02  0.33792131855E+02  0.00000000000E+00 0. -1.
        -13    1    4    4    0    0  0.13589927621E+02 -0.56981529906E+02  0.49233150295E+02  0.76521134147E+02  0.00000000000E+00 0.  1.
         13    1    4    4    0    0 -0.25241818223E+02  0.26300314969E+02  0.43064404020E+01  0.36706966418E+02  0.00000000000E+00 0. -1.
         -2    1    1    2    0  502  0.16833845928E+02  0.34502379817E+02 -0.12989023012E+02  0.40527858327E+02  0.00000000000E+00 0.  1.
<scales pt_clust_5="13000.00000" pt_clust_6="13000.00000" pt_clust_7="13000.00000" pt_clust_8="13000.00000" pt_clust_9="38.39003"></scales>
<clustering>
<clus scale="   38.390">  1  9  2 -1</clus>
<clus scale="   81.577">  5  6 -1 -1</clus>
<clus scale="   82.182">  2  5  1 -1</clus>
<clus scale="   94.218">  7  8 -1 -1</clus>
<clus scale="   38.390">  1  5  2 -1</clus>
</clustering>
</event>
<event>
 9    2  0.3764910E-005  0.1096465E+03  0.7546771E-02  0.1268611E+00
         -1   -1    0    0    0  501 -0.00000000000E+00  0.00000000000E+00  0.27095042087E+03  0.27095042087E+03  0.00000000000E+00 0.  1.
         21   -1    0    0  501  502  0.00000000000E+00 -0.00000000000E+00 -0.12209353273E+03  0.12209353273E+03  0.00000000000E+00 0.  1.
         24    2    1    2    0    0 -0.31882764570E+02  0.59467769859E+02  0.12095545769E+03  0.16045193661E+03  0.81004165875E+02 0.  0.
         23    2    1    2    0    0 -0.59239146627E+02 -0.31008245571E+02  0.58762840837E+02  0.13226468335E+03  0.97826822556E+02 0.  0.
        -13    1    3    3    0    0 -0.22168522781E+02 -0.10214388577E+02  0.68426348227E+02  0.72649447816E+02  0.00000000000E+00 0.  1.
         14    1    3    3    0    0 -0.97142417888E+01  0.69682158436E+02  0.52529109462E+02  0.87802488795E+02  0.00000000000E+00 0. -1.
        -13    1    4    4    0    0  0.20912157806E+02  0.45150072918E+01  0.35686265592E+02  0.41607850063E+02  0.00000000000E+00 0. -1.
         13    1    4    4    0    0 -0.80151304433E+02 -0.35523252863E+02  0.23076575245E+02  0.90656833285E+02  0.00000000000E+00 0.  1.
         -2    1    1    2    0  502  0.91121911196E+02 -0.28459524288E+02 -0.30861410386E+02  0.10032733363E+03  0.00000000000E+00 0.  1.
<scales pt_clust_5="13000.00000" pt_clust_6="13000.00000" pt_clust_7="13000.00000" pt_clust_8="13000.00000" pt_clust_9="95.46281"></scales>
<clustering>
<clus scale="   81.004">  5  6 -1 -1</clus>
<clus scale="   95.463">  2  9  1 -1</clus>
<clus scale="   94.942">  1  5  2 -1</clus>
<clus scale="   97.827">  7  8 -1 -1</clus>
<clus scale="   95.463">  2  5  1 -1</clus>
</clustering>
</event>
<event>
 9    2  0.3764910E-005  0.1641865E+03  0.7546771E-02  0.1185787E+00
          2   -1    0    0  502    0 -0.00000000000E+00  0.00000000000E+00  0.15301096407E+03  0.15301096407E+03  0.00000000000E+00 0. -1.
         21   -1    0    0  501  502  0.00000000000E+00 -0.00000000000E+00 -0.25718917150E+03  0.25718917150E+03  0.00000000000E+00 0.  1.
         23    2    1    2    0    0 -0.33611070866E+02 -0.12744522660E+03  0.45120649727E+02  0.16700073338E+03  0.92094419211E+02 0.  0.
         24    2    1    2    0    0  0.25426531910E+02  0.14648129267E+03 -0.14335059770E+03  0.22164156650E+03  0.80450683720E+02 0.  0.
        -11    1    4    4    0    0  0.87950067684E+00  0.13646029890E+03 -0.13896946285E+03  0.19476831956E+03  0.00000000000E+00 0.  1.
         12    1    4    4    0    0  0.24547031234E+02  0.10020993772E+02 -0.43811348444E+01  0.26873246940E+02  0.00000000000E+00 0. -1.
        -11    1    3    3    0    0  0.28050495784E+02 -0.40848351917E+02 -0.43577269124E+01  0.49743421192E+02  0.00000000000E+00 0.  1.
         11    1    3    3    0    0 -0.61661566651E+02 -0.86596874686E+02  0.49478376639E+02  0.11725731219E+03  0.00000000000E+00 0. -1.
          1    1    1    2  501    0  0.81845389561E+01 -0.19036066071E+02 -0.59482594573E+01  0.21557835697E+02  0.00000000000E+00 0. -1.
<scales pt_clust_5="13000.00000" pt_clust_6="13000.00000" pt_clust_7="13000.00000" pt_clust_8="13000.00000" pt_clust_9="20.72097"></scales>
<clustering>
<clus scale="   20.721">  2  9  1 -1</clus>
<clus scale="   80.451">  5  6 -1 -1</clus>
<clus scale="   92.094">  7  8 -1 -1</clus>
<clus scale="  157.950">  2  5  1 -1</clus>
<clus scale="   20.721">  2  5  1 -1</clus>
</clustering>
</event>
<event>
 9    2  0.3764910E-005  0.1005879E+03  0.7546771E-02  0.1284334E+00
         -3   -1    0    0    0  501 -0.00000000000E+00  0.00000000000E+00  0.14363231153E+03  0.14363231153E+03  0.00000000000E+00 0.  1.
         21   -1    0    0  501  502  0.00000000000E+00 -0.00000000000E+00 -0.18462425382E+03  0.18462425382E+03  0.00000000000E+00 0. -1.
         23    2    1    2    0    0 -0.30909280824E+02 -0.37644393073E+02  0.92071989774E+02  0.13812390518E+03  0.90710958052E+02 0.  0.
         24    2    1    2    0    0  0.37813634042E+02 -0.87379580847E+01 -0.85137845636E+02  0.12308116986E+03  0.79964359456E+02 0.  0.
        -13    1    4    4    0    0  0.41498757917E+02 -0.18270927237E+02 -0.89585909939E+01  0.46219368704E+02  0.00000000000E+00 0.  1.
         14    1    4    4    0    0 -0.36851238757E+01  0.95329691525E+01 -0.76179254643E+02  0.76861801155E+02  0.00000000000E+00 0. -1.
        -13    1    3    3    0    0 -0.63222365689E+02 -0.28707558307E+02  0.62044855483E+02  0.93116891696E+02  0.00000000000E+00 0.  1.
         13    1    3    3    0    0  0.32313084865E+02 -0.89368347664E+01  0.30027134290E+02  0.45007013485E+02  0.00000000000E+00 0. -1.
         -4    1    1    2    0  502 -0.69043532175E+01  0.46382351158E+02 -0.47926086427E+02  0.67051490308E+02  0.00000000000E+00 0.  1.
<scales pt_clust_5="13000.00000" pt_clust_6="13000.00000" pt_clust_7="13000.00000" pt_clust_8="13000.00000" pt_clust_9="46.89342"></scales>
<clustering>
<clus scale="   46.893">  2  9  1 -1</clus>
<clus scale="   79.964">  5  6 -1 -1</clus>
<clus scale="   90.711">  7  8 -1 -1</clus>
<clus scale="   91.015">  2  5  1 -1</clus>
<clus scale="   46.893">  2  5  1 -1</clus>
</clustering>
</event>
<event>
 9    2  0.5583144E-005  0.1317945E+03  0.7546771E-02  0.1241867E+00
          4   -1    0    0  502    0 -0.00000000000E+00  0.00000000000E+00  0.33824384183E+03  0.33824384183E+03  0.00000000000E+00 0. -1.
         21   -1    0    0  501  502  0.00000000000E+00 -0.00000000000E+00 -0.73700524166E+03  0.73700524166E+03  0.00000000000E+00 0. -1.
         24    2    1    2    0    0  0.38942521632E+02 -0.12461418877E+01 -0.28339086138E+01  0.92905117077E+02  0.84292685806E+02 0.  0.
         23    2    1    2    0    0  0.21749501327E+02 -0.71635101150E+02  0.27778313129E+03  0.30199023481E+03  0.91815060678E+02 0.  0.
        -11    1    3    3    0    0 -0.50870762462E+01  0.26866969555E+02 -0.24152063049E+02  0.36483346164E+02  0.00000000000E+00 0.  1.
         12    1    3    3    0    0  0.44029597879E+02 -0.28113111443E+02  0.21318154435E+02  0.56421770912E+02  0.00000000000E+00 0. -1.
        -13    1    4    4    0    0  0.41076717972E+02 -0.53587475917E+02  0.26334266590E+03  0.27186076219E+03  0.00000000000E+00 0. -1.
         13    1    4    4    0    0 -0.19327216645E+02 -0.18047625233E+02  0.14440465389E+02  0.30129472622E+02  0.00000000000E+00 0.  1.
          3    1    1    2  501    0 -0.60692022960E+02  0.72881243038E+02 -0.67371062251E+03  0.68035373161E+03  0.00000000000E+00 0. -1.
<scales pt_clust_5="13000.00000" pt_clust_6="13000.00000" pt_clust_7="13000.00000" pt_clust_8="13000.00000" pt_clust_9="94.55044"></scales>
<clustering>
<clus scale="   84.293">  5  6 -1 -1</clus>
<clus scale="   91.815">  7  8 -1 -1</clus>
<clus scale="   92.862">  1  5  2 -1</clus>
<clus scale="   94.550">  2  9  1 -1</clus>
<clus scale="   94.550">  2  5  1 -1</clus>
</clustering>
</event>
<event>
 9    2  0.3764910E-005  0.1067992E+03  0.7546771E-02  0.1270100E+00
         -1   -1    0    0    0  501 -0.00000000000E+00  0.00000000000E+00  0.15787210921E+03  0.15787210921E+03  0.00000000000E+00 0.  1.
         21   -1    0    0  501  502  0.00000000000E+00 -0.00000000000E+00 -0.18279573147E+03  0.18279573147E+03  0.00000000000E+00 0.  1.
         24    2    1    2    0    0 -0.56118614868E+02  0.10818960672E+02  0.10548413857E+03  0.14477594934E+03  0.81035937532E+02 0.  0.
         23    2    1    2    0    0  0.58273806334E+02 -0.33333657472E+02 -0.71446938182E+02  0.13274179214E+03  0.89491615136E+02 0.  0.
        -13    1    3    3    0    0 -0.62843801644E+02 -0.18866512421E+02  0.54048180189E+02  0.85008790591E+02  0.00000000000E+00 0.  1.
         14    1    3    3    0    0  0.67251867765E+01  0.29685473092E+02  0.51435958383E+02  0.59767158746E+02  0.00000000000E+00 0. -1.
        -13    1    4    4    0    0  0.26110530024E+02 -0.57321471173E+02 -0.17247523925E+02  0.65306874961E+02  0.00000000000E+00 0.  1.
         13    1    4    4    0    0  0.32163276310E+02  0.23987813701E+02 -0.54199414257E+02  0.67434917179E+02  0.00000000000E+00 0. -1.
         -2    1    1    2    0  502 -0.21551914665E+01  0.22514696800E+02 -0.58960822652E+02  0.63150099208E+02  0.00000000000E+00 0.  1.
<scales pt_clust_5="13000.00000" pt_clust_6="13000.00000" pt_clust_7="13000.00000" pt_clust_8="13000.00000" pt_clust_9="22.61761"></scales>
<clustering>
<clus scale="   22.618">  2  9  1 -1</clus>
<clus scale="   81.036">  5  6 -1 -1</clus>
<clus scale="   89.492">  7  8 -1 -1</clus>
<clus scale="   99.821">  1  5  2 -1</clus>
<clus scale="   22.618">  2  5  1 -1</clus>
</clustering>
</event>
<event>
 9    2  0.3764910E-005  0.9261425E+02  0.7546771E-02  0.1302976E+00
         -1   -1    0    0    0  501 -0.00000000000E+00  0.00000000000E+00  0.15525171198E+03  0.15525171198E+03  0.00000000000E+00 0.  1.
         21   -1    0    0  501  502  0.00000000000E+00 -0.00000000000E+00 -0.12324567497E+03  0.12324567497E+03  0.00000000000E+00 0. -1.
         23    2    1    2    0    0 -0.34768382643E+01  0.12472208157E+02  0.10112022357E+03  0.13661316891E+03  0.90940716536E+02 0.  0.
         24    2    1    2    0    0  0.14423139309E+01 -0.41437213236E+02 -0.67218862377E+02  0.11278605552E+03  0.80518295755E+02 0.  0.
        -13    1    4    4    0    0 -0.30300916619E+02 -0.39023984862E+02 -0.15009134496E+02  0.51636141033E+02  0.00000000000E+00 0.  1.
         14    1    4    4    0    0  0.31743230550E+02 -0.24132283749E+01 -0.52209727881E+02  0.61149914492E+02  0.00000000000E+00 0. -1.
        -11    1    3    3    0    0 -0.91325359814E+01  0.49733313955E+02  0.38608369889E+02  0.63619273462E+02  0.00000000000E+00 0.  1.
         11    1    3    3    0    0  0.56556977171E+01 -0.37261105798E+02  0.62511853678E+02  0.72993895444E+02  0.00000000000E+00 0. -1.
         -2    1    1    2    0  502  0.20345243334E+01  0.28965005079E+02 -0.18953241826E+01  0.29098162524E+02  0.00000000000E+00 0.  1.
<scales pt_clust_5="13000.00000" pt_clust_6="13000.00000" pt_clust_7="13000.00000" pt_clust_8="13000.00000" pt_clust_9="29.03637"></scales>
<clustering>
<clus scale="   29.036">  2  9  1 -1</clus>
<clus scale="   80.518">  5  6 -1 -1</clus>
<clus scale="   82.404">  2  5  1 -1</clus>
<clus scale="   90.941">  7  8 -1 -1</clus>
<clus scale="   29.036">  2  5  1 -1</clus>
</clustering>
</event>
<event>
 9    2  0.3764910E-005  0.1117133E+03  0.7546771E-02  0.1261976E+00
         21   -1    0    0  501  502  0.00000000000E+00  0.00000000000E+00  0.22216341769E+02  0.22216341769E+02  0.00000000000E+00 0.  1.
         -1   -1    0    0    0  501 -0.00000000000E+00 -0.00000000000E+00 -0.11006432418E+04  0.11006432418E+04  0.00000000000E+00 0.  1.
         24    2    1    2    0    0 -0.79889562467E+02 -0.45549313145E+02 -0.51711882809E+03  0.53121086435E+03  0.79473378723E+02 0.  0.
         23    2    1    2    0    0 -0.19663762193E+01  0.51403681494E+02 -0.32238475232E+03  0.33902445081E+03  0.91429998420E+02 0.  0.
        -13    1    3    3    0    0 -0.77102989343E+02 -0.55431390896E+02 -0.50988191497E+03  0.51864928158E+03  0.00000000000E+00 0.  1.
         14    1    3    3    0    0 -0.27865731239E+01  0.98820777516E+01 -0.72369131143E+01  0.12561582778E+02  0.00000000000E+00 0. -1.
        -11    1    4    4    0    0 -0.42117149298E+02  0.33065734147E+01 -0.13188366467E+03  0.13848497644E+03  0.00000000000E+00 0.  1.
         11    1    4    4    0    0  0.40150773078E+02  0.48097108079E+02 -0.19050108765E+03  0.20053947437E+03  0.00000000000E+00 0. -1.
         -2    1    1    2    0  502  0.81855938686E+02 -0.58543683493E+01 -0.23892331959E+03  0.25262426837E+03  0.00000000000E+00 0.  1.
<scales pt_clust_5="13000.00000" pt_clust_6="13000.00000" pt_clust_7="13000.00000" pt_clust_8="13000.00000" pt_clust_9="82.06502"></scales>
<clustering>
<clus scale="   79.473">  5  6 -1 -1</clus>
<clus scale="   82.065">  1  9  2 -1</clus>
<clus scale="   91.430">  7  8 -1 -1</clus>
<clus scale="  102.159">  2  5  1 -1</clus>
<clus scale="   82.065">  1  5  2 -1</clus>
</clustering>
</event>
<event>
 9    2  0.3764910E-005  0.1354395E+03  0.7546771E-02  0.1225564E+00
          2   -1    0    0  502    0 -0.00000000000E+00  0.00000000000E+00  0.63312664056E+03  0.63312664056E+03  0.00000000000E+00 0. -1.
         21   -1    0    0  501  502  0.00000000000E+00 -0.00000000000E+00 -0.77353165470E+02  0.77353165470E+02  0.00000000000E+00 0.  1.
         23    2    1    2    0    0 -0.13167155339E+02  0.97276879509E+02  0.50966532966E+03  0.52706481102E+03  0.91664614137E+02 0.  0.
         24    2    1    2    0    0  0.35699268931E+02 -0.10725945119E+03 -0.27228409848E+00  0.13089364580E+03  0.65985185465E+02 0.  0.
        -13    1    4    4    0    0  0.35063726645E+02 -0.11091905088E+03 -0.13541106885E+02  0.11711474011E+03  0.00000000000E+00 0.  1.
         14    1    4    4    0    0  0.63554228566E+00  0.36595996944E+01  0.13268822787E+02  0.13778905692E+02  0.00000000000E+00 0. -1.
        -13    1    3    3    0    0  0.29618842461E+02  0.32179462538E+01  0.14571270595E+03  0.14872734678E+03  0.00000000000E+00 0.  1.
         13    1    3    3    0    0 -0.42785997800E+02  0.94058933255E+02  0.36395262372E+03  0.37833746423E+03  0.00000000000E+00 0. -1.
          1    1    1    2  501    0 -0.22532113592E+02  0.99825716792E+01  0.46380429527E+02  0.52521349215E+02  0.00000000000E+00 0. -1.
<scales pt_clust_5="13000.00000" pt_clust_6="13000.00000" pt_clust_7="13000.00000" pt_clust_8="13000.00000" pt_clust_9="24.64444"></scales>
<clustering>
<clus scale="   24.644">  2  9  1 -1</clus>
<clus scale="   65.985">  5  6 -1 -1</clus>
<clus scale="   91.665">  7  8 -1 -1</clus>
<clus scale="  119.564">  2  5  1 -1</clus>
<clus scale="   24.644">  2  5  1 -1</clus>
</clustering>
</event>
<event>
 9    2  0.3764910E-005  0.9397905E+02  0.7546771E-02  0.1299136E+00
          2   -1    0    0  502    0 -0.00000000000E+00  0.00000000000E+00  0.14329313365E+03  0.14329313365E+03  0.00000000000E+00 0. -1.
         21   -1    0    0  501  502  0.00000000000E+00 -0.00000000000E+00 -0.14111487181E+03  0.14111487181E+03  0.00000000000E+00 0. -1.
         23    2    1    2    0    0  0.54313614908E+01  0.30410466110E+01  0.34416611773E+02  0.98025288705E+02  0.91573502759E+02 0.  0.
         24    2    1    2    0    0  0.45581142972E+02  0.51358707692E+02 -0.51845955779E+01  0.10705104273E+03  0.81961504791E+02 0.  0.
        -13    1    4    4    0    0 -0.38201496479E-01  0.40291197449E+02  0.28432036846E+02  0.49312906733E+02  0.00000000000E+00 0.  1.
         14    1    4    4    0    0  0.45619344468E+02  0.11067510243E+02 -0.33616632424E+02  0.57738135996E+02  0.00000000000E+00 0. -1.
        -11    1    3    3    0    0  0.21895044970E+02  0.33019190184E+02  0.47100412441E+02  0.61547613818E+02  0.00000000000E+00 0. -1.
         11    1    3    3    0    0 -0.16463683479E+02 -0.29978143573E+02 -0.12683800667E+02  0.36477674887E+02  0.00000000000E+00 0.  1.
          1    1    1    2  501    0 -0.51012504463E+02 -0.54399754303E+02 -0.27053754352E+02  0.79331674030E+02  0.00000000000E+00 0. -1.
<scales pt_clust_5="13000.00000" pt_clust_6="13000.00000" pt_clust_7="13000.00000" pt_clust_8="13000.00000" pt_clust_9="74.57620"></scales>
<clustering>
<clus scale="   74.576">  2  9  1 -1</clus>
<clus scale="   81.962">  5  6 -1 -1</clus>
<clus scale="   84.641">  2  5  1 -1</clus>
<clus scale="   91.574">  7  8 -1 -1</clus>
<clus scale="   74.576">  2  5  1 -1</clus>
</clustering>
</event>
<event>
 9    2  0.3764910E-005  0.1359601E+03  0.7546771E-02  0.1240678E+00
         21   -1    0    0  501  502  0.00000000000E+00  0.00000000000E+00  0.11850790037E+04  0.11850790037E+04  0.00000000000E+00 0.  1.
         -3   -1    0    0    0  501 -0.00000000000E+00 -0.00000000000E+00 -0.23550294447E+02  0.23550294447E+02  0.00000000000E+00 0.  1.
         24    2    1    2    0    0  0.24488426328E+02  0.16174818567E+02  0.36132423131E+03  0.37156837966E+03  0.81526393549E+02 0.  0.
         23    2    1    2    0    0 -0.38958701356E+02 -0.11007641303E+03  0.42169435202E+03  0.44680867478E+03  0.90428248984E+02 0.  0.
        -11    1    3    3    0    0 -0.18548489301E+02  0.34565229586E+02  0.14290381003E+03  0.14819008224E+03  0.00000000000E+00 0.  1.
         12    1    3    3    0    0  0.43036915630E+02 -0.18390411019E+02  0.21842042128E+03  0.22337829742E+03  0.00000000000E+00 0. -1.
        -11    1    4    4    0    0 -0.20671930516E+02 -0.12303257796E+03  0.36994957889E+03  0.39041905034E+03  0.00000000000E+00 0.  1.
         11    1    4    4    0    0 -0.18286770840E+02  0.12956164932E+02  0.51744773136E+02  0.56389624439E+02  0.00000000000E+00 0. -1.
         -4    1    1    2    0  502  0.14470275028E+02  0.93901594458E+02  0.37851012592E+03  0.39025224372E+03  0.00000000000E+00 0.  1.
<scales pt_clust_5="13000.00000" pt_clust_6="13000.00000" pt_clust_7="13000.00000" pt_clust_8="13000.00000" pt_clust_9="101.52776"></scales>
<clustering>
<clus scale="   81.526">  5  6 -1 -1</clus>
<clus scale="   86.648">  2  5  1 -1</clus>
<clus scale="   90.428">  7  8 -1 -1</clus>
<clus scale="  101.528">  1  9  2 -1</clus>
<clus scale="  101.528">  1  5  2 -1</clus>
</clustering>
</event>
<event>
 9    2  0.3764910E-005  0.1101931E+03  0.7546771E-02  0.1265441E+00
         21   -1    0    0  501  502  0.00000000000E+00  0.00000000000E+00  0.53905876002E+02  0.53905876002E+02  0.00000000000E+00 0. -1.
          2   -1    0    0  502    0 -0.00000000000E+00 -0.00000000000E+00 -0.27386421657E+03  0.27386421657E+03  0.00000000000E+00 0. -1.
         23    2    1    2    0    0  0.26769834017E+02  0.35954094463E+02 -0.85374559402E+02  0.13362366626E+03  0.92504853221E+02 0.  0.
         24    2    1    2    0    0 -0.40564427856E+02 -0.63040825927E+02 -0.99818043798E+02  0.14796592897E+03  0.79439635739E+02 0.  0.
        -11    1    4    4    0    0  0.23767065381E+02 -0.14688257236E+02 -0.33962931081E+02  0.43978392252E+02  0.00000000000E+00 0.  1.
         12    1    4    4    0    0 -0.64331493236E+02 -0.48352568690E+02 -0.65855112718E+02  0.10398753671E+03  0.00000000000E+00 0. -1.
        -11    1    3    3    0    0  0.35935934175E+02  0.61304828549E+01  0.61113137541E+01  0.36963797706E+02  0.00000000000E+00 0. -1.
         11    1    3    3    0    0 -0.91661001584E+01  0.29823611608E+02 -0.91485873156E+02  0.96659868553E+02  0.00000000000E+00 0.  1.
          1    1    1    2  501    0  0.13794593839E+02  0.27086731464E+02 -0.34765737371E+02  0.46180497351E+02  0.00000000000E+00 0. -1.
<scales pt_clust_5="13000.00000" pt_clust_6="13000.00000" pt_clust_7="13000.00000" pt_clust_8="13000.00000" pt_clust_9="30.39708"></scales>
<clustering>
<clus scale="   30.397">  1  9  2 -1</clus>
<clus scale="   79.440">  5  6 -1 -1</clus>
<clus scale="   92.505">  7  8 -1 -1</clus>
<clus scale="   99.479">  1  5  2 -1</clus>
<clus scale="   30.397">  1  5  2 -1</clus>
</clustering>
</event>
<event>
 9    2  0.3764910E-005  0.1490184E+03  0.7546771E-02  0.1203383E+00
         21   -1    0    0  501  502  0.00000000000E+00  0.00000000000E+00  0.40665355342E+03  0.40665355342E+03  0.00000000000E+00 0. -1.
          2   -1    0    0  502    0 -0.00000000000E+00 -0.00000000000E+00 -0.11182122628E+03  0.11182122628E+03  0.00000000000E+00 0. -1.
         23    2    1    2    0    0  0.35301996379E+02 -0.10960226932E+03  0.49245958410E+01  0.14628479709E+03  0.90089410175E+02 0.  0.
         24    2    1    2    0    0  0.12121716814E+02  0.14007888882E+03  0.26467593823E+03  0.31042853599E+03  0.80891857205E+02 0.  0.
        -13    1    4    4    0    0 -0.27785555015E+02  0.19255251552E+02  0.41492079568E+02  0.53520037806E+02  0.00000000000E+00 0.  1.
         14    1    4    4    0    0  0.39907271830E+02  0.12082363727E+03  0.22318385867E+03  0.25690849818E+03  0.00000000000E+00 0. -1.
        -11    1    3    3    0    0 -0.15419781704E+02 -0.89686822946E+02  0.10034233386E+02  0.91554255595E+02  0.00000000000E+00 0.  1.
         11    1    3    3    0    0  0.50721778083E+02 -0.19915446378E+02 -0.51096375446E+01  0.54730541494E+02  0.00000000000E+00 0. -1.
          1    1    1    2  501    0 -0.47423713193E+02 -0.30476619497E+02  0.25231793065E+02  0.61761446633E+02  0.00000000000E+00 0. -1.
<scales pt_clust_5="13000.00000" pt_clust_6="13000.00000" pt_clust_7="13000.00000" pt_clust_8="13000.00000" pt_clust_9="56.37230"></scales>
<clustering>
<clus scale="   56.372">  1  9  2 -1</clus>
<clus scale="   80.892">  5  6 -1 -1</clus>
<clus scale="   90.089">  7  8 -1 -1</clus>
<clus scale="  143.645">  1  5  2 -1</clus>
<clus scale="   56.372">  1  5  2 -1</clus>
</clustering>
</event>
<event>
 9    2  0.3764910E-005  0.2334139E+03  0.7546771E-02  0.1155950E+00
          2   -1    0    0  502    0 -0.00000000000E+00  0.00000000000E+00  0.71786510236E+03  0.71786510236E+03  0.00000000000E+00 0. -1.
         21   -1    0    0  501  502  0.00000000000E+00 -0.00000000000E+00 -0.11277201430E+03  0.11277201430E+03  0.00000000000E+00 0. -1.
         23    2    1    2    0    0  0.37057546335E+02  0.49387619908E+02  0.13120702830E+03  0.17037271898E+03  0.89438137039E+02 0.  0.
         24    2    1    2    0    0  0.96029292663E+02 -0.21070619532E+03  0.20332578658E+03  0.31830145976E+03  0.79722757120E+02 0.  0.
        -13    1    4    4    0    0  0.58447194752E+02 -0.69863876281E+02  0.11912829538E+03  0.14996195032E+03  0.00000000000E+00 0.  1.
         14    1    4    4    0    0  0.37582097910E+02 -0.14084231903E+03  0.84197491201E+02  0.16833950944E+03  0.00000000000E+00 0. -1.
        -11    1    3    3    0    0 -0.24335451020E+02 -0.38121645864E+01  0.15882626945E+02  0.29308780491E+02  0.00000000000E+00 0.  1.
         11    1    3    3    0    0  0.61392997355E+02  0.53199784495E+02  0.11532440135E+03  0.14106393849E+03  0.00000000000E+00 0. -1.
          1    1    1    2  501    0 -0.13308683900E+03  0.16131857541E+03  0.27056027319E+03  0.34196293793E+03  0.00000000000E+00 0. -1.
<scales pt_clust_5="13000.00000" pt_clust_6="13000.00000" pt_clust_7="13000.00000" pt_clust_8="13000.00000" pt_clust_9="219.37721"></scales>
<clustering>
<clus scale="   79.723">  5  6 -1 -1</clus>
<clus scale="   89.438">  7  8 -1 -1</clus>
<clus scale="  108.681">  1  7  2 -1</clus>
<clus scale="  219.377">  2  9  1 -1</clus>
<clus scale="  219.377">  2  5  1 -1</clus>
</clustering>
</event>
<event>
 9    2  0.3764910E-005  0.1180204E+03  0.7546771E-02  0.1250561E+00
         -3   -1    0    0    0  501 -0.00000000000E+00  0.00000000000E+00  0.38138858718E+03  0.38138858718E+03  0.00000000000E+00 0.  1.
         21   -1    0    0  501  502  0.00000000000E+00 -0.00000000000E+00 -0.63614994623E+02  0.63614994623E+02  0.00000000000E+00 0.  1.
         24    2    1    2    0    0 -0.25045431982E+02 -0.86911958599E+02  0.21517909502E+03  0.24643328616E+03  0.79033912869E+02 0.  0.
         23    2    1    2    0    0  0.41017163079E+02  0.38602621900E+02  0.10123701338E+03  0.14767107198E+03  0.91570969944E+02 0.  0.
        -11    1    3    3    0    0 -0.12354609029E+02 -0.80480057074E+02  0.21729502910E+03  0.23204914484E+03  0.00000000000E+00 0.  1.
         12    1    3    3    0    0 -0.12690822953E+02 -0.64319015251E+01 -0.21159340781E+01  0.14384141319E+02  0.00000000000E+00 0. -1.
        -11    1    4    4    0    0 -0.23165756720E+02 -0.48964052889E+01  0.48291209992E+02  0.53783529372E+02  0.00000000000E+00 0.  1.
         11    1    4    4    0    0  0.64182919799E+02  0.43499027189E+02  0.52945803390E+02  0.93887542608E+02  0.00000000000E+00 0. -1.
         -4    1    1    2    0  502 -0.15971731097E+02  0.48309336699E+02  0.13574841569E+01  0.50899223666E+02  0.00000000000E+00 0.  1.
<scales pt_clust_5="13000.00000" pt_clust_6="13000.00000" pt_clust_7="13000.00000" pt_clust_8="13000.00000" pt_clust_9="50.88112"></scales>
<clustering>
<clus scale="   50.881">  2  9  1 -1</clus>
<clus scale="   79.034">  5  6 -1 -1</clus>
<clus scale="   91.571">  7  8 -1 -1</clus>
<clus scale="  108.581">  1  5  2 -1</clus>
<clus scale="   50.881">  2  5  1 -1</clus>
</clustering>
</event>
<event>
 9    2  0.3764910E-005  0.1133825E+03  0.7546771E-02  0.1257952E+00
         21   -1    0    0  501  502  0.00000000000E+00  0.00000000000E+00  0.53278316378E+03  0.53278316378E+03  0.00000000000E+00 0.  1.
         -3   -1    0    0    0  501 -0.00000000000E+00 -0.00000000000E+00 -0.57273306518E+02  0.57273306518E+02  0.00000000000E+00 0.  1.
         23    2    1    2    0    0  0.30020804129E+02 -0.57499869869E+02  0.27449716702E+02  0.11402683948E+03  0.89672456521E+02 0.  0.
         24    2    1    2    0    0 -0.62300416884E+02  0.72344274134E+02  0.36706083236E+03  0.38758067567E+03  0.79812840821E+02 0.  0.
        -13    1    4    4    0    0 -0.69937690642E+02  0.72399692641E+02  0.36632948790E+03  0.37990826494E+03  0.00000000000E+00 0.  1.
         14    1    4    4    0    0  0.76372737580E+01 -0.55418506439E-01  0.73134445550E+00  0.76724107279E+01  0.00000000000E+00 0. -1.
        -13    1    3    3    0    0 -0.20790316703E+02 -0.48780914738E+02  0.32552401811E+02  0.62221168222E+02  0.00000000000E+00 0.  1.
         13    1    3    3    0    0  0.50811120832E+02 -0.87189551311E+01 -0.51026851090E+01  0.51805671254E+02  0.00000000000E+00 0. -1.
         -4    1    1    2    0  502  0.32279612755E+02 -0.14844404265E+02  0.80999308207E+02  0.88448955153E+02  0.00000000000E+00 0.  1.
<scales pt_clust_5="13000.00000" pt_clust_6="13000.00000" pt_clust_7="13000.00000" pt_clust_8="13000.00000" pt_clust_9="35.52928"></scales>
<clustering>
<clus scale="   35.529">  1  9  2 -1</clus>
<clus scale="   79.813">  5  6 -1 -1</clus>
<clus scale="   89.672">  7  8 -1 -1</clus>
<clus scale="  105.757">  1  5  2 -1</clus>
<clus scale="   35.529">  1  5  2 -1</clus>
</clustering>
</event>
<event>
 9    2  0.3764910E-005  0.1278814E+03  0.7546771E-02  0.1233738E+00
          2   -1    0    0  502    0 -0.00000000000E+00  0.00000000000E+00  0.28097814281E+03  0.28097814281E+03  0.00000000000E+00 0. -1.
         21   -1    0    0  501  502  0.00000000000E+00 -0.00000000000E+00 -0.11641778528E+03  0.11641778528E+03  0.00000000000E+00 0. -1.
         24    2    1    2    0    0 -0.92558933428E+02  0.13456501227E+02  0.21381026567E+03  0.24656253834E+03  0.79561435532E+02 0.  0.
         23    2    1    2    0    0  0.72254582601E+02  0.32277722385E+01 -0.39845201110E+02  0.12292138234E+03  0.91054285815E+02 0.  0.
        -13    1    3    3    0    0 -0.64428385995E+02  0.45566664323E+02  0.12177258294E+03  0.14510651183E+03  0.00000000000E+00 0.  1.
         14    1    3    3    0    0 -0.28130547433E+02 -0.32110163095E+02  0.92037682729E+02  0.10145602651E+03  0.00000000000E+00 0. -1.
        -13    1    4    4    0    0 -0.69827583015E+01 -0.29308597768E+02 -0.15442265602E+02  0.33855817573E+02  0.00000000000E+00 0.  1.
         13    1    4    4    0    0  0.79237340903E+02  0.32536370006E+02 -0.24402935508E+02  0.89065564771E+02  0.00000000000E+00 0. -1.
          1    1    1    2  501    0  0.20304350827E+02 -0.16684273466E+02 -0.94047070204E+01  0.27912007411E+02  0.00000000000E+00 0. -1.
<scales pt_clust_5="13000.00000" pt_clust_6="13000.00000" pt_clust_7="13000.00000" pt_clust_8="13000.00000" pt_clust_9="26.27987"></scales>
<clustering>
<clus scale="   26.280">  2  9  1 -1</clus>
<clus scale="   79.561">  5  6 -1 -1</clus>
<clus scale="   91.054">  7  8 -1 -1</clus>
<clus scale="  119.970">  1  5  2 -1</clus>
<clus scale="   26.280">  2  5  1 -1</clus>
</clustering>
</event>
<event>
 9    2  0.3764910E-005  0.1096241E+03  0.7546771E-02  0.1266289E+00
         21   -1    0    0  501  502  0.00000000000E+00  0.00000000000E+00  0.44700340284E+03  0.44700340284E+03  0.00000000000E+00 0.  1.
          4   -1    0    0  502    0 -0.00000000000E+00 -0.00000000000E+00 -0.15133250862E+03  0.15133250862E+03  0.00000000000E+00 0. -1.
         23    2    1    2    0    0 -0.18710124027E+02  0.62682143911E+02 -0.11967071922E+03  0.16208449312E+03  0.87585283944E+02 0.  0.
         24    2    1    2    0    0 -0.18776926559E+01 -0.77915806036E+02  0.34219941714E+03  0.35875494398E+03  0.74365786369E+02 0.  0.
        -11    1    4    4    0    0 -0.26593099812E+02 -0.12669205232E+02  0.17687342553E+03  0.17930953789E+03  0.00000000000E+00 0.  1.
         12    1    4    4    0    0  0.24715407156E+02 -0.65246600803E+02  0.16532599161E+03  0.17944540609E+03  0.00000000000E+00 0. -1.
        -13    1    3    3    0    0  0.81228908735E+01 -0.19789632841E+02 -0.14871224357E+02  0.26053104191E+02  0.00000000000E+00 0.  1.
         13    1    3    3    0    0 -0.26833014900E+02  0.82471776752E+02 -0.10479949486E+03  0.13603138892E+03  0.00000000000E+00 0. -1.
          3    1    1    2  501    0  0.20587816682E+02  0.15233662124E+02  0.73142196303E+02  0.77496474355E+02  0.00000000000E+00 0. -1.
<scales pt_clust_5="13000.00000" pt_clust_6="13000.00000" pt_clust_7="13000.00000" pt_clust_8="13000.00000" pt_clust_9="25.61099"></scales>
<clustering>
<clus scale="   25.611">  1  9  2 -1</clus>
<clus scale="   74.366">  5  6 -1 -1</clus>
<clus scale="   87.585">  7  8 -1 -1</clus>
<clus scale="   99.381">  1  5  2 -1</clus>
<clus scale="   25.611">  1  5  2 -1</clus>
</clustering>
</event>
<event>
 9    2  0.3764910E-005  0.1124776E+03  0.7546771E-02  0.1260494E+00
          2   -1    0    0  502    0 -0.00000000000E+00  0.00000000000E+00  0.34831400556E+03  0.34831400556E+03  0.00000000000E+00 0. -1.
         21   -1    0    0  501  502  0.00000000000E+00 -0.00000000000E+00 -0.11272820033E+03  0.11272820033E+03  0.00000000000E+00 0.  1.
         24    2    1    2    0    0 -0.52276034734E+02 -0.51477754297E+02  0.24210593979E+03  0.26498246908E+03  0.78852265947E+02 0.  0.
         23    2    1    2    0    0  0.64407418570E+02 -0.28364580528E+02  0.13777140665E+01  0.11491576034E+03  0.90834293546E+02 0.  0.
        -13    1    3    3    0    0 -0.49848865322E+02 -0.12614271642E+02  0.61204361366E+02  0.79937494789E+02  0.00000000000E+00 0.  1.
         14    1    3    3    0    0 -0.24271694122E+01 -0.38863482655E+02  0.18090157842E+03  0.18504497429E+03  0.00000000000E+00 0. -1.
        -13    1    4    4    0    0  0.29190245988E+02  0.32584289477E+02  0.69838059166E+01  0.44301014962E+02  0.00000000000E+00 0. -1.
         13    1    4    4    0    0  0.35217172581E+02 -0.60948870005E+02 -0.56060918501E+01  0.70614745382E+02  0.00000000000E+00 0.  1.
          1    1    1    2  501    0 -0.12131383836E+02  0.79842334824E+02 -0.78978486272E+01  0.81143976467E+02  0.00000000000E+00 0. -1.
<scales pt_clust_5="13000.00000" pt_clust_6="13000.00000" pt_clust_7="13000.00000" pt_clust_8="13000.00000" pt_clust_9="80.75871"></scales>
<clustering>
<clus scale="   78.852">  5  6 -1 -1</clus>
<clus scale="   80.759">  2  9  1 -1</clus>
<clus scale="   90.834">  7  8 -1 -1</clus>
<clus scale="  103.044">  1  5  2 -1</clus>
<clus scale="   80.759">  2  5  1 -1</clus>
</clustering>
</event>
<event>
 9    2  0.3764910E-005  0.5567774E+03  0.7546771E-02  0.1060368E+00
         21   -1    0    0  501  502  0.00000000000E+00  0.00000000000E+00  0.21172240360E+03  0.21172240360E+03  0.00000000000E+00 0.  1.
          2   -1    0    0  502    0 -0.00000000000E+00 -0.00000000000E+00 -0.19533717179E+04  0.19533717179E+04  0.00000000000E+00 0. -1.
         23    2    1    2    0    0 -0.10899509985E+02 -0.70682773515E+01 -0.11782367609E+03  0.14983720659E+03  0.91651568284E+02 0.  0.
         24    2    1    2    0    0 -0.43972488047E+03  0.32978086427E+03 -0.44153090636E+03  0.70949024816E+03  0.79457422693E+02 0.  0.
        -13    1    4    4    0    0 -0.39869771674E+03  0.28630952265E+03 -0.36150909696E+03  0.60960793898E+03  0.00000000000E+00 0.  1.
         14    1    4    4    0    0 -0.41027163738E+02  0.43471341617E+02 -0.80021809403E+02  0.99882309177E+02  0.00000000000E+00 0. -1.
        -13    1    3    3    0    0  0.35779370567E+02 -0.12587348935E+02 -0.23962353749E+02  0.44864229722E+02  0.00000000000E+00 0.  1.
         13    1    3    3    0    0 -0.46678880553E+02  0.55190715836E+01 -0.93861322344E+02  0.10497297687E+03  0.00000000000E+00 0. -1.
          1    1    1    2  501    0  0.45062439046E+03 -0.32271258692E+03 -0.11822947319E+04  0.13057666668E+04  0.00000000000E+00 0. -1.
<scales pt_clust_5="13000.00000" pt_clust_6="13000.00000" pt_clust_7="13000.00000" pt_clust_8="13000.00000" pt_clust_9="551.07884"></scales>
<clustering>
<clus scale="   79.457">  5  6 -1 -1</clus>
<clus scale="   91.652">  7  8 -1 -1</clus>
<clus scale="   92.568">  2  7  1 -1</clus>
<clus scale="  551.079">  1  9  2 -1</clus>
<clus scale="  551.079">  1  5  2 -1</clus>
</clustering>
</event>
<event>
 9    2  0.3764910E-005  0.9133401E+02  0.7546771E-02  0.1306015E+00
          2   -1    0    0  502    0 -0.00000000000E+00  0.00000000000E+00  0.18172280416E+03  0.18172280416E+03  0.00000000000E+00 0. -1.
         21   -1    0    0  501  502  0.00000000000E+00 -0.00000000000E+00 -0.84480011360E+02  0.84480011360E+02  0.00000000000E+00 0. -1.
         24    2    1    2    0    0 -0.20575899395E+01 -0.60127315801E+01  0.63174599115E+02  0.10126110686E+03  0.78882160035E+02 0.  0.
         23    2    1    2    0    0  0.37537286350E+02  0.41879800070E+02  0.26286231612E+01  0.10549675888E+03  0.89217100123E+02 0.  0.
        -11    1    3    3    0    0  0.24448867425E+02  0.26763174682E+02  0.22384515648E+02  0.42603769531E+02  0.00000000000E+00 0.  1.
         12    1    3    3    0    0 -0.26506457364E+02 -0.32775906263E+02  0.40790083467E+02  0.58657337329E+02  0.00000000000E+00 0. -1.
        -11    1    4    4    0    0 -0.27914439526E+02  0.11876578190E+02  0.12523251163E+02  0.32819214848E+02  0.00000000000E+00 0.  1.
         11    1    4    4    0    0  0.65451725877E+02  0.30003221880E+02 -0.98946280019E+01  0.72677544034E+02  0.00000000000E+00 0. -1.
          1    1    1    2  501    0 -0.35479696411E+02 -0.35867068490E+02  0.31439570525E+02  0.59444949779E+02  0.00000000000E+00 0. -1.
<scales pt_clust_5="13000.00000" pt_clust_6="13000.00000" pt_clust_7="13000.00000" pt_clust_8="13000.00000" pt_clust_9="50.45055"></scales>
<clustering>
<clus scale="   50.451">  2  9  1 -1</clus>
<clus scale="   78.882">  5  6 -1 -1</clus>
<clus scale="   81.269">  1  5  2 -1</clus>
<clus scale="   89.217">  7  8 -1 -1</clus>
<clus scale="   50.451">  2  5  1 -1</clus>
</clustering>
</event>
<event>
 9    2  0.3764910E-005  0.1412631E+03  0.7546771E-02  0.1214841E+00
          4   -1    0    0  502    0 -0.00000000000E+00  0.00000000000E+00  0.61897992061E+03  0.61897992061E+03  0.00000000000E+00 0. -1.
         21   -1    0    0  501  502  0.00000000000E+00 -0.00000000000E+00 -0.22048042228E+03  0.22048042228E+03  0.00000000000E+00 0.  1.
         23    2    1    2    0    0 -0.92178615018E+02  0.47838772957E+02  0.55869450733E+03  0.57588070983E+03  0.93346634446E+02 0.  0.
         24    2    1    2    0    0  0.13045218001E+03 -0.65091449325E+02 -0.11347253430E+03  0.20076633621E+03  0.78590315363E+02 0.  0.
        -11    1    4    4    0    0  0.14079320440E+03 -0.55400955857E+02 -0.10126951545E+03  0.18206456843E+03  0.00000000000E+00 0.  1.
         12    1    4    4    0    0 -0.10341024393E+02 -0.96904934682E+01 -0.12203018851E+02  0.18701767784E+02  0.00000000000E+00 0. -1.
        -13    1    3    3    0    0  0.40030515962E+01  0.39790931325E+02  0.11337245633E+03  0.12021920184E+03  0.00000000000E+00 0.  1.
         13    1    3    3    0    0 -0.96181666614E+02  0.80478416316E+01  0.44532205101E+03  0.45566150799E+03  0.00000000000E+00 0. -1.
          3    1    1    2  501    0 -0.38273564993E+02  0.17252676369E+02 -0.46722474698E+02  0.62813296849E+02  0.00000000000E+00 0. -1.
<scales pt_clust_5="13000.00000" pt_clust_6="13000.00000" pt_clust_7="13000.00000" pt_clust_8="13000.00000" pt_clust_9="41.98238"></scales>
<clustering>
<clus scale="   41.982">  2  9  1 -1</clus>
<clus scale="   78.590">  5  6 -1 -1</clus>
<clus scale="   93.347">  7  8 -1 -1</clus>
<clus scale="  131.978">  2  5  1 -1</clus>
<clus scale="   41.982">  2  5  1 -1</clus>
</clustering>
</event>
<event>
 9    2  0.3764910E-005  0.1790781E+03  0.7546771E-02  0.1197859E+00
          2   -1    0    0  502    0 -0.00000000000E+00  0.00000000000E+00  0.78052964384E+03  0.78052964384E+03  0.00000000000E+00 0. -1.
         21   -1    0    0  501  502  0.00000000000E+00 -0.00000000000E+00 -0.62071107926E+02  0.62071107926E+02  0.00000000000E+00 0. -1.
         24    2    1    2    0    0 -0.15866749604E+02  0.29502211887E+02  0.82723950212E+02  0.12470000521E+03  0.87090212496E+02 0.  0.
         23    2    1    2    0    0  0.15197613251E+03 -0.69174717672E+02  0.35404756477E+03  0.40254816674E+03  0.93880040534E+02 0.  0.
        -13    1    3    3    0    0 -0.19882729054E+02 -0.64292626266E+01 -0.11447488691E+02  0.23826525762E+02  0.00000000000E+00 0.  1.
         14    1    3    3    0    0  0.40159794503E+01  0.35931474514E+02  0.94171438903E+02  0.10087347945E+03  0.00000000000E+00 0. -1.
        -11    1    4    4    0    0  0.11789545059E+03 -0.89221700120E+02  0.24048662123E+03  0.28230066248E+03  0.00000000000E+00 0. -1.
         11    1    4    4    0    0  0.34080681917E+02  0.20046982448E+02  0.11356094353E+03  0.12024750426E+03  0.00000000000E+00 0.  1.
          1    1    1    2  501    0 -0.13610938291E+03  0.39672505785E+02  0.28168702094E+03  0.31535257982E+03  0.00000000000E+00 0. -1.
<scales pt_clust_5="13000.00000" pt_clust_6="13000.00000" pt_clust_7="13000.00000" pt_clust_8="13000.00000" pt_clust_9="152.49751"></scales>
<clustering>
<clus scale="   87.090">  5  6 -1 -1</clus>
<clus scale="   93.310">  1  5  2 -1</clus>
<clus scale="   93.880">  7  8 -1 -1</clus>
<clus scale="  152.498">  2  9  1 -1</clus>
<clus scale="  152.498">  2  5  1 -1</clus>
</clustering>
</event>
<event>
 9    2  0.3764910E-005  0.1265850E+03  0.7546771E-02  0.1254144E+00
         21   -1    0    0  501  502  0.00000000000E+00  0.00000000000E+00  0.12387248712E+03  0.12387248712E+03  0.00000000000E+00 0.  1.
          2   -1    0    0  502    0 -0.00000000000E+00 -0.00000000000E+00 -0.14697569099E+03  0.14697569099E+03  0.00000000000E+00 0. -1.
         24    2    1    2    0    0  0.16746788099E+02  0.25327691459E+02 -0.43571410359E+02  0.94099700358E+02  0.77681007591E+02 0.  0.
         23    2    1    2    0    0  0.26362444885E+02 -0.24997381520E+02  0.30157042131E+02  0.13256263602E+03  0.12386911518E+03 0.  0.
        -11    1    3    3    0    0  0.44810017207E+02  0.31333681241E+02 -0.27429131363E+02  0.61172661128E+02  0.00000000000E+00 0.  1.
         12    1    3    3    0    0 -0.28063229108E+02 -0.60059897816E+01 -0.16142278996E+02  0.32927039229E+02  0.00000000000E+00 0. -1.
        -13    1    4    4    0    0  0.83302076545E+01 -0.72485057512E+02 -0.10062297021E+01  0.72969092226E+02  0.00000000000E+00 0. -1.
         13    1    4    4    0    0  0.18032237231E+02  0.47487675992E+02  0.31163271833E+02  0.59593543795E+02  0.00000000000E+00 0.  1.
          1    1    1    2  501    0 -0.43109232984E+02 -0.33030993914E+00 -0.96888356476E+01  0.44185841729E+02  0.00000000000E+00 0. -1.
<scales pt_clust_5="13000.00000" pt_clust_6="13000.00000" pt_clust_7="13000.00000" pt_clust_8="13000.00000" pt_clust_9="43.11052"></scales>
<clustering>
<clus scale="   43.111">  1  9  2 -1</clus>
<clus scale="   77.681">  5  6 -1 -1</clus>
<clus scale="   81.942">  2  5  1 -1</clus>
<clus scale="  123.869">  7  8 -1 -1</clus>
<clus scale="   43.111">  1  5  2 -1</clus>
</clustering>
</event>
<event>
 9    2  0.3764910E-005  0.9374660E+02  0.7546771E-02  0.1300463E+00
         21   -1    0    0  501  502  0.00000000000E+00  0.00000000000E+00  0.15965456811E+03  0.15965456811E+03  0.00000000000E+00 0. -1.
          2   -1    0    0  502    0 -0.00000000000E+00 -0.00000000000E+00 -0.42357386554E+03  0.42357386554E+03  0.00000000000E+00 0. -1.
         24    2    1    2    0    0  0.72155754159E+01  0.16566851538E+02 -0.36459408476E+03  0.37382450521E+03  0.80556743693E+02 0.  0.
         23    2    1    2    0    0 -0.66910726103E+01 -0.57969843454E+02  0.89997972557E+01  0.10881174860E+03  0.91398725810E+02 0.  0.
        -11    1    3    3    0    0 -0.35603782781E+02  0.15942575841E+02 -0.14926922676E+03  0.15428252374E+03  0.00000000000E+00 0.  1.
         12    1    3    3    0    0  0.42819358197E+02  0.62427569608E+00 -0.21532485799E+03  0.21954198147E+03  0.00000000000E+00 0. -1.
        -11    1    4    4    0    0 -0.35706396732E+02 -0.11313596737E+02 -0.24222453450E+02  0.44605733822E+02  0.00000000000E+00 0.  1.
         11    1    4    4    0    0  0.29015324121E+02 -0.46656246717E+02  0.33222250705E+02  0.64206014777E+02  0.00000000000E+00 0. -1.
          1    1    1    2  501    0 -0.52450280555E+00  0.41402991916E+02  0.91674990065E+02  0.10059217985E+03  0.00000000000E+00 0. -1.
<scales pt_clust_5="13000.00000" pt_clust_6="13000.00000" pt_clust_7="13000.00000" pt_clust_8="13000.00000" pt_clust_9="41.40631"></scales>
<clustering>
<clus scale="   41.406">  1  9  2 -1</clus>
<clus scale="   80.557">  5  6 -1 -1</clus>
<clus scale="   83.211">  2  5  1 -1</clus>
<clus scale="   91.399">  7  8 -1 -1</clus>
<clus scale="   41.406">  1  5  2 -1</clus>
</clustering>
</event>
<event>
 9    2  0.3764910E-005  0.1804334E+03  0.7546771E-02  0.1168806E+00
         -3   -1    0    0    0  501 -0.00000000000E+00  0.00000000000E+00  0.79682875501E+02  0.79682875501E+02  0.00000000000E+00 0.  1.
         21   -1    0    0  501  502  0.00000000000E+00 -0.00000000000E+00 -0.51394068865E+03  0.51394068865E+03  0.00000000000E+00 0. -1.
         23    2    1    2    0    0  0.36578561934E+02 -0.15778272583E+03 -0.11339327112E+03  0.21813671421E+03  0.92153200652E+02 0.  0.
         24    2    1    2    0    0 -0.18780510567E+02  0.14337317628E+03 -0.24006886879E+03  0.29150859939E+03  0.80222356606E+02 0.  0.
        -13    1    4    4    0    0  0.28997471907E+02  0.73141498643E+02 -0.13660025968E+03  0.15763934517E+03  0.00000000000E+00 0.  1.
         14    1    4    4    0    0 -0.47777982474E+02  0.70231677641E+02 -0.10346860911E+03  0.13386925422E+03  0.00000000000E+00 0. -1.
        -11    1    3    3    0    0  0.53845311966E+02 -0.58831921414E+02 -0.78224012026E+02  0.11171172121E+03  0.00000000000E+00 0.  1.
         11    1    3    3    0    0 -0.17266750033E+02 -0.98950804416E+02 -0.35169259090E+02  0.10642499301E+03  0.00000000000E+00 0. -1.
         -4    1    1    2    0  502 -0.17798051367E+02  0.14409549546E+02 -0.80795673242E+02  0.83978250549E+02  0.00000000000E+00 0.  1.
<scales pt_clust_5="13000.00000" pt_clust_6="13000.00000" pt_clust_7="13000.00000" pt_clust_8="13000.00000" pt_clust_9="22.89991"></scales>
<clustering>
<clus scale="   22.900">  2  9  1 -1</clus>
<clus scale="   80.222">  5  6 -1 -1</clus>
<clus scale="   92.153">  7  8 -1 -1</clus>
<clus scale="  174.641">  2  5  1 -1</clus>
<clus scale="   22.900">  2  5  1 -1</clus>
</clustering>
</event>
<event>
 9    2  0.3764910E-005  0.1477009E+03  0.7546771E-02  0.1205407E+00
          2   -1    0    0  502    0 -0.00000000000E+00  0.00000000000E+00  0.95696509717E+02  0.95696509717E+02  0.00000000000E+00 0. -1.
         21   -1    0    0  501  502  0.00000000000E+00 -0.00000000000E+00 -0.32058601517E+03  0.32058601517E+03  0.00000000000E+00 0. -1.
         23    2    1    2    0    0 -0.81873096640E+02 -0.68219860384E+02 -0.28458900223E+02  0.14355353060E+03  0.91872486861E+02 0.  0.
         24    2    1    2    0    0  0.10402698870E+03  0.84951280094E+02 -0.14184727218E+03  0.21149113356E+03  0.81052554449E+02 0.  0.
        -13    1    4    4    0    0  0.22203237277E+02  0.70050741526E+02 -0.72064544037E+02  0.10292418881E+03  0.00000000000E+00 0.  1.
         14    1    4    4    0    0  0.81823751424E+02  0.14900538568E+02 -0.69782728139E+02  0.10856694475E+03  0.00000000000E+00 0. -1.
        -13    1    3    3    0    0 -0.67921788939E+02 -0.43277498451E+02 -0.60417280381E+02  0.10068048000E+03  0.00000000000E+00 0.  1.
         13    1    3    3    0    0 -0.13951307701E+02 -0.24942361933E+02  0.31958380158E+02  0.42873050600E+02  0.00000000000E+00 0. -1.
          1    1    1    2  501    0 -0.22153892061E+02 -0.16731419710E+02 -0.54583333049E+02  0.61237860721E+02  0.00000000000E+00 0. -1.
<scales pt_clust_5="13000.00000" pt_clust_6="13000.00000" pt_clust_7="13000.00000" pt_clust_8="13000.00000" pt_clust_9="27.76212"></scales>
<clustering>
<clus scale="   27.762">  2  9  1 -1</clus>
<clus scale="   81.053">  5  6 -1 -1</clus>
<clus scale="   91.872">  7  8 -1 -1</clus>
<clus scale="  141.225">  2  5  1 -1</clus>
<clus scale="   27.762">  2  5  1 -1</clus>
</clustering>
</event>
<event>
 9    2  0.3764910E-005  0.2033204E+03  0.7546771E-02  0.1147948E+00
         21   -1    0    0  501  502  0.00000000000E+00  0.00000000000E+00  0.14754097195E+03  0.14754097195E+03  0.00000000000E+00 0. -1.
          2   -1    0    0  502    0 -0.00000000000E+00 -0.00000000000E+00 -0.68257554912E+03  0.68257554912E+03  0.00000000000E+00 0. -1.
         23    2    1    2    0    0 -0.28697550597E+02  0.18303835988E+03 -0.54039977962E+03  0.57862095809E+03  0.91889611651E+02 0.  0.
         24    2    1    2    0    0 -0.21338968085E+02 -0.16257153937E+03  0.40124173081E+02  0.18722480771E+03  0.80983469827E+02 0.  0.
        -11    1    4    4    0    0 -0.13513874908E+02 -0.12497733267E+03 -0.76412168225E+01  0.12593786838E+03  0.00000000000E+00 0.  1.
         12    1    4    4    0    0 -0.78250931775E+01 -0.37594206700E+02  0.47765389903E+02  0.61286939337E+02  0.00000000000E+00 0. -1.
        -11    1    3    3    0    0 -0.18373181013E+02  0.80931087731E+02 -0.12017727143E+03  0.14604790758E+03  0.00000000000E+00 0.  1.
         11    1    3    3    0    0 -0.10324369584E+02  0.10210727215E+03 -0.42022250819E+03  0.43257305050E+03  0.00000000000E+00 0. -1.
          1    1    1    2  501    0  0.50036518682E+02 -0.20466820512E+02 -0.34758970629E+02  0.64270755269E+02  0.00000000000E+00 0. -1.
<scales pt_clust_5="13000.00000" pt_clust_6="13000.00000" pt_clust_7="13000.00000" pt_clust_8="13000.00000" pt_clust_9="54.06056"></scales>
<clustering>
<clus scale="   54.061">  1  9  2 -1</clus>
<clus scale="   80.983">  5  6 -1 -1</clus>
<clus scale="   91.890">  7  8 -1 -1</clus>
<clus scale="  198.630">  1  5  2 -1</clus>
<clus scale="   54.061">  1  5  2 -1</clus>
</clustering>
</event>
<event>
 9    2  0.3764910E-005  0.1067335E+03  0.7546771E-02  0.1273102E+00
          2   -1    0    0  502    0 -0.00000000000E+00  0.00000000000E+00  0.11696871581E+04  0.11696871581E+04  0.00000000000E+00 0. -1.
         21   -1    0    0  501  502  0.00000000000E+00 -0.00000000000E+00 -0.21858931237E+02  0.21858931237E+02  0.00000000000E+00 0. -1.
         24    2    1    2    0    0 -0.36517638677E+02  0.39019213733E+02  0.51937734002E+03  0.52808908964E+03  0.79178458546E+02 0.  0.
         23    2    1    2    0    0 -0.97835553424E+01 -0.60986708369E+02  0.58681156953E+03  0.59742515789E+03  0.93562303264E+02 0.  0.
        -11    1    3    3    0    0 -0.10726803371E+02  0.53690467684E+02  0.20072603253E+03  0.20805929628E+03  0.00000000000E+00 0.  1.
         12    1    3    3    0    0 -0.25790835306E+02 -0.14671253951E+02  0.31865130749E+03  0.32002979337E+03  0.00000000000E+00 0. -1.
        -11    1    4    4    0    0 -0.35594669532E+02  0.91902078712E+01  0.16597587746E+03  0.16999833034E+03  0.00000000000E+00 0. -1.
         11    1    4    4    0    0  0.25811114190E+02 -0.70176916240E+02  0.42083569207E+03  0.42742682754E+03  0.00000000000E+00 0.  1.
          1    1    1    2  501    0  0.46301194019E+02  0.21967494636E+02  0.41639317359E+02  0.66031841851E+02  0.00000000000E+00 0. -1.
<scales pt_clust_5="13000.00000" pt_clust_6="13000.00000" pt_clust_7="13000.00000" pt_clust_8="13000.00000" pt_clust_9="51.24814"></scales>
<clustering>
<clus scale="   51.248">  2  9  1 -1</clus>
<clus scale="   79.178">  5  6 -1 -1</clus>
<clus scale="   93.562">  7  8 -1 -1</clus>
<clus scale="   94.379">  1  5  2 -1</clus>
<clus scale="   51.248">  2  5  1 -1</clus>
</clustering>
</event>
<event>
 9    2  0.3764910E-005  0.1809836E+03  0.7546771E-02  0.1189315E+00
         21   -1    0    0  501  502  0.00000000000E+00  0.00000000000E+00  0.19426662768E+03  0.19426662768E+03  0.00000000000E+00 0.  1.
          2   -1    0    0  502    0 -0.00000000000E+00 -0.00000000000E+00 -0.75422888897E+03  0.75422888897E+03  0.00000000000E+00 0. -1.
         24    2    1    2    0    0  0.16513846847E+02 -0.69728371900E+02 -0.57084204571E+03  0.58116463488E+03  0.82200600370E+02 0.  0.
         23    2    1    2    0    0  0.79800330559E+02  0.17678786108E+03 -0.34089063489E+02  0.21646553692E+03  0.89851120440E+02 0.  0.
        -11    1    3    3    0    0  0.26104850136E+01 -0.46462449287E+02 -0.10887633171E+03  0.11840451610E+03  0.00000000000E+00 0.  1.
         12    1    3    3    0    0  0.13903361834E+02 -0.23265922613E+02 -0.46196571400E+03  0.46276011878E+03  0.00000000000E+00 0. -1.
        -11    1    4    4    0    0  0.67470309463E+02  0.44359023158E+02 -0.11570401603E+02  0.81571072003E+02  0.00000000000E+00 0.  1.
         11    1    4    4    0    0  0.12330021097E+02  0.13242883792E+03 -0.22518661886E+02  0.13489446492E+03  0.00000000000E+00 0. -1.
          1    1    1    2  501    0 -0.96314177407E+02 -0.10705948918E+03  0.44968847911E+02  0.15086534484E+03  0.00000000000E+00 0. -1.
<scales pt_clust_5="13000.00000" pt_clust_6="13000.00000" pt_clust_7="13000.00000" pt_clust_8="13000.00000" pt_clust_9="157.10457"></scales>
<clustering>
<clus scale="   82.201">  5  6 -1 -1</clus>
<clus scale="   89.851">  7  8 -1 -1</clus>
<clus scale="  109.049">  2  5  1 -1</clus>
<clus scale="  157.105">  1  9  2 -1</clus>
<clus scale="  157.105">  1  5  2 -1</clus>
</clustering>
</event>
<event>
 9    2  0.3764910E-005  0.1228859E+03  0.7546771E-02  0.1247709E+00
         21   -1    0    0  501  502  0.00000000000E+00  0.00000000000E+00  0.92781491961E+02  0.92781491961E+02  0.00000000000E+00 0. -1.
          4   -1    0    0  502    0 -0.00000000000E+00 -0.00000000000E+00 -0.23216806008E+03  0.23216806008E+03  0.00000000000E+00 0. -1.
         23    2    1    2    0    0 -0.46119425121E+02 -0.53199990657E+02 -0.10833619079E+03  0.16769545486E+03  0.10690086514E+03 0.  0.
         24    2    1    2    0    0 -0.23600508259E+01  0.54484722224E+02  0.23445630711E+01  0.98371738465E+02  0.81837321296E+02 0.  0.
        -11    1    4    4    0    0  0.34849807242E+02  0.23710250726E+02  0.20389317920E+02  0.46823170968E+02  0.00000000000E+00 0.  1.
         12    1    4    4    0    0 -0.37209858068E+02  0.30774471498E+02 -0.18044754849E+02  0.51548567496E+02  0.00000000000E+00 0. -1.
        -13    1    3    3    0    0 -0.57189039853E+02 -0.15793299148E+02 -0.11376799564E+03  0.12830889061E+03  0.00000000000E+00 0. -1.
         13    1    3    3    0    0  0.11069614733E+02 -0.37406691509E+02  0.54318048500E+01  0.39386564257E+02  0.00000000000E+00 0.  1.
          3    1    1    2  501    0  0.48479475947E+02 -0.12847315666E+01 -0.33394940403E+02  0.58882358715E+02  0.00000000000E+00 0. -1.
<scales pt_clust_5="13000.00000" pt_clust_6="13000.00000" pt_clust_7="13000.00000" pt_clust_8="13000.00000" pt_clust_9="48.49652"></scales>
<clustering>
<clus scale="   48.497">  1  9  2 -1</clus>
<clus scale="   81.837">  5  6 -1 -1</clus>
<clus scale="  101.836">  1  5  2 -1</clus>
<clus scale="  106.901">  7  8 -1 -1</clus>
<clus scale="   48.497">  1  5  2 -1</clus>
</clustering>
</event>
<event>
 9    2  0.3764910E-005  0.1001889E+03  0.7546771E-02  0.1285096E+00
          2   -1    0    0  502    0 -0.00000000000E+00  0.00000000000E+00  0.70744482987E+03  0.70744482987E+03  0.00000000000E+00 0. -1.
         21   -1    0    0  501  502  0.00000000000E+00 -0.00000000000E+00 -0.29389224737E+02  0.29389224737E+02  0.00000000000E+00 0. -1.
         24    2    1    2    0    0  0.25057456109E+02  0.11920255180E+02  0.33383094376E+03  0.34437896719E+03  0.79898719877E+02 0.  0.
         23    2    1    2    0    0 -0.59321841602E+02 -0.44607091620E+02  0.31684507665E+03  0.33775482189E+03  0.90435853491E+02 0.  0.
        -11    1    3    3    0    0  0.48559426283E+02  0.12781862577E+02  0.29289770480E+03  0.29717075793E+03  0.00000000000E+00 0.  1.
         12    1    3    3    0    0 -0.23501970174E+02 -0.86160739661E+00  0.40933238967E+02  0.47208209262E+02  0.00000000000E+00 0. -1.
        -13    1    4    4    0    0 -0.63826936887E+02 -0.65830087007E+02  0.28361933831E+03  0.29807282213E+03  0.00000000000E+00 0. -1.
         13    1    4    4    0    0  0.45050952848E+01  0.21222995387E+02  0.33225738346E+02  0.39681999765E+02  0.00000000000E+00 0.  1.
          1    1    1    2  501    0  0.34264385493E+02  0.32686836440E+02  0.27379584718E+02  0.54700265530E+02  0.00000000000E+00 0. -1.
<scales pt_clust_5="13000.00000" pt_clust_6="13000.00000" pt_clust_7="13000.00000" pt_clust_8="13000.00000" pt_clust_9="47.35480"></scales>
<clustering>
<clus scale="   47.355">  2  9  1 -1</clus>
<clus scale="   79.899">  5  6 -1 -1</clus>
<clus scale="   90.436">  7  8 -1 -1</clus>
<clus scale="   90.791">  1  5  2 -1</clus>
<clus scale="   47.355">  2  5  1 -1</clus>
</clustering>
</event>
<event>
 9    2  0.3764910E-005  0.1772664E+03  0.7546771E-02  0.1171766E+00
          2   -1    0    0  502    0 -0.00000000000E+00  0.00000000000E+00  0.56134865623E+02  0.56134865623E+02  0.00000000000E+00 0. -1.
         21   -1    0    0  501  502  0.00000000000E+00 -0.00000000000E+00 -0.79483352186E+03  0.79483352186E+03  0.00000000000E+00 0. -1.
         24    2    1    2    0    0  0.11268765903E+03  0.58675270530E+02 -0.30914091239E+03  0.34382562933E+03  0.80663894027E+02 0.  0.
         23    2    1    2    0    0 -0.17134932374E+03 -0.64808066616E+02 -0.37294932648E+03  0.42539121376E+03  0.91136207852E+02 0.  0.
        -13    1    3    3    0    0  0.64427620701E+02 -0.34870191761E+01 -0.19328016254E+03  0.20376530334E+03  0.00000000000E+00 0.  1.
         14    1    3    3    0    0  0.48260038328E+02  0.62162289707E+02 -0.11586074985E+03  0.14006032599E+03  0.00000000000E+00 0. -1.
        -13    1    4    4    0    0 -0.38679678287E+01 -0.29608287675E+02 -0.88775739971E+02  0.93662926933E+02  0.00000000000E+00 0.  1.
         13    1    4    4    0    0 -0.16748135591E+03 -0.35199778940E+02 -0.28417358651E+03  0.33172828683E+03  0.00000000000E+00 0. -1.
          1    1    1    2  501    0  0.58661664706E+02  0.61327960852E+01 -0.56608417371E+02  0.81751544397E+02  0.00000000000E+00 0. -1.
<scales pt_clust_5="13000.00000" pt_clust_6="13000.00000" pt_clust_7="13000.00000" pt_clust_8="13000.00000" pt_clust_9="58.98140"></scales>
<clustering>
<clus scale="   58.981">  2  9  1 -1</clus>
<clus scale="   80.664">  5  6 -1 -1</clus>
<clus scale="   91.136">  7  8 -1 -1</clus>
<clus scale="  172.117">  1  5  2 -1</clus>
<clus scale="   58.981">  2  5  1 -1</clus>
</clustering>
</event>
<event>
 9    2  0.3764910E-005  0.1726415E+03  0.7546771E-02  0.1202698E+00
         21   -1    0    0  501  502  0.00000000000E+00  0.00000000000E+00  0.74568536783E+02  0.74568536783E+02  0.00000000000E+00 0. -1.
          2   -1    0    0  502    0 -0.00000000000E+00 -0.00000000000E+00 -0.91071541012E+03  0.91071541012E+03  0.00000000000E+00 0. -1.
         23    2    1    2    0    0  0.13949174218E+02  0.12224087459E+02 -0.52665360190E+03  0.53493382585E+03  0.91903067798E+02 0.  0.
         24    2    1    2    0    0  0.12111480334E+03  0.77923757562E+02 -0.15074148471E+03  0.22325753689E+03  0.79875058588E+02 0.  0.
        -11    1    4    4    0    0  0.40588881221E+02 -0.87524828947E+01 -0.17466994296E+02  0.45046188799E+02  0.00000000000E+00 0.  1.
         12    1    4    4    0    0  0.80525922115E+02  0.86676240456E+02 -0.13327449041E+03  0.17821134809E+03  0.00000000000E+00 0. -1.
        -13    1    3    3    0    0  0.40632614841E+02  0.38735823750E+02 -0.31321197383E+03  0.31820310178E+03  0.00000000000E+00 0. -1.
         13    1    3    3    0    0 -0.26683440622E+02 -0.26511736291E+02 -0.21344162807E+03  0.21673072407E+03  0.00000000000E+00 0.  1.
          1    1    1    2  501    0 -0.13506397755E+03 -0.90147845020E+02 -0.15875178673E+03  0.22709258417E+03  0.00000000000E+00 0. -1.
<scales pt_clust_5="13000.00000" pt_clust_6="13000.00000" pt_clust_7="13000.00000" pt_clust_8="13000.00000" pt_clust_9="153.05255"></scales>
<clustering>
<clus scale="   79.875">  5  6 -1 -1</clus>
<clus scale="   91.903">  7  8 -1 -1</clus>
<clus scale="   93.756">  2  7  1 -1</clus>
<clus scale="  153.053">  1  9  2 -1</clus>
<clus scale="  153.053">  1  5  2 -1</clus>
</clustering>
</event>
<event>
 9    2  0.3764910E-005  0.1181844E+03  0.7546771E-02  0.1251129E+00
         21   -1    0    0  501  502  0.00000000000E+00  0.00000000000E+00  0.46033737693E+03  0.46033737693E+03  0.00000000000E+00 0.  1.
         -1   -1    0    0    0  501 -0.00000000000E+00 -0.00000000000E+00 -0.65308293651E+02  0.65308293651E+02  0.00000000000E+00 0.  1.
         23    2    1    2    0    0  0.24319876866E+02 -0.60474807556E+02  0.63171785026E+02  0.12996483834E+03  0.93013579767E+02 0.  0.
         24    2    1    2    0    0 -0.77583334327E+02  0.48722039783E+02  0.97217010265E+02  0.15478419840E+03  0.78192007668E+02 0.  0.
        -11    1    4    4    0    0 -0.62680020211E+02  0.58859088941E+02  0.10451496393E+03  0.13533866768E+03  0.00000000000E+00 0.  1.
         12    1    4    4    0    0 -0.14903314116E+02 -0.10137049157E+02 -0.72979536630E+01  0.19445530719E+02  0.00000000000E+00 0. -1.
        -13    1    3    3    0    0  0.35134530853E+02  0.32233212674E+01  0.54290179312E+02  0.64747576233E+02  0.00000000000E+00 0. -1.
         13    1    3    3    0    0 -0.10814653987E+02 -0.63698128823E+02  0.88816057138E+01  0.65217262105E+02  0.00000000000E+00 0.  1.
         -2    1    1    2    0  502  0.53263457461E+02  0.11752767773E+02  0.23464028799E+03  0.24089663385E+03  0.00000000000E+00 0.  1.
<scales pt_clust_5="13000.00000" pt_clust_6="13000.00000" pt_clust_7="13000.00000" pt_clust_8="13000.00000" pt_clust_9="54.54469"></scales>
<clustering>
<clus scale="   54.545">  1  9  2 -1</clus>
<clus scale="   78.192">  5  6 -1 -1</clus>
<clus scale="   93.014">  7  8 -1 -1</clus>
<clus scale="  106.911">  1  5  2 -1</clus>
<clus scale="   54.545">  1  5  2 -1</clus>
</clustering>
</event>
<event>
 9    2  0.3764910E-005  0.2066148E+03  0.7546771E-02  0.1158490E+00
          2   -1    0    0  502    0 -0.00000000000E+00  0.00000000000E+00  0.11086961209E+04  0.11086961209E+04  0.00000000000E+00 0. -1.
         21   -1    0    0  501  502  0.00000000000E+00 -0.00000000000E+00 -0.86940983203E+02  0.86940983203E+02  0.00000000000E+00 0. -1.
         24    2    1    2    0    0 -0.26858690543E+02  0.12183453237E+03  0.41315291896E+03  0.43874401593E+03  0.78967933612E+02 0.  0.
         23    2    1    2    0    0 -0.16476838328E+03 -0.75183492226E+02  0.48064423025E+03  0.52179629579E+03  0.91931064333E+02 0.  0.
        -13    1    3    3    0    0  0.15057191782E+02  0.80225770007E+02  0.17086439075E+03  0.18936085452E+03  0.00000000000E+00 0.  1.
         14    1    3    3    0    0 -0.41915882325E+02  0.41608762360E+02  0.24228852820E+03  0.24938316141E+03  0.00000000000E+00 0. -1.
        -11    1    4    4    0    0 -0.11783237261E+03 -0.49416099568E+02  0.42816055944E+03  0.44681974396E+03  0.00000000000E+00 0.  1.
         11    1    4    4    0    0 -0.46936010670E+02 -0.25767392659E+02  0.52483670813E+02  0.74976551828E+02  0.00000000000E+00 0. -1.
          1    1    1    2  501    0  0.19162707382E+03 -0.46651040140E+02  0.12795798847E+03  0.23509679236E+03  0.00000000000E+00 0. -1.
<scales pt_clust_5="13000.00000" pt_clust_6="13000.00000" pt_clust_7="13000.00000" pt_clust_8="13000.00000" pt_clust_9="185.03609"></scales>
<clustering>
<clus scale="   78.968">  5  6 -1 -1</clus>
<clus scale="   91.931">  7  8 -1 -1</clus>
<clus scale="  147.652">  1  5  2 -1</clus>
<clus scale="  185.036">  2  9  1 -1</clus>
<clus scale="  185.036">  2  5  1 -1</clus>
</clustering>
</event>
<event>
 9    2  0.3764910E-005  0.9956544E+02  0.7546771E-02  0.1288688E+00
          4   -1    0    0  502    0 -0.00000000000E+00  0.00000000000E+00  0.14476829467E+03  0.14476829467E+03  0.00000000000E+00 0. -1.
         21   -1    0    0  501  502  0.00000000000E+00 -0.00000000000E+00 -0.11501860622E+03  0.11501860622E+03  0.00000000000E+00 0. -1.
         24    2    1    2    0    0 -0.17783394006E+02 -0.22403101283E+02  0.54333326648E+02  0.10174997436E+03  0.81134449203E+02 0.  0.
         23    2    1    2    0    0  0.38703511093E+02  0.41682041853E+01  0.20902473296E+02  0.10475326009E+03  0.94978926149E+02 0.  0.
        -11    1    3    3    0    0  0.29102840844E+01 -0.23032486495E+02 -0.16155501634E+02  0.28283659959E+02  0.00000000000E+00 0.  1.
         12    1    3    3    0    0 -0.20693678090E+02  0.62938521187E+00  0.70488828282E+02  0.73466314398E+02  0.00000000000E+00 0. -1.
        -11    1    4    4    0    0 -0.15862400691E+02  0.33118979044E+02 -0.63003132099E+01  0.37258240366E+02  0.00000000000E+00 0. -1.
         11    1    4    4    0    0  0.54565911785E+02 -0.28950774859E+02  0.27202786506E+02  0.67495019724E+02  0.00000000000E+00 0.  1.
          3    1    1    2  501    0 -0.20920117087E+02  0.18234897098E+02 -0.45486111496E+02  0.53283666448E+02  0.00000000000E+00 0. -1.
<scales pt_clust_5="13000.00000" pt_clust_6="13000.00000" pt_clust_7="13000.00000" pt_clust_8="13000.00000" pt_clust_9="27.75181"></scales>
<clustering>
<clus scale="   27.752">  2  9  1 -1</clus>
<clus scale="   81.134">  5  6 -1 -1</clus>
<clus scale="   86.459">  1  5  2 -1</clus>
<clus scale="   94.979">  7  8 -1 -1</clus>
<clus scale="   27.752">  2  5  1 -1</clus>
</clustering>
</event>
<event>
 9    2  0.3764910E-005  0.1254008E+03  0.7546771E-02  0.1236228E+00
         21   -1    0    0  501  502  0.00000000000E+00  0.00000000000E+00  0.17616272064E+02  0.17616272064E+02  0.00000000000E+00 0. -1.
          2   -1    0    0  502    0 -0.00000000000E+00 -0.00000000000E+00 -0.11719857990E+04  0.11719857990E+04  0.00000000000E+00 0. -1.
         24    2    1    2    0    0 -0.10679041355E+02 -0.94332583722E+02 -0.62728356118E+03  0.64139864317E+03  0.94312645283E+02 0.  0.
         23    2    1    2    0    0  0.29138249393E+02  0.63352521347E+02 -0.35545777481E+03  0.37282742453E+03  0.88246695539E+02 0.  0.
        -11    1    3    3    0    0 -0.44804367724E+02 -0.82897076514E+02 -0.51297964607E+03  0.52156253119E+03  0.00000000000E+00 0.  1.
         12    1    3    3    0    0  0.34125326369E+02 -0.11435507207E+02 -0.11430391511E+03  0.11983611198E+03  0.00000000000E+00 0. -1.
        -11    1    4    4    0    0 -0.13664754206E+01  0.70178076071E+02 -0.30872618779E+03  0.31660494097E+03  0.00000000000E+00 0.  1.
         11    1    4    4    0    0  0.30504724814E+02 -0.68255547242E+01 -0.46731587016E+02  0.56222483566E+02  0.00000000000E+00 0. -1.
          1    1    1    2  501    0 -0.18459208039E+02  0.30980062375E+02 -0.17162819091E+03  0.17537600332E+03  0.00000000000E+00 0. -1.
<scales pt_clust_5="13000.00000" pt_clust_6="13000.00000" pt_clust_7="13000.00000" pt_clust_8="13000.00000" pt_clust_9="36.06256"></scales>
<clustering>
<clus scale="   36.063">  1  9  2 -1</clus>
<clus scale="   88.247">  7  8 -1 -1</clus>
<clus scale="   94.313">  5  6 -1 -1</clus>
<clus scale="  120.905">  1  7  2 -1</clus>
<clus scale="   36.063">  1  5  2 -1</clus>
</clustering>
</event>
<event>
 9    2  0.3764910E-005  0.2051581E+03  0.7546771E-02  0.1160410E+00
         21   -1    0    0  501  502  0.00000000000E+00  0.00000000000E+00  0.10909351101E+03  0.10909351101E+03  0.00000000000E+00 0.  1.
          2   -1    0    0  502    0 -0.00000000000E+00 -0.00000000000E+00 -0.84208521900E+03  0.84208521900E+03  0.00000000000E+00 0. -1.
         23    2    1    2    0    0  0.11521393083E+03 -0.19142551831E+02 -0.24057745055E+03  0.28049430468E+03  0.84610035445E+02 0.  0.
         24    2    1    2    0    0 -0.90287681553E+02  0.18190783082E+03 -0.95660114886E+02  0.24111754628E+03  0.88002779440E+02 0.  0.
        -11    1    4    4    0    0 -0.76243084617E+02  0.14282970552E+03 -0.31885354466E+02  0.16501517676E+03  0.00000000000E+00 0.  1.
         12    1    4    4    0    0 -0.14044596936E+02  0.39078125303E+02 -0.63774760421E+02  0.76102369523E+02  0.00000000000E+00 0. -1.
        -13    1    3    3    0    0  0.28945517350E+02 -0.38751986106E+02 -0.46005453921E+02  0.66753735418E+02  0.00000000000E+00 0. -1.
         13    1    3    3    0    0  0.86268413484E+02  0.19609434275E+02 -0.19457199663E+03  0.21374056926E+03  0.00000000000E+00 0.  1.
          1    1    1    2  501    0 -0.24926249281E+02 -0.16276527899E+03 -0.39675414255E+03  0.42956687905E+03  0.00000000000E+00 0. -1.
<scales pt_clust_5="13000.00000" pt_clust_6="13000.00000" pt_clust_7="13000.00000" pt_clust_8="13000.00000" pt_clust_9="185.32507"></scales>
<clustering>
<clus scale="   84.610">  7  8 -1 -1</clus>
<clus scale="   88.003">  5  6 -1 -1</clus>
<clus scale="  144.220">  2  7  1 -1</clus>
<clus scale="  185.325">  1  9  2 -1</clus>
<clus scale="  185.325">  1  5  2 -1</clus>
</clustering>
</event>
<event>
 9    2  0.3764910E-005  0.1880650E+03  0.7546771E-02  0.1161224E+00
         -1   -1    0    0    0  501 -0.00000000000E+00  0.00000000000E+00  0.21116181397E+03  0.21116181397E+03  0.00000000000E+00 0.  1.
         21   -1    0    0  501  502  0.00000000000E+00 -0.00000000000E+00 -0.18850803328E+03  0.18850803328E+03  0.00000000000E+00 0.  1.
         24    2    1    2    0    0 -0.13982875022E+03 -0.76085655254E+02  0.25486294091E+02  0.18092908499E+03  0.82125978154E+02 0.  0.
         23    2    1    2    0    0  0.15856754171E+03  0.64267748602E+02  0.78317788412E+01  0.19415352260E+03  0.91434374190E+02 0.  0.
        -13    1    3    3    0    0 -0.14195335539E+03 -0.46372922356E+02  0.21076648576E+02  0.15081587499E+03  0.00000000000E+00 0.  1.
         14    1    3    3    0    0  0.21246051674E+01 -0.29712732899E+02  0.44096455147E+01  0.30113210008E+02  0.00000000000E+00 0. -1.
        -11    1    4    4    0    0  0.44082355763E+02  0.64288543093E+02  0.15250330852E+02  0.79428228318E+02  0.00000000000E+00 0. -1.
         11    1    4    4    0    0  0.11448518595E+03 -0.20794490796E-01 -0.74185520106E+01  0.11472529429E+03  0.00000000000E+00 0.  1.
         -2    1    1    2    0  502 -0.18738791497E+02  0.11817906652E+02 -0.10664292244E+02  0.24587239647E+02  0.00000000000E+00 0.  1.
<scales pt_clust_5="13000.00000" pt_clust_6="13000.00000" pt_clust_7="13000.00000" pt_clust_8="13000.00000" pt_clust_9="22.15412"></scales>
<clustering>
<clus scale="   22.154">  2  9  1 -1</clus>
<clus scale="   82.126">  5  6 -1 -1</clus>
<clus scale="   91.434">  7  8 -1 -1</clus>
<clus scale="  183.720">  1  5  2 -1</clus>
<clus scale="   22.154">  2  5  1 -1</clus>
</clustering>
</event>
<event>
 9    2  0.3764910E-005  0.9200294E+02  0.7546771E-02  0.1300616E+00
         21   -1    0    0  501  502  0.00000000000E+00  0.00000000000E+00  0.21468907325E+03  0.21468907325E+03  0.00000000000E+00 0. -1.
          2   -1    0    0  502    0 -0.00000000000E+00 -0.00000000000E+00 -0.79969829507E+02  0.79969829507E+02  0.00000000000E+00 0. -1.
         23    2    1    2    0    0 -0.25823466267E+02 -0.86621389718E+01 -0.12366932248E+02  0.90888382564E+02  0.85824664347E+02 0.  0.
         24    2    1    2    0    0  0.47785583542E+02 -0.41784671869E+01  0.57222250448E+02  0.11037490533E+03  0.81285375056E+02 0.  0.
        -13    1    4    4    0    0  0.16270505364E+02  0.37703508660E+02  0.32769491731E+02  0.52536877509E+02  0.00000000000E+00 0.  1.
         14    1    4    4    0    0  0.31515078178E+02 -0.41881975847E+02  0.24452758716E+02  0.57838027821E+02  0.00000000000E+00 0. -1.
        -11    1    3    3    0    0 -0.53906387602E+02  0.75582772700E+01  0.39641196771E+01  0.54577838217E+02  0.00000000000E+00 0.  1.
         11    1    3    3    0    0  0.28082921335E+02 -0.16220416242E+02 -0.16331051925E+02  0.36310544347E+02  0.00000000000E+00 0. -1.
          1    1    1    2  501    0 -0.21962117274E+02  0.12840606159E+02  0.89863925545E+02  0.93395614865E+02  0.00000000000E+00 0. -1.
<scales pt_clust_5="13000.00000" pt_clust_6="13000.00000" pt_clust_7="13000.00000" pt_clust_8="13000.00000" pt_clust_9="25.44044"></scales>
<clustering>
<clus scale="   25.440">  1  9  2 -1</clus>
<clus scale="   81.285">  5  6 -1 -1</clus>
<clus scale="   85.825">  7  8 -1 -1</clus>
<clus scale="   87.784">  1  5  2 -1</clus>
<clus scale="   25.440">  1  5  2 -1</clus>
</clustering>
</event>
<event>
 9    2  0.3764910E-005  0.1896820E+03  0.7546771E-02  0.1160760E+00
         21   -1    0    0  501  502  0.00000000000E+00  0.00000000000E+00  0.92511623811E+02  0.92511623811E+02  0.00000000000E+00 0.  1.
          4   -1    0    0  502    0 -0.00000000000E+00 -0.00000000000E+00 -0.95662114619E+03  0.95662114619E+03  0.00000000000E+00 0. -1.
         24    2    1    2    0    0 -0.10564241172E+02  0.16586376618E+03 -0.47263132193E+03  0.50607301861E+03  0.71464267863E+02 0.  0.
         23    2    1    2    0    0  0.63173892725E+02 -0.16148175112E+03 -0.56465393923E+02  0.20391294242E+03  0.91240619848E+02 0.  0.
        -11    1    3    3    0    0 -0.25471579072E+02  0.97122078738E+02 -0.19091538110E+03  0.21570855861E+03  0.00000000000E+00 0.  1.
         12    1    3    3    0    0  0.14907337900E+02  0.68741687440E+02 -0.28171594083E+03  0.29036446000E+03  0.00000000000E+00 0. -1.
        -11    1    4    4    0    0 -0.22694275929E+02 -0.46033532512E+02 -0.22721980752E+02  0.56128465904E+02  0.00000000000E+00 0. -1.
         11    1    4    4    0    0  0.85868168654E+02 -0.11544821860E+03 -0.33743413171E+02  0.14778447652E+03  0.00000000000E+00 0.  1.
          3    1    1    2  501    0 -0.52609651554E+02 -0.43820150614E+01 -0.33501280653E+03  0.33914680897E+03  0.00000000000E+00 0. -1.
<scales pt_clust_5="13000.00000" pt_clust_6="13000.00000" pt_clust_7="13000.00000" pt_clust_8="13000.00000" pt_clust_9="52.79186"></scales>
<clustering>
<clus scale="   52.792">  1  9  2 -1</clus>
<clus scale="   71.464">  5  6 -1 -1</clus>
<clus scale="   91.241">  7  8 -1 -1</clus>
<clus scale="  181.002">  2  5  1 -1</clus>
<clus scale="   52.792">  1  5  2 -1</clus>
</clustering>
</event>
<event>
 9    2  0.3764910E-005  0.1069227E+03  0.7546771E-02  0.1269961E+00
         21   -1    0    0  501  502  0.00000000000E+00  0.00000000000E+00  0.19308796765E+03  0.19308796765E+03  0.00000000000E+00 0.  1.
          2   -1    0    0  502    0 -0.00000000000E+00 -0.00000000000E+00 -0.91526012204E+02  0.91526012204E+02  0.00000000000E+00 0. -1.
         23    2    1    2    0    0 -0.27278691174E+02 -0.58685194194E+02 -0.12835171292E+02  0.11230917218E+03  0.90887455256E+02 0.  0.
         24    2    1    2    0    0  0.24923822534E+02  0.35259764394E+02  0.54051979378E+02  0.10752955795E+03  0.82319751234E+02 0.  0.
        -11    1    4    4    0    0  0.12947376815E+02  0.45840844286E+02  0.70183798907E+02  0.84822067885E+02  0.00000000000E+00 0.  1.
         12    1    4    4    0    0  0.11976445719E+02 -0.10581079892E+02 -0.16131819529E+02  0.22707490064E+02  0.00000000000E+00 0. -1.
        -11    1    3    3    0    0  0.10186492174E+02  0.18297685326E+02  0.10700795677E+02  0.23517587870E+02  0.00000000000E+00 0.  1.
         11    1    3    3    0    0 -0.37465183347E+02 -0.76982879520E+02 -0.23535966969E+02  0.88791584306E+02  0.00000000000E+00 0. -1.
          1    1    1    2  501    0  0.23548686398E+01  0.23425429800E+02  0.60345147362E+02  0.64775249731E+02  0.00000000000E+00 0. -1.
<scales pt_clust_5="13000.00000" pt_clust_6="13000.00000" pt_clust_7="13000.00000" pt_clust_8="13000.00000" pt_clust_9="23.54350"></scales>
<clustering>
<clus scale="   23.543">  1  9  2 -1</clus>
<clus scale="   82.320">  5  6 -1 -1</clus>
<clus scale="   90.887">  7  8 -1 -1</clus>
<clus scale="   99.742">  1  5  2 -1</clus>
<clus scale="   23.543">  1  5  2 -1</clus>
</clustering>
</event>
<event>
 9    2  0.3764910E-005  0.1375674E+03  0.7546771E-02  0.1219963E+00
         21   -1    0    0  501  502  0.00000000000E+00  0.00000000000E+00  0.25885481709E+02  0.25885481709E+02  0.00000000000E+00 0.  1.
          2   -1    0    0  502    0 -0.00000000000E+00 -0.00000000000E+00 -0.14666223681E+04  0.14666223681E+04  0.00000000000E+00 0. -1.
         24    2    1    2    0    0 -0.47424933842E+02  0.83564109302E+02 -0.43545429042E+03  0.45315219391E+03  0.80587760177E+02 0.  0.
         23    2    1    2    0    0 -0.27878624760E+02 -0.12114588336E+03 -0.42143800031E+03  0.44947640760E+03  0.94686377661E+02 0.  0.
        -13    1    3    3    0    0 -0.13202799552E+02  0.40144240551E+02 -0.58511102407E+02  0.72176333173E+02  0.00000000000E+00 0.  1.
         14    1    3    3    0    0 -0.34222134291E+02  0.43419868750E+02 -0.37694318801E+03  0.38097586074E+03  0.00000000000E+00 0. -1.
        -13    1    4    4    0    0 -0.53461215021E+02 -0.87500615232E+02 -0.20809733218E+03  0.23198913517E+03  0.00000000000E+00 0.  1.
         13    1    4    4    0    0  0.25582590262E+02 -0.33645268129E+02 -0.21334066813E+03  0.21748727243E+03  0.00000000000E+00 0. -1.
          1    1    1    2  501    0  0.75303558602E+02  0.37581774059E+02 -0.58384459564E+03  0.58987924826E+03  0.00000000000E+00 0. -1.
<scales pt_clust_5="13000.00000" pt_clust_6="13000.00000" pt_clust_7="13000.00000" pt_clust_8="13000.00000" pt_clust_9="84.16070"></scales>
<clustering>
<clus scale="   80.588">  5  6 -1 -1</clus>
<clus scale="   84.161">  1  9  2 -1</clus>
<clus scale="   94.686">  7  8 -1 -1</clus>
<clus scale="  128.272">  2  5  1 -1</clus>
<clus scale="   84.161">  1  5  2 -1</clus>
</clustering>
</event>
<event>
 9    2  0.3764910E-005  0.2019349E+03  0.7546771E-02  0.1149195E+00
         -1   -1    0    0    0  501 -0.00000000000E+00  0.00000000000E+00  0.15140793417E+03  0.15140793417E+03  0.00000000000E+00 0.  1.
         21   -1    0    0  501  502  0.00000000000E+00 -0.00000000000E+00 -0.55152160726E+03  0.55152160726E+03  0.00000000000E+00 0.  1.
         23    2    1    2    0    0  0.39989154059E+02  0.18886353006E+03  0.31313900867E+02  0.21471758610E+03  0.88625707131E+02 0.  0.
         24    2    1    2    0    0 -0.43777471052E+02 -0.12635416140E+03 -0.36881733950E+03  0.39965793806E+03  0.76278414169E+02 0.  0.
        -13    1    4    4    0    0 -0.46524399955E+02 -0.10173035849E+03 -0.35290889879E+03  0.37021382534E+03  0.00000000000E+00 0.  1.
         14    1    4    4    0    0  0.27469289038E+01 -0.24623802912E+02 -0.15908440710E+02  0.29444112723E+02  0.00000000000E+00 0. -1.
        -13    1    3    3    0    0  0.32167162360E+02  0.10793367622E+03 -0.25565320492E+02  0.11549021780E+03  0.00000000000E+00 0.  1.
         13    1    3    3    0    0  0.78219916999E+01  0.80929853842E+02  0.56879221359E+02  0.99227368299E+02  0.00000000000E+00 0. -1.
         -2    1    1    2    0  502  0.37883169921E+01 -0.62509368661E+02 -0.62610234458E+02  0.88554017271E+02  0.00000000000E+00 0.  1.
<scales pt_clust_5="13000.00000" pt_clust_6="13000.00000" pt_clust_7="13000.00000" pt_clust_8="13000.00000" pt_clust_9="62.62406"></scales>
<clustering>
<clus scale="   62.624">  2  9  1 -1</clus>
<clus scale="   76.278">  5  6 -1 -1</clus>
<clus scale="   88.626">  7  8 -1 -1</clus>
<clus scale="  196.829">  2  5  1 -1</clus>
<clus scale="   62.624">  2  5  1 -1</clus>
</clustering>
</event>
<event>
 9    2  0.3764910E-005  0.1004677E+03  0.7546771E-02  0.1284295E+00
          2   -1    0    0  502    0 -0.00000000000E+00  0.00000000000E+00  0.49054461709E+03  0.49054461709E+03  0.00000000000E+00 0. -1.
         21   -1    0    0  501  502  0.00000000000E+00 -0.00000000000E+00 -0.40190045232E+02  0.40190045232E+02  0.00000000000E+00 0.  1.
         24    2    1    2    0    0  0.52646855035E+02 -0.62544727640E+00  0.27276463745E+03  0.28952134826E+03  0.81547416443E+02 0.  0.
         23    2    1    2    0    0 -0.15792589060E+02 -0.36394753587E+02  0.15487615629E+03  0.18425150309E+03  0.91586072332E+02 0.  0.
        -13    1    3    3    0    0 -0.14358404355E+02 -0.19157258292E+02  0.40208712716E+02  0.46796419726E+02  0.00000000000E+00 0.  1.
         14    1    3    3    0    0  0.67005259390E+02  0.18531811015E+02  0.23255592473E+03  0.24272492854E+03  0.00000000000E+00 0. -1.
        -13    1    4    4    0    0 -0.50275255468E+02 -0.27585062658E+01  0.93855432251E+02  0.10650846366E+03  0.00000000000E+00 0. -1.
         13    1    4    4    0    0  0.34482666409E+02 -0.33636247321E+02  0.61020724038E+02  0.77743039422E+02  0.00000000000E+00 0.  1.
          1    1    1    2  501    0 -0.36854265975E+02  0.37020200863E+02  0.22713778119E+02  0.56961810970E+02  0.00000000000E+00 0. -1.
<scales pt_clust_5="13000.00000" pt_clust_6="13000.00000" pt_clust_7="13000.00000" pt_clust_8="13000.00000" pt_clust_9="52.23727"></scales>
<clustering>
<clus scale="   52.237">  2  9  1 -1</clus>
<clus scale="   81.547">  5  6 -1 -1</clus>
<clus scale="   91.410">  1  5  2 -1</clus>
<clus scale="   91.586">  7  8 -1 -1</clus>
<clus scale="   52.237">  2  5  1 -1</clus>
</clustering>
</event>
<event>
 9    2  0.3764910E-005  0.9939645E+02  0.7546771E-02  0.1287743E+00
          2   -1    0    0  502    0 -0.00000000000E+00  0.00000000000E+00  0.28993617934E+03  0.28993617934E+03  0.00000000000E+00 0. -1.
         21   -1    0    0  501  502  0.00000000000E+00 -0.00000000000E+00 -0.48779015677E+02  0.48779015677E+02  0.00000000000E+00 0.  1.
         24    2    1    2    0    0 -0.15064730810E+02 -0.42521849232E+02  0.13855786403E+03  0.16328045180E+03  0.73669332019E+02 0.  0.
         23    2    1    2    0    0  0.41169717099E+02  0.41983751969E+02  0.10622223514E+03  0.14907406190E+03  0.86500472006E+02 0.  0.
        -11    1    3    3    0    0  0.28994724874E+01 -0.36176271686E+02  0.13956042328E+03  0.14420208501E+03  0.00000000000E+00 0.  1.
         12    1    3    3    0    0 -0.17964203298E+02 -0.63455775467E+01 -0.10025592531E+01  0.19078366795E+02  0.00000000000E+00 0. -1.
        -13    1    4    4    0    0  0.44061227724E+02  0.22230211051E+01  0.10453001161E+02  0.45338712429E+02  0.00000000000E+00 0.  1.
         13    1    4    4    0    0 -0.28915106252E+01  0.39760730864E+02  0.95769233983E+02  0.10373534947E+03  0.00000000000E+00 0. -1.
          1    1    1    2  501    0 -0.26104986289E+02  0.53809726313E+00 -0.36229355066E+01  0.26360681317E+02  0.00000000000E+00 0. -1.
<scales pt_clust_5="13000.00000" pt_clust_6="13000.00000" pt_clust_7="13000.00000" pt_clust_8="13000.00000" pt_clust_9="26.11053"></scales>
<clustering>
<clus scale="   26.111">  2  9  1 -1</clus>
<clus scale="   73.669">  5  6 -1 -1</clus>
<clus scale="   86.500">  7  8 -1 -1</clus>
<clus scale="   88.456">  1  5  2 -1</clus>
<clus scale="   26.111">  2  5  1 -1</clus>
</clustering>
</event>
<event>
 9    2  0.3764910E-005  0.1409643E+03  0.7546771E-02  0.1230479E+00
         21   -1    0    0  501  502  0.00000000000E+00  0.00000000000E+00  0.22859213593E+03  0.22859213593E+03  0.00000000000E+00 0. -1.
          2   -1    0    0  502    0 -0.00000000000E+00 -0.00000000000E+00 -0.29438821075E+03  0.29438821075E+03  0.00000000000E+00 0. -1.
         23    2    1    2    0    0  0.17257488225E+02 -0.47522366867E+01  0.19476494057E+02  0.97742762150E+02  0.94095212836E+02 0.  0.
         24    2    1    2    0    0  0.90597520318E+02 -0.41416680471E+02 -0.21505410382E+03  0.25028753854E+03  0.80450806520E+02 0.  0.
        -11    1    4    4    0    0  0.12467630722E+02 -0.28893578475E+02 -0.14422820992E+02  0.34616447800E+02  0.00000000000E+00 0.  1.
         12    1    4    4    0    0  0.78129889596E+02 -0.12523101996E+02 -0.20063128283E+03  0.21567109074E+03  0.00000000000E+00 0. -1.
        -13    1    3    3    0    0 -0.26193146342E+02  0.67975599802E+01 -0.23281531709E+02  0.35697583331E+02  0.00000000000E+00 0.  1.
         13    1    3    3    0    0  0.43450634567E+02 -0.11549796667E+02  0.42758025766E+02  0.62045178819E+02  0.00000000000E+00 0. -1.
          1    1    1    2  501    0 -0.10785500854E+03  0.46168917158E+02  0.12978153495E+03  0.17495004599E+03  0.00000000000E+00 0. -1.
<scales pt_clust_5="13000.00000" pt_clust_6="13000.00000" pt_clust_7="13000.00000" pt_clust_8="13000.00000" pt_clust_9="115.75227"></scales>
<clustering>
<clus scale="   80.451">  5  6 -1 -1</clus>
<clus scale="   94.095">  7  8 -1 -1</clus>
<clus scale="   95.783">  2  7  1 -1</clus>
<clus scale="  115.752">  1  9  2 -1</clus>
<clus scale="  115.752">  1  5  2 -1</clus>
</clustering>
</event>
<event>
 9    2  0.3764910E-005  0.1086230E+03  0.7546771E-02  0.1265089E+00
         -1   -1    0    0    0  501 -0.00000000000E+00  0.00000000000E+00  0.27603132803E+02  0.27603132803E+02  0.00000000000E+00 0.  1.
         21   -1    0    0  501  502  0.00000000000E+00 -0.00000000000E+00 -0.11894388035E+04  0.11894388035E+04  0.00000000000E+00 0. -1.
         23    2    1    2    0    0 -0.68660089393E+02 -0.25287517026E+02 -0.29959432342E+03  0.32186666874E+03  0.92128863193E+02 0.  0.
         24    2    1    2    0    0  0.21967575539E+02 -0.75091936324E+02 -0.60368181291E+03  0.61391158643E+03  0.79588513272E+02 0.  0.
        -13    1    4    4    0    0  0.22834303890E+02 -0.35359163999E+02 -0.97825287112E+02  0.10649630375E+03  0.00000000000E+00 0.  1.
         14    1    4    4    0    0 -0.86672835173E+00 -0.39732772325E+02 -0.50585652580E+03  0.50741528269E+03  0.00000000000E+00 0. -1.
        -13    1    3    3    0    0 -0.48862132417E+02 -0.49505591933E+02 -0.26996153432E+03  0.27877866064E+03  0.00000000000E+00 0. -1.
         13    1    3    3    0    0 -0.19797956977E+02  0.24218074907E+02 -0.29632789095E+02  0.43088008102E+02  0.00000000000E+00 0.  1.
         -2    1    1    2    0  502  0.46692513855E+02  0.10037945335E+03 -0.25855953437E+03  0.28126368112E+03  0.00000000000E+00 0.  1.
<scales pt_clust_5="13000.00000" pt_clust_6="13000.00000" pt_clust_7="13000.00000" pt_clust_8="13000.00000" pt_clust_9="110.70789"></scales>
<clustering>
<clus scale="   79.589">  5  6 -1 -1</clus>
<clus scale="   92.129">  7  8 -1 -1</clus>
<clus scale="  110.708">  2  9  1 -1</clus>
<clus scale="  110.708">  2  5  1 -1</clus>
<clus scale="  108.623">  2  5  1 -1</clus>
</clustering>
</event>
<event>
 9    2  0.3764910E-005  0.1357954E+03  0.7546771E-02  0.1221074E+00
         21   -1    0    0  501  502  0.00000000000E+00  0.00000000000E+00  0.44218391645E+02  0.44218391645E+02  0.00000000000E+00 0. -1.
          2   -1    0    0  502    0 -0.00000000000E+00 -0.00000000000E+00 -0.11435852445E+04  0.11435852445E+04  0.00000000000E+00 0. -1.
         24    2    1    2    0    0  0.10101368943E+03  0.63618658925E+02 -0.62949188310E+03  0.64576109689E+03  0.80599405436E+02 0.  0.
         23    2    1    2    0    0 -0.40810868553E+02 -0.82564963118E+02 -0.46076227569E+03  0.47827433972E+03  0.89229867217E+02 0.  0.
        -13    1    3    3    0    0  0.47663442388E+02  0.11972769038E+02 -0.10374117798E+03  0.11479278265E+03  0.00000000000E+00 0.  1.
         14    1    3    3    0    0  0.53350247039E+02  0.51645889886E+02 -0.52575070512E+03  0.53096831425E+03  0.00000000000E+00 0. -1.
        -11    1    4    4    0    0 -0.52679182549E+02 -0.10866520340E+02 -0.15771815670E+03  0.16663791432E+03  0.00000000000E+00 0.  1.
         11    1    4    4    0    0  0.11868313997E+02 -0.71698442778E+02 -0.30304411899E+03  0.31163642539E+03  0.00000000000E+00 0. -1.
          1    1    1    2  501    0 -0.60202820875E+02  0.18946304194E+02 -0.91126941090E+01  0.63768199581E+02  0.00000000000E+00 0. -1.
<scales pt_clust_5="13000.00000" pt_clust_6="13000.00000" pt_clust_7="13000.00000" pt_clust_8="13000.00000" pt_clust_9="63.11372"></scales>
<clustering>
<clus scale="   63.114">  1  9  2 -1</clus>
<clus scale="   80.599">  5  6 -1 -1</clus>
<clus scale="   89.230">  7  8 -1 -1</clus>
<clus scale="  130.287">  2  5  1 -1</clus>
<clus scale="   63.114">  1  5  2 -1</clus>
</clustering>
</event>
<event>
 9    2  0.3764910E-005  0.1695946E+03  0.7546771E-02  0.1200461E+00
         -1   -1    0    0    0  501 -0.00000000000E+00  0.00000000000E+00  0.71615579220E+03  0.71615579220E+03  0.00000000000E+00 0.  1.
         21   -1    0    0  501  502  0.00000000000E+00 -0.00000000000E+00 -0.70418408435E+02  0.70418408435E+02  0.00000000000E+00 0.  1.
         23    2    1    2    0    0  0.20686090603E+02  0.45312995658E+02  0.27532272710E+03  0.29424392106E+03  0.91080728506E+02 0.  0.
         24    2    1    2    0    0 -0.13871878590E+03  0.53714451674E+02  0.21771488563E+03  0.27540777599E+03  0.79508035887E+02 0.  0.
        -13    1    4    4    0    0 -0.97484686770E+02  0.49571576727E+02  0.20450537280E+03  0.23191173510E+03  0.00000000000E+00 0.  1.
         14    1    4    4    0    0 -0.41234099133E+02  0.41428749466E+01  0.13209512837E+02  0.43496040895E+02  0.00000000000E+00 0. -1.
        -11    1    3    3    0    0  0.13416878950E+01 -0.27925782863E+02  0.68522103189E+02  0.74006270683E+02  0.00000000000E+00 0.  1.
         11    1    3    3    0    0  0.19344402708E+02  0.73238778521E+02  0.20680062391E+03  0.22023765038E+03  0.00000000000E+00 0. -1.
         -2    1    1    2    0  502  0.11803269530E+03 -0.99027447331E+02  0.15269977102E+03  0.21692250357E+03  0.00000000000E+00 0.  1.
<scales pt_clust_5="13000.00000" pt_clust_6="13000.00000" pt_clust_7="13000.00000" pt_clust_8="13000.00000" pt_clust_9="149.80253"></scales>
<clustering>
<clus scale="   79.508">  5  6 -1 -1</clus>
<clus scale="   91.081">  7  8 -1 -1</clus>
<clus scale="  103.812">  1  7  2 -1</clus>
<clus scale="  149.803">  2  9  1 -1</clus>
<clus scale="  149.803">  2  5  1 -1</clus>
</clustering>
</event>
<event>
 9    2  0.3764910E-005  0.3388979E+03  0.7546771E-02  0.1067607E+00
         21   -1    0    0  501  502  0.00000000000E+00  0.00000000000E+00  0.92567826957E+02  0.92567826957E+02  0.00000000000E+00 0. -1.
          2   -1    0    0  502    0 -0.00000000000E+00 -0.00000000000E+00 -0.16869198900E+04  0.16869198900E+04  0.00000000000E+00 0. -1.
         24    2    1    2    0    0 -0.10118961482E+03 -0.34869761778E+03 -0.96732046719E+03  0.10363404470E+04  0.80394458996E+02 0.  0.
         23    2    1    2    0    0  0.12907407746E+03  0.25071366355E+03 -0.45789025830E+03  0.54569552747E+03  0.92750533638E+02 0.  0.
        -13    1    3    3    0    0  0.15252243627E+01 -0.13210530598E+03 -0.33563879780E+03  0.36070422892E+03  0.00000000000E+00 0.  1.
         14    1    3    3    0    0 -0.10271483919E+03 -0.21659231180E+03 -0.63168166939E+03  0.67563621807E+03  0.00000000000E+00 0. -1.
        -13    1    4    4    0    0  0.76105921059E+01  0.56924718436E+02 -0.16093618291E+03  0.17087656262E+03  0.00000000000E+00 0.  1.
         13    1    4    4    0    0  0.12146348536E+03  0.19378894512E+03 -0.29695407539E+03  0.37481896486E+03  0.00000000000E+00 0. -1.
          1    1    1    2  501    0 -0.27884462639E+02  0.97983954221E+02 -0.16914133751E+03  0.19745174245E+03  0.00000000000E+00 0. -1.
<scales pt_clust_5="13000.00000" pt_clust_6="13000.00000" pt_clust_7="13000.00000" pt_clust_8="13000.00000" pt_clust_9="101.87443"></scales>
<clustering>
<clus scale="   80.394">  5  6 -1 -1</clus>
<clus scale="   92.751">  7  8 -1 -1</clus>
<clus scale="  101.874">  1  9  2 -1</clus>
<clus scale="  335.727">  2  5  1 -1</clus>
<clus scale="  101.874">  1  5  2 -1</clus>
</clustering>
</event>
<event>
 9    2  0.3764910E-005  0.1473110E+03  0.7546771E-02  0.1226780E+00
         21   -1    0    0  501  502  0.00000000000E+00  0.00000000000E+00  0.22534489296E+03  0.22534489296E+03  0.00000000000E+00 0. -1.
         -3   -1    0    0    0  501 -0.00000000000E+00 -0.00000000000E+00 -0.32214231301E+03  0.32214231301E+03  0.00000000000E+00 0.  1.
         24    2    1    2    0    0 -0.64521370374E+01 -0.40520824424E+02  0.14654229900E+03  0.17229097447E+03  0.80783458733E+02 0.  0.
         23    2    1    2    0    0 -0.10997331911E+03  0.26324759726E+02 -0.20527544157E+03  0.25188644149E+03  0.92312775962E+02 0.  0.
        -13    1    3    3    0    0  0.27186513359E+02 -0.79656797797E+01  0.13751969000E+02  0.31490875097E+02  0.00000000000E+00 0.  1.
         14    1    3    3    0    0 -0.33638650397E+02 -0.32555144644E+02  0.13279033000E+03  0.14080009938E+03  0.00000000000E+00 0. -1.
        -13    1    4    4    0    0 -0.10328372643E+03  0.48431996475E+02 -0.19643323082E+03  0.22715457424E+03  0.00000000000E+00 0.  1.
         13    1    4    4    0    0 -0.66895926765E+01 -0.22107236748E+02 -0.88422107497E+01  0.24731867252E+02  0.00000000000E+00 0. -1.
         -4    1    1    2    0  502  0.11642545615E+03  0.14196064698E+02 -0.38064277483E+02  0.12330979001E+03  0.00000000000E+00 0.  1.
<scales pt_clust_5="13000.00000" pt_clust_6="13000.00000" pt_clust_7="13000.00000" pt_clust_8="13000.00000" pt_clust_9="114.79934"></scales>
<clustering>
<clus scale="   80.783">  5  6 -1 -1</clus>
<clus scale="   90.607">  2  5  1 -1</clus>
<clus scale="   92.313">  7  8 -1 -1</clus>
<clus scale="  114.799">  1  9  2 -1</clus>
<clus scale="  114.799">  1  5  2 -1</clus>
</clustering>
</event>
<event>
 9    2  0.3764910E-005  0.9657424E+02  0.7546771E-02  0.1294851E+00
         21   -1    0    0  501  502  0.00000000000E+00  0.00000000000E+00  0.41999633739E+03  0.41999633739E+03  0.00000000000E+00 0.  1.
         -3   -1    0    0    0  501 -0.00000000000E+00 -0.00000000000E+00 -0.78038604891E+02  0.78038604891E+02  0.00000000000E+00 0.  1.
         23    2    1    2    0    0 -0.90276715869E+01 -0.13730153907E+02  0.38284346985E+02  0.10148149437E+03  0.92535325659E+02 0.  0.
         24    2    1    2    0    0  0.11971983750E+02  0.81498571918E+02  0.30792536077E+03  0.32858796588E+03  0.79791465066E+02 0.  0.
        -13    1    4    4    0    0 -0.14624669044E+02  0.45717979888E+02  0.25457991805E+03  0.25906553091E+03  0.00000000000E+00 0.  1.
         14    1    4    4    0    0  0.26596652794E+02  0.35780592030E+02  0.53345442721E+02  0.69522434975E+02  0.00000000000E+00 0. -1.
        -13    1    3    3    0    0 -0.48710774110E+01  0.38462740859E+02  0.28739556570E+02  0.48260459399E+02  0.00000000000E+00 0.  1.
         13    1    3    3    0    0 -0.41565941759E+01 -0.52192894767E+02  0.95447904155E+01  0.53221034971E+02  0.00000000000E+00 0. -1.
         -4    1    1    2    0  502 -0.29443121629E+01 -0.67768418011E+02 -0.42519752574E+01  0.67965482029E+02  0.00000000000E+00 0.  1.
<scales pt_clust_5="13000.00000" pt_clust_6="13000.00000" pt_clust_7="13000.00000" pt_clust_8="13000.00000" pt_clust_9="67.83238"></scales>
<clustering>
<clus scale="   67.832">  1  9  2 -1</clus>
<clus scale="   79.791">  5  6 -1 -1</clus>
<clus scale="   84.442">  1  5  2 -1</clus>
<clus scale="   92.535">  7  8 -1 -1</clus>
<clus scale="   67.832">  1  5  2 -1</clus>
</clustering>
</event>
<event>
 9    2  0.3764910E-005  0.9068715E+02  0.7546771E-02  0.1308186E+00
         21   -1    0    0  501  502  0.00000000000E+00  0.00000000000E+00  0.52084379930E+02  0.52084379930E+02  0.00000000000E+00 0.  1.
          2   -1    0    0  502    0 -0.00000000000E+00 -0.00000000000E+00 -0.41876236817E+03  0.41876236817E+03  0.00000000000E+00 0. -1.
         23    2    1    2    0    0  0.12721581696E+02  0.84071815584E-01 -0.30158753830E+03  0.31516187948E+03  0.90609719745E+02 0.  0.
         24    2    1    2    0    0  0.18439396890E+02 -0.31180560256E+01 -0.85446575398E+02  0.11834074605E+03  0.79709982422E+02 0.  0.
        -11    1    4    4    0    0  0.26401386611E+02  0.58484469460E+01  0.46598140509E+01  0.27439960162E+02  0.00000000000E+00 0.  1.
         12    1    4    4    0    0 -0.79619897214E+01 -0.89665029717E+01 -0.90106389449E+02  0.90900785890E+02  0.00000000000E+00 0. -1.
        -11    1    3    3    0    0  0.43637361033E+02 -0.26012612187E+02 -0.17909469337E+03  0.18616064155E+03  0.00000000000E+00 0.  1.
         11    1    3    3    0    0 -0.30915779337E+02  0.26096684003E+02 -0.12249284493E+03  0.12900123793E+03  0.00000000000E+00 0. -1.
          1    1    1    2  501    0 -0.31160978586E+02  0.30339842101E+01  0.20356125457E+02  0.37344122566E+02  0.00000000000E+00 0. -1.
<scales pt_clust_5="13000.00000" pt_clust_6="13000.00000" pt_clust_7="13000.00000" pt_clust_8="13000.00000" pt_clust_9="31.30833"></scales>
<clustering>
<clus scale="   31.308">  1  9  2 -1</clus>
<clus scale="   79.710">  5  6 -1 -1</clus>
<clus scale="   79.798">  1  5  2 -1</clus>
<clus scale="   90.610">  7  8 -1 -1</clus>
<clus scale="   31.308">  1  5  2 -1</clus>
</clustering>
</event>
<event>
 9    2  0.3764910E-005  0.1014022E+03  0.7546771E-02  0.1287456E+00
         -1   -1    0    0    0  501 -0.00000000000E+00  0.00000000000E+00  0.98666305148E+02  0.98666305148E+02  0.00000000000E+00 0.  1.
         21   -1    0    0  501  502  0.00000000000E+00 -0.00000000000E+00 -0.16698200914E+03  0.16698200914E+03  0.00000000000E+00 0.  1.
         24    2    1    2    0    0 -0.11827335354E+02  0.39197741719E+01 -0.97745112247E+01  0.80685960216E+02  0.79116576108E+02 0.  0.
         23    2    1    2    0    0  0.37713410655E+02  0.46393240955E+02 -0.19220499125E+02  0.11605948523E+03  0.97599909715E+02 0.  0.
        -13    1    3    3    0    0  0.16442684803E+02 -0.28948044593E+02  0.73151940725E+01  0.34086114968E+02  0.00000000000E+00 0.  1.
         14    1    3    3    0    0 -0.28270020157E+02  0.32867818764E+02 -0.17089705297E+02  0.46599845248E+02  0.00000000000E+00 0. -1.
        -13    1    4    4    0    0  0.93611075953E+01 -0.29284402856E+02 -0.17181405348E+02  0.35219416176E+02  0.00000000000E+00 0. -1.
         13    1    4    4    0    0  0.28352303059E+02  0.75677643811E+02 -0.20390937767E+01  0.80840069056E+02  0.00000000000E+00 0.  1.
         -2    1    1    2    0  502 -0.25886075300E+02 -0.50313015127E+02 -0.39320693639E+02  0.68902868836E+02  0.00000000000E+00 0.  1.
<scales pt_clust_5="13000.00000" pt_clust_6="13000.00000" pt_clust_7="13000.00000" pt_clust_8="13000.00000" pt_clust_9="56.58170"></scales>
<clustering>
<clus scale="   56.582">  2  9  1 -1</clus>
<clus scale="   79.117">  5  6 -1 -1</clus>
<clus scale="   83.762">  1  5  2 -1</clus>
<clus scale="   97.600">  7  8 -1 -1</clus>
<clus scale="   56.582">  2  5  1 -1</clus>
</clustering>
</event>
<event>
 9    2  0.3764910E-005  0.1303003E+03  0.7546771E-02  0.1229210E+00
         -1   -1    0    0    0  501 -0.00000000000E+00  0.00000000000E+00  0.89958286663E+02  0.89958286663E+02  0.00000000000E+00 0.  1.
         21   -1    0    0  501  502  0.00000000000E+00 -0.00000000000E+00 -0.31924590891E+03  0.31924590891E+03  0.00000000000E+00 0. -1.
         24    2    1    2    0    0  0.48308863622E+02 -0.84977441118E+02  0.10549491674E+02  0.12808732745E+03  0.82098476694E+02 0.  0.
         23    2    1    2    0    0 -0.24016780962E+02  0.76091250074E+02 -0.19866821430E+03  0.23249642008E+03  0.90657828529E+02 0.  0.
        -11    1    3    3    0    0  0.34061631323E+02 -0.96715794360E+02 -0.67870720512E+01  0.10276285299E+03  0.00000000000E+00 0.  1.
         12    1    3    3    0    0  0.14247232299E+02  0.11738353242E+02  0.17336563726E+02  0.25324474463E+02  0.00000000000E+00 0. -1.
        -13    1    4    4    0    0 -0.53226081017E+02  0.69423814565E+02 -0.12150007478E+03  0.14971623125E+03  0.00000000000E+00 0.  1.
         13    1    4    4    0    0  0.29209300056E+02  0.66674355094E+01 -0.77168139519E+02  0.82780188830E+02  0.00000000000E+00 0. -1.
         -2    1    1    2    0  502 -0.24292082660E+02  0.88861910441E+01 -0.41168899623E+02  0.48620448038E+02  0.00000000000E+00 0.  1.
<scales pt_clust_5="13000.00000" pt_clust_6="13000.00000" pt_clust_7="13000.00000" pt_clust_8="13000.00000" pt_clust_9="25.86638"></scales>
<clustering>
<clus scale="   25.866">  2  9  1 -1</clus>
<clus scale="   82.098">  5  6 -1 -1</clus>
<clus scale="   90.658">  7  8 -1 -1</clus>
<clus scale="  124.497">  1  5  2 -1</clus>
<clus scale="   25.866">  2  5  1 -1</clus>
</clustering>
</event>
<event>
 9    2  0.3764910E-005  0.9553122E+02  0.7546771E-02  0.1294888E+00
         21   -1    0    0  501  502  0.00000000000E+00  0.00000000000E+00  0.49263921025E+03  0.49263921025E+03  0.00000000000E+00 0.  1.
         -1   -1    0    0    0  501 -0.00000000000E+00 -0.00000000000E+00 -0.51877245559E+02  0.51877245559E+02  0.00000000000E+00 0.  1.
         23    2    1    2    0    0  0.17600624612E+02  0.49930910171E+02  0.19664632721E+03  0.22291015982E+03  0.90643717765E+02 0.  0.
         24    2    1    2    0    0  0.94566825507E+01 -0.44078948409E+01  0.25460170113E+03  0.26762110981E+03  0.81793482721E+02 0.  0.
        -13    1    4    4    0    0  0.43543069347E+02 -0.11320788054E+02  0.10894087557E+03  0.11786548901E+03  0.00000000000E+00 0.  1.
         14    1    4    4    0    0 -0.34086386796E+02  0.69128932126E+01  0.14566082556E+03  0.14975562080E+03  0.00000000000E+00 0. -1.
        -13    1    3    3    0    0 -0.46646598190E+01  0.63539995874E+02  0.74590688574E+02  0.98096182132E+02  0.00000000000E+00 0.  1.
         13    1    3    3    0    0  0.22265284431E+02 -0.13609085703E+02  0.12205563863E+03  0.12481397769E+03  0.00000000000E+00 0. -1.
         -2    1    1    2    0  502 -0.27057307163E+02 -0.45523015330E+02 -0.10486063649E+02  0.53985186176E+02  0.00000000000E+00 0.  1.
<scales pt_clust_5="13000.00000" pt_clust_6="13000.00000" pt_clust_7="13000.00000" pt_clust_8="13000.00000" pt_clust_9="52.95702"></scales>
<clustering>
<clus scale="   52.957">  1  9  2 -1</clus>
<clus scale="   81.793">  5  6 -1 -1</clus>
<clus scale="   87.179">  1  5  2 -1</clus>
<clus scale="   90.644">  7  8 -1 -1</clus>
<clus scale="   52.957">  1  5  2 -1</clus>
</clustering>
</event>
<event>
 9    2  0.3764910E-005  0.9026724E+02  0.7546771E-02  0.1310056E+00
         -1   -1    0    0    0  501 -0.00000000000E+00  0.00000000000E+00  0.42226787647E+03  0.42226787647E+03  0.00000000000E+00 0.  1.
         21   -1    0    0  501  502  0.00000000000E+00 -0.00000000000E+00 -0.36252587391E+02  0.36252587391E+02  0.00000000000E+00 0.  1.
         24    2    1    2    0    0  0.17856620642E+02 -0.23924690674E+01  0.27162800500E+03  0.28299021442E+03  0.77311742653E+02 0.  0.
         23    2    1    2    0    0  0.62076895528E+01 -0.16258024239E+02  0.11281419282E+03  0.14504407976E+03  0.89486782309E+02 0.  0.
        -11    1    3    3    0    0  0.42968575096E+02 -0.10068498855E+02  0.22666153389E+03  0.23091800289E+03  0.00000000000E+00 0.  1.
         12    1    3    3    0    0 -0.25111954455E+02  0.76760297873E+01  0.44966471107E+02  0.52072211530E+02  0.00000000000E+00 0. -1.
        -11    1    4    4    0    0  0.40130579406E+02  0.15569649881E+02  0.67822975742E+02  0.80329530307E+02  0.00000000000E+00 0.  1.
         11    1    4    4    0    0 -0.33922889853E+02 -0.31827674120E+02  0.44991217082E+02  0.64714549449E+02  0.00000000000E+00 0. -1.
         -2    1    1    2    0  502 -0.24064310194E+02  0.18650493306E+02  0.15730912575E+01  0.30486169681E+02  0.00000000000E+00 0.  1.
<scales pt_clust_5="13000.00000" pt_clust_6="13000.00000" pt_clust_7="13000.00000" pt_clust_8="13000.00000" pt_clust_9="30.44556"></scales>
<clustering>
<clus scale="   30.446">  2  9  1 -1</clus>
<clus scale="   77.312">  5  6 -1 -1</clus>
<clus scale="   78.214">  1  5  2 -1</clus>
<clus scale="   89.487">  7  8 -1 -1</clus>
<clus scale="   30.446">  2  5  1 -1</clus>
</clustering>
</event>
<event>
 9    2  0.3764910E-005  0.1596031E+03  0.7546771E-02  0.1190526E+00
         21   -1    0    0  501  502  0.00000000000E+00  0.00000000000E+00  0.14660724432E+03  0.14660724432E+03  0.00000000000E+00 0. -1.
         -1   -1    0    0    0  501 -0.00000000000E+00 -0.00000000000E+00 -0.21622182683E+03  0.21622182683E+03  0.00000000000E+00 0.  1.
         23    2    1    2    0    0 -0.22302489775E+02  0.12317069950E+03 -0.51667668948E+02  0.16331445494E+03  0.91288777590E+02 0.  0.
         24    2    1    2    0    0  0.67278721387E+01 -0.13767515854E+03 -0.43280227145E+02  0.16642799015E+03  0.82615884056E+02 0.  0.
        -13    1    4    4    0    0 -0.28449427845E+02 -0.67863291049E+02 -0.48417698863E+02  0.88085582134E+02  0.00000000000E+00 0.  1.
         14    1    4    4    0    0  0.35177299984E+02 -0.69811867496E+02  0.51374717184E+01  0.78342408011E+02  0.00000000000E+00 0. -1.
        -13    1    3    3    0    0  0.57810839539E+01  0.24714176159E+02  0.24831513940E+02  0.35507964170E+02  0.00000000000E+00 0. -1.
         13    1    3    3    0    0 -0.28083573729E+02  0.98456523337E+02 -0.76499182888E+02  0.12780649077E+03  0.00000000000E+00 0.  1.
         -2    1    1    2    0  502  0.15574617636E+02  0.14504459048E+02  0.25333313587E+02  0.33086626061E+02  0.00000000000E+00 0.  1.
<scales pt_clust_5="13000.00000" pt_clust_6="13000.00000" pt_clust_7="13000.00000" pt_clust_8="13000.00000" pt_clust_9="21.28258"></scales>
<clustering>
<clus scale="   21.283">  1  9  2 -1</clus>
<clus scale="   82.616">  5  6 -1 -1</clus>
<clus scale="   91.289">  7  8 -1 -1</clus>
<clus scale="  154.806">  1  5  2 -1</clus>
<clus scale="   21.283">  1  5  2 -1</clus>
</clustering>
</event>
<event>
 9    2  0.3764910E-005  0.2860431E+03  0.7546771E-02  0.1092901E+00
          4   -1    0    0  502    0 -0.00000000000E+00  0.00000000000E+00  0.28495997963E+03  0.28495997963E+03  0.00000000000E+00 0. -1.
         21   -1    0    0  501  502  0.00000000000E+00 -0.00000000000E+00 -0.36779453051E+03  0.36779453051E+03  0.00000000000E+00 0. -1.
         23    2    1    2    0    0 -0.22962401628E+03 -0.13482775127E+03  0.33235183096E+02  0.28395061577E+03  0.92831370953E+02 0.  0.
         24    2    1    2    0    0  0.25241105392E+03  0.11971489570E+03 -0.14825413342E+03  0.32657259015E+03  0.81408673783E+02 0.  0.
        -13    1    4    4    0    0  0.67022868818E+02  0.73908961347E+02 -0.57287440591E+02  0.11504977341E+03  0.00000000000E+00 0.  1.
         14    1    4    4    0    0  0.18538818511E+03  0.45805934354E+02 -0.90966692833E+02  0.21152281674E+03  0.00000000000E+00 0. -1.
        -13    1    3    3    0    0 -0.74419217025E+02 -0.21491408980E+02 -0.27818877929E+02  0.82304255612E+02  0.00000000000E+00 0.  1.
         13    1    3    3    0    0 -0.15520479925E+03 -0.11333634229E+03  0.61054061025E+02  0.20164636015E+03  0.00000000000E+00 0. -1.
          3    1    1    2  501    0 -0.22787037645E+02  0.15112855574E+02  0.32184399451E+02  0.42231304222E+02  0.00000000000E+00 0. -1.
<scales pt_clust_5="13000.00000" pt_clust_6="13000.00000" pt_clust_7="13000.00000" pt_clust_8="13000.00000" pt_clust_9="27.34316"></scales>
<clustering>
<clus scale="   27.343">  2  9  1 -1</clus>
<clus scale="   81.409">  5  6 -1 -1</clus>
<clus scale="   92.831">  7  8 -1 -1</clus>
<clus scale="  282.543">  2  5  1 -1</clus>
<clus scale="   27.343">  2  5  1 -1</clus>
</clustering>
</event>
<event>
 9    2  0.3764910E-005  0.1149465E+03  0.7546771E-02  0.1255043E+00
         21   -1    0    0  501  502  0.00000000000E+00  0.00000000000E+00  0.15475735724E+03  0.15475735724E+03  0.00000000000E+00 0.  1.
          2   -1    0    0  502    0 -0.00000000000E+00 -0.00000000000E+00 -0.16674906561E+03  0.16674906561E+03  0.00000000000E+00 0. -1.
         23    2    1    2    0    0 -0.63398977982E+01  0.47121064130E+02 -0.32134843648E+02  0.10859712406E+03  0.92195977073E+02 0.  0.
         24    2    1    2    0    0  0.16950179522E+02 -0.90844545869E+02 -0.46529051736E+02  0.13247608764E+03  0.82734037984E+02 0.  0.
        -13    1    4    4    0    0  0.34485158162E+02 -0.72295720425E+02 -0.63164866930E+02  0.10200832191E+03  0.00000000000E+00 0.  1.
         14    1    4    4    0    0 -0.17534978640E+02 -0.18548825444E+02  0.16635815194E+02  0.30467765727E+02  0.00000000000E+00 0. -1.
        -11    1    3    3    0    0  0.27681968441E+02  0.37513838252E+02  0.15630675751E+02  0.49172120776E+02  0.00000000000E+00 0.  1.
         11    1    3    3    0    0 -0.34021866239E+02  0.96072258776E+01 -0.47765519399E+02  0.59425003281E+02  0.00000000000E+00 0. -1.
          1    1    1    2  501    0 -0.10610281724E+02  0.43723481739E+02  0.66672187017E+02  0.80433211146E+02  0.00000000000E+00 0. -1.
<scales pt_clust_5="13000.00000" pt_clust_6="13000.00000" pt_clust_7="13000.00000" pt_clust_8="13000.00000" pt_clust_9="44.99245"></scales>
<clustering>
<clus scale="   44.992">  1  9  2 -1</clus>
<clus scale="   82.734">  5  6 -1 -1</clus>
<clus scale="   92.196">  7  8 -1 -1</clus>
<clus scale="  107.506">  1  5  2 -1</clus>
<clus scale="   44.992">  1  5  2 -1</clus>
</clustering>
</event>
<event>
 9    2  0.3764910E-005  0.1232648E+03  0.7546771E-02  0.1240136E+00
         21   -1    0    0  501  502  0.00000000000E+00  0.00000000000E+00  0.34294635215E+02  0.34294635215E+02  0.00000000000E+00 0.  1.
          2   -1    0    0  502    0 -0.00000000000E+00 -0.00000000000E+00 -0.60484222488E+03  0.60484222488E+03  0.00000000000E+00 0. -1.
         23    2    1    2    0    0  0.75562405347E+02  0.90686311471E+01 -0.26783136573E+03  0.29234752558E+03  0.89115195512E+02 0.  0.
         24    2    1    2    0    0 -0.91032690824E+02 -0.27760368680E+02 -0.29645544122E+03  0.32173123831E+03  0.81040559050E+02 0.  0.
        -11    1    4    4    0    0 -0.12946206023E+02  0.25895506745E+02 -0.90738136624E+02  0.95244899905E+02  0.00000000000E+00 0.  1.
         12    1    4    4    0    0 -0.78086484801E+02 -0.53655875425E+02 -0.20571730459E+03  0.22648633841E+03  0.00000000000E+00 0. -1.
        -11    1    3    3    0    0  0.12913532675E+02 -0.31288935932E+02 -0.38763476206E+02  0.51462257291E+02  0.00000000000E+00 0.  1.
         11    1    3    3    0    0  0.62648872672E+02  0.40357567079E+02 -0.22906788953E+03  0.24088526829E+03  0.00000000000E+00 0. -1.
          1    1    1    2  501    0  0.15470285477E+02  0.18691737533E+02 -0.62607827106E+01  0.25058096195E+02  0.00000000000E+00 0. -1.
<scales pt_clust_5="13000.00000" pt_clust_6="13000.00000" pt_clust_7="13000.00000" pt_clust_8="13000.00000" pt_clust_9="24.26336"></scales>
<clustering>
<clus scale="   24.263">  1  9  2 -1</clus>
<clus scale="   81.041">  5  6 -1 -1</clus>
<clus scale="   89.115">  7  8 -1 -1</clus>
<clus scale="  117.560">  1  5  2 -1</clus>
<clus scale="   24.263">  1  5  2 -1</clus>
</clustering>
</event>
<event>
 9    2  0.3764910E-005  0.1498059E+03  0.7546771E-02  0.1219394E+00
          2   -1    0    0  502    0 -0.00000000000E+00  0.00000000000E+00  0.27864370564E+03  0.27864370564E+03  0.00000000000E+00 0. -1.
         21   -1    0    0  501  502  0.00000000000E+00 -0.00000000000E+00 -0.16455443891E+03  0.16455443891E+03  0.00000000000E+00 0. -1.
         23    2    1    2    0    0 -0.12895770987E+02  0.44688252570E+02  0.33189087555E+02  0.10586417565E+03  0.89119960312E+02 0.  0.
         24    2    1    2    0    0  0.53585459745E+02  0.10439688194E+03 -0.32593844718E+02  0.14559737468E+03  0.79788008781E+02 0.  0.
        -11    1    4    4    0    0  0.18674088509E+02  0.98067858755E+02 -0.37982375717E+01  0.99902217749E+02  0.00000000000E+00 0.  1.
         12    1    4    4    0    0  0.34911371236E+02  0.63290231855E+01 -0.28795607146E+02  0.45695156931E+02  0.00000000000E+00 0. -1.
        -13    1    3    3    0    0  0.30287036127E+02  0.47310073784E+01  0.35603076309E+02  0.46981549898E+02  0.00000000000E+00 0.  1.
         13    1    3    3    0    0 -0.43182807114E+02  0.39957245192E+02 -0.24139887544E+01  0.58882625751E+02  0.00000000000E+00 0. -1.
          1    1    1    2  501    0 -0.40689688758E+02 -0.14908513451E+03  0.11349402390E+03  0.19173659422E+03  0.00000000000E+00 0. -1.
<scales pt_clust_5="13000.00000" pt_clust_6="13000.00000" pt_clust_7="13000.00000" pt_clust_8="13000.00000" pt_clust_9="126.78999"></scales>
<clustering>
<clus scale="   79.788">  5  6 -1 -1</clus>
<clus scale="   89.120">  7  8 -1 -1</clus>
<clus scale="  100.527">  1  7  2 -1</clus>
<clus scale="  126.790">  2  9  1 -1</clus>
<clus scale="  126.790">  2  5  1 -1</clus>
</clustering>
</event>
<event>
 9    2  0.3764910E-005  0.1474520E+03  0.7546771E-02  0.1206061E+00
          2   -1    0    0  502    0 -0.00000000000E+00  0.00000000000E+00  0.76963562427E+03  0.76963562427E+03  0.00000000000E+00 0. -1.
         21   -1    0    0  501  502  0.00000000000E+00 -0.00000000000E+00 -0.49897282664E+02  0.49897282664E+02  0.00000000000E+00 0. -1.
         24    2    1    2    0    0  0.12053772615E+03 -0.34228692697E+02  0.54589768627E+03  0.56538327668E+03  0.77155808956E+02 0.  0.
         23    2    1    2    0    0 -0.91076298373E+02 -0.44615912930E+01  0.87873186380E+02  0.15538060919E+03  0.90036875249E+02 0.  0.
        -11    1    3    3    0    0  0.42247840294E+02  0.23344854565E+02  0.22373031967E+03  0.22887795478E+03  0.00000000000E+00 0.  1.
         12    1    3    3    0    0  0.78289885858E+02 -0.57573547263E+02  0.32216736659E+03  0.33650532190E+03  0.00000000000E+00 0. -1.
        -11    1    4    4    0    0 -0.60460243135E+02 -0.34746197111E+02  0.15923941590E+02  0.71528393869E+02  0.00000000000E+00 0. -1.
         11    1    4    4    0    0 -0.30616055238E+02  0.30284605818E+02  0.71949244790E+02  0.83852215318E+02  0.00000000000E+00 0.  1.
          1    1    1    2  501    0 -0.29461427778E+02  0.38690283990E+02  0.85967468959E+02  0.98769021060E+02  0.00000000000E+00 0. -1.
<scales pt_clust_5="13000.00000" pt_clust_6="13000.00000" pt_clust_7="13000.00000" pt_clust_8="13000.00000" pt_clust_9="48.63038"></scales>
<clustering>
<clus scale="   48.630">  2  9  1 -1</clus>
<clus scale="   77.156">  5  6 -1 -1</clus>
<clus scale="   90.037">  7  8 -1 -1</clus>
<clus scale="  139.959">  1  5  2 -1</clus>
<clus scale="   48.630">  2  5  1 -1</clus>
</clustering>
</event>
<event>
 9    2  0.3764910E-005  0.1180579E+03  0.7546771E-02  0.1250065E+00
          4   -1    0    0  502    0 -0.00000000000E+00  0.00000000000E+00  0.10478386051E+03  0.10478386051E+03  0.00000000000E+00 0. -1.
         21   -1    0    0  501  502  0.00000000000E+00 -0.00000000000E+00 -0.19526283574E+03  0.19526283574E+03  0.00000000000E+00 0.  1.
         23    2    1    2    0    0  0.20988000247E+02 -0.55472717345E+02 -0.16158314018E+02  0.10999729953E+03  0.91217302456E+02 0.  0.
         24    2    1    2    0    0 -0.44614422334E+02  0.81560806331E+02 -0.18385091209E+02  0.12396169590E+03  0.79911692906E+02 0.  0.
        -11    1    4    4    0    0 -0.31187213254E+02  0.86064274402E+02 -0.38544711852E+02  0.99324701915E+02  0.00000000000E+00 0.  1.
         12    1    4    4    0    0 -0.13427209080E+02 -0.45034680702E+01  0.20159620643E+02  0.24636993989E+02  0.00000000000E+00 0. -1.
        -11    1    3    3    0    0  0.36606538176E+02 -0.17771026257E+02  0.28363949973E+02  0.49602032917E+02  0.00000000000E+00 0. -1.
         11    1    3    3    0    0 -0.15618537929E+02 -0.37701691088E+02 -0.44522263991E+02  0.60395266610E+02  0.00000000000E+00 0.  1.
          3    1    1    2  501    0  0.23626422087E+02 -0.26088088986E+02 -0.55935570006E+02  0.66087700819E+02  0.00000000000E+00 0. -1.
<scales pt_clust_5="13000.00000" pt_clust_6="13000.00000" pt_clust_7="13000.00000" pt_clust_8="13000.00000" pt_clust_9="35.19654"></scales>
<clustering>
<clus scale="   35.197">  2  9  1 -1</clus>
<clus scale="   79.912">  5  6 -1 -1</clus>
<clus scale="   91.217">  7  8 -1 -1</clus>
<clus scale="  109.558">  2  5  1 -1</clus>
<clus scale="   35.197">  2  5  1 -1</clus>
</clustering>
</event>
<event>
 9    2  0.3764910E-005  0.1108564E+03  0.7546771E-02  0.1263932E+00
         21   -1    0    0  501  502  0.00000000000E+00  0.00000000000E+00  0.13675068646E+03  0.13675068646E+03  0.00000000000E+00 0.  1.
          2   -1    0    0  502    0 -0.00000000000E+00 -0.00000000000E+00 -0.48120630171E+03  0.48120630171E+03  0.00000000000E+00 0. -1.
         23    2    1    2    0    0  0.67487210004E+02 -0.12930684186E+02 -0.28526567096E+03  0.30751653756E+03  0.92022778361E+02 0.  0.
         24    2    1    2    0    0  0.84243375146E+01 -0.11345784107E+02  0.10235310424E+03  0.13030698208E+03  0.79398081531E+02 0.  0.
        -13    1    4    4    0    0 -0.13747183683E+02 -0.33050449189E+02  0.90096594987E+02  0.96946963228E+02  0.00000000000E+00 0.  1.
         14    1    4    4    0    0  0.22171521197E+02  0.21704665082E+02  0.12256509253E+02  0.33360018849E+02  0.00000000000E+00 0. -1.
        -11    1    3    3    0    0  0.87415938955E+02  0.73019089688E+00 -0.18856818161E+03  0.20784618995E+03  0.00000000000E+00 0. -1.
         11    1    3    3    0    0 -0.19928728951E+02 -0.13660875083E+02 -0.96697489357E+02  0.99670347614E+02  0.00000000000E+00 0.  1.
          1    1    1    2  501    0 -0.75911547519E+02  0.24276468293E+02 -0.16154304852E+03  0.18013346853E+03  0.00000000000E+00 0. -1.
<scales pt_clust_5="13000.00000" pt_clust_6="13000.00000" pt_clust_7="13000.00000" pt_clust_8="13000.00000" pt_clust_9="79.69891"></scales>
<clustering>
<clus scale="   79.398">  5  6 -1 -1</clus>
<clus scale="   79.699">  1  9  2 -1</clus>
<clus scale="   92.023">  7  8 -1 -1</clus>
<clus scale="  100.623">  1  5  2 -1</clus>
<clus scale="   79.699">  1  5  2 -1</clus>
</clustering>
</event>
<event>
 9    2  0.3764910E-005  0.1561705E+03  0.7546771E-02  0.1194543E+00
         21   -1    0    0  501  502  0.00000000000E+00  0.00000000000E+00  0.12230678316E+03  0.12230678316E+03  0.00000000000E+00 0. -1.
         -3   -1    0    0    0  501 -0.00000000000E+00 -0.00000000000E+00 -0.40188932592E+03  0.40188932592E+03  0.00000000000E+00 0.  1.
         23    2    1    2    0    0 -0.13679083592E+03  0.28421123532E+02 -0.22703145171E+03  0.28173236286E+03  0.91161127496E+02 0.  0.
         24    2    1    2    0    0  0.10621170990E+03 -0.33476718710E+02 -0.11017216010E+03  0.17703569726E+03  0.82474936974E+02 0.  0.
        -11    1    4    4    0    0  0.19494970264E+02 -0.26769824399E+02 -0.77229784927E+02  0.84030453074E+02  0.00000000000E+00 0.  1.
         12    1    4    4    0    0  0.86716739639E+02 -0.67068943110E+01 -0.32942375172E+02  0.93005244190E+02  0.00000000000E+00 0. -1.
        -13    1    3    3    0    0 -0.51972799774E+02 -0.20341029395E+02 -0.14027804066E+03  0.15097303760E+03  0.00000000000E+00 0.  1.
         13    1    3    3    0    0 -0.84818036142E+02  0.48762152927E+02 -0.86753411054E+02  0.13075932526E+03  0.00000000000E+00 0. -1.
         -4    1    1    2    0  502  0.30579126012E+02  0.50555951781E+01  0.57621069050E+02  0.65428048945E+02  0.00000000000E+00 0.  1.
<scales pt_clust_5="13000.00000" pt_clust_6="13000.00000" pt_clust_7="13000.00000" pt_clust_8="13000.00000" pt_clust_9="30.99423"></scales>
<clustering>
<clus scale="   30.994">  1  9  2 -1</clus>
<clus scale="   82.475">  5  6 -1 -1</clus>
<clus scale="   91.161">  7  8 -1 -1</clus>
<clus scale="  151.265">  1  5  2 -1</clus>
<clus scale="   30.994">  1  5  2 -1</clus>
</clustering>
</event>
<event>
 9    2  0.3764910E-005  0.9910264E+02  0.7546771E-02  0.1287420E+00
         -1   -1    0    0    0  501 -0.00000000000E+00  0.00000000000E+00  0.60588430750E+03  0.60588430750E+03  0.00000000000E+00 0.  1.
         21   -1    0    0  501  502  0.00000000000E+00 -0.00000000000E+00 -0.27629253672E+02  0.27629253672E+02  0.00000000000E+00 0. -1.
         24    2    1    2    0    0 -0.24237379615E+02  0.25480793639E+02  0.38675963215E+03  0.39666335806E+03  0.80759427655E+02 0.  0.
         23    2    1    2    0    0  0.24043903933E+02 -0.45657756750E+02  0.18964771554E+03  0.21658789102E+03  0.91001749760E+02 0.  0.
        -11    1    3    3    0    0 -0.45939094896E+02 -0.70563473476E+01  0.16238323042E+03  0.16890383654E+03  0.00000000000E+00 0.  1.
         12    1    3    3    0    0  0.21701715281E+02  0.32537140987E+02  0.22437640173E+03  0.22775952152E+03  0.00000000000E+00 0. -1.
        -11    1    4    4    0    0 -0.20013448007E+02 -0.18483159042E+02  0.14704370038E+03  0.14954603000E+03  0.00000000000E+00 0.  1.
         11    1    4    4    0    0  0.44057351940E+02 -0.27174597708E+02  0.42604015163E+02  0.67041861017E+02  0.00000000000E+00 0. -1.
         -2    1    1    2    0  502  0.19347568193E+00  0.20176963110E+02  0.18477061391E+01  0.20262312088E+02  0.00000000000E+00 0.  1.
<scales pt_clust_5="13000.00000" pt_clust_6="13000.00000" pt_clust_7="13000.00000" pt_clust_8="13000.00000" pt_clust_9="20.17789"></scales>
<clustering>
<clus scale="   20.178">  2  9  1 -1</clus>
<clus scale="   80.759">  5  6 -1 -1</clus>
<clus scale="   89.789">  1  5  2 -1</clus>
<clus scale="   91.002">  7  8 -1 -1</clus>
<clus scale="   20.178">  2  5  1 -1</clus>
</clustering>
</event>
<event>
 9    2  0.3764910E-005  0.9404013E+02  0.7546771E-02  0.1300975E+00
         -3   -1    0    0    0  501 -0.00000000000E+00  0.00000000000E+00  0.70643487273E+02  0.70643487273E+02  0.00000000000E+00 0.  1.
         21   -1    0    0  501  502  0.00000000000E+00 -0.00000000000E+00 -0.21008597778E+03  0.21008597778E+03  0.00000000000E+00 0.  1.
         23    2    1    2    0    0 -0.11796947446E+02 -0.68435637522E+01 -0.16379593044E+01  0.93240184881E+02  0.92222810801E+02 0.  0.
         24    2    1    2    0    0  0.30115765371E+02 -0.16617815659E+02 -0.63514485429E+02  0.10745787187E+03  0.79561254680E+02 0.  0.
        -11    1    4    4    0    0  0.14203246264E+02 -0.48668606836E+02 -0.40765585882E+02  0.65055349420E+02  0.00000000000E+00 0.  1.
         12    1    4    4    0    0  0.15912519107E+02  0.32050791178E+02 -0.22748899547E+02  0.42402522449E+02  0.00000000000E+00 0. -1.
        -11    1    3    3    0    0 -0.48457979856E+02 -0.11152759667E+02  0.16126671952E+02  0.52274557943E+02  0.00000000000E+00 0. -1.
         11    1    3    3    0    0  0.36661032410E+02  0.43091959146E+01 -0.17764631256E+02  0.40965626938E+02  0.00000000000E+00 0.  1.
         -4    1    1    2    0  502 -0.18318817925E+02  0.23461379411E+02 -0.74290045778E+02  0.80031408308E+02  0.00000000000E+00 0.  1.
<scales pt_clust_5="13000.00000" pt_clust_6="13000.00000" pt_clust_7="13000.00000" pt_clust_8="13000.00000" pt_clust_9="29.76601"></scales>
<clustering>
<clus scale="   29.766">  2  9  1 -1</clus>
<clus scale="   79.561">  5  6 -1 -1</clus>
<clus scale="   81.661">  2  5  1 -1</clus>
<clus scale="   92.223">  7  8 -1 -1</clus>
<clus scale="   29.766">  2  5  1 -1</clus>
</clustering>
</event>
<event>
 9    2  0.3764910E-005  0.1525711E+03  0.7546771E-02  0.1201155E+00
         21   -1    0    0  501  502  0.00000000000E+00  0.00000000000E+00  0.33787667014E+02  0.33787667014E+02  0.00000000000E+00 0.  1.
          2   -1    0    0  502    0 -0.00000000000E+00 -0.00000000000E+00 -0.80206171547E+03  0.80206171547E+03  0.00000000000E+00 0. -1.
         23    2    1    2    0    0 -0.11275758566E+03  0.25648395048E+02 -0.45705167824E+03  0.48247759624E+03  0.10254892002E+03 0.  0.
         24    2    1    2    0    0  0.11065035513E+03 -0.73425233945E-01 -0.23362885614E+03  0.27164496734E+03  0.83456811455E+02 0.  0.
        -13    1    4    4    0    0  0.47768703437E+02  0.39901485780E+02 -0.12858829176E+03  0.14285981371E+03  0.00000000000E+00 0.  1.
         14    1    4    4    0    0  0.62881651696E+02 -0.39974911014E+02 -0.10504056438E+03  0.12878515363E+03  0.00000000000E+00 0. -1.
        -13    1    3    3    0    0 -0.24989649269E+02  0.54506297740E+02 -0.14154930856E+03  0.15372581377E+03  0.00000000000E+00 0. -1.
         13    1    3    3    0    0 -0.87767936388E+02 -0.28857902691E+02 -0.31550236968E+03  0.32875178247E+03  0.00000000000E+00 0.  1.
          1    1    1    2  501    0  0.21072305238E+01 -0.25574969814E+02 -0.77593514081E+02  0.81726818908E+02  0.00000000000E+00 0. -1.
<scales pt_clust_5="13000.00000" pt_clust_6="13000.00000" pt_clust_7="13000.00000" pt_clust_8="13000.00000" pt_clust_9="25.66165"></scales>
<clustering>
<clus scale="   25.662">  1  9  2 -1</clus>
<clus scale="   83.457">  5  6 -1 -1</clus>
<clus scale="  102.549">  7  8 -1 -1</clus>
<clus scale="  140.452">  1  5  2 -1</clus>
<clus scale="   25.662">  1  5  2 -1</clus>
</clustering>
</event>
<event>
 9    2  0.3764910E-005  0.1019709E+03  0.7546771E-02  0.1281822E+00
         21   -1    0    0  501  502  0.00000000000E+00  0.00000000000E+00  0.17109578163E+03  0.17109578163E+03  0.00000000000E+00 0.  1.
          4   -1    0    0  502    0 -0.00000000000E+00 -0.00000000000E+00 -0.10353696390E+03  0.10353696390E+03  0.00000000000E+00 0. -1.
         24    2    1    2    0    0 -0.16325491513E+02  0.46521168571E+02 -0.24273057263E+02  0.97380551886E+02  0.80393095340E+02 0.  0.
         23    2    1    2    0    0  0.46475071297E+02 -0.11219944550E+02  0.51623089096E+02  0.11583623447E+03  0.92017772634E+02 0.  0.
        -11    1    3    3    0    0 -0.45142434271E+02  0.37845069709E+02 -0.30585186242E+00  0.58908252551E+02  0.00000000000E+00 0.  1.
         12    1    3    3    0    0  0.28816942759E+02  0.86760988619E+01 -0.23967205401E+02  0.38472299335E+02  0.00000000000E+00 0. -1.
        -13    1    4    4    0    0  0.19360678717E+02 -0.39797522444E+02  0.60979064512E+02  0.75346698546E+02  0.00000000000E+00 0.  1.
         13    1    4    4    0    0  0.27114392580E+02  0.28577577894E+02 -0.93559754160E+01  0.40489535923E+02  0.00000000000E+00 0. -1.
          3    1    1    2  501    0 -0.30149579784E+02 -0.35301224021E+02  0.40208785899E+02  0.61415959180E+02  0.00000000000E+00 0. -1.
<scales pt_clust_5="13000.00000" pt_clust_6="13000.00000" pt_clust_7="13000.00000" pt_clust_8="13000.00000" pt_clust_9="46.42385"></scales>
<clustering>
<clus scale="   46.424">  1  9  2 -1</clus>
<clus scale="   80.393">  5  6 -1 -1</clus>
<clus scale="   91.618">  2  5  1 -1</clus>
<clus scale="   92.018">  7  8 -1 -1</clus>
<clus scale="   46.424">  1  5  2 -1</clus>
</clustering>
</event>
<event>
 9    2  0.3764910E-005  0.9050312E+02  0.7546771E-02  0.1310169E+00
          2   -1    0    0  502    0 -0.00000000000E+00  0.00000000000E+00  0.17049378085E+03  0.17049378085E+03  0.00000000000E+00 0. -1.
         21   -1    0    0  501  502  0.00000000000E+00 -0.00000000000E+00 -0.98866939970E+02  0.98866939970E+02  0.00000000000E+00 0. -1.
         23    2    1    2    0    0 -0.86491186277E+01 -0.26436641716E+02  0.29695881085E+02  0.99103583585E+02  0.90365765905E+02 0.  0.
         24    2    1    2    0    0 -0.55229883727E+01 -0.30070720560E+02 -0.19736792827E+02  0.85422932332E+02  0.77283793524E+02 0.  0.
        -13    1    4    4    0    0 -0.10011175683E+02 -0.50518153047E+02  0.64434728500E+01  0.51902078650E+02  0.00000000000E+00 0.  1.
         14    1    4    4    0    0  0.44881873101E+01  0.20447432487E+02 -0.26180265677E+02  0.33520853681E+02  0.00000000000E+00 0. -1.
        -11    1    3    3    0    0  0.25511238338E+02 -0.44334896174E+02  0.12214748607E+01  0.51165401407E+02  0.00000000000E+00 0. -1.
         11    1    3    3    0    0 -0.34160356966E+02  0.17898254458E+02  0.28474406224E+02  0.47938182178E+02  0.00000000000E+00 0.  1.
          1    1    1    2  501    0  0.14172107000E+02  0.56507362277E+02  0.61667752623E+02  0.84834204905E+02  0.00000000000E+00 0. -1.
<scales pt_clust_5="13000.00000" pt_clust_6="13000.00000" pt_clust_7="13000.00000" pt_clust_8="13000.00000" pt_clust_9="58.25748"></scales>
<clustering>
<clus scale="   58.257">  2  9  1 -1</clus>
<clus scale="   77.284">  5  6 -1 -1</clus>
<clus scale="   77.444">  2  5  1 -1</clus>
<clus scale="   90.366">  7  8 -1 -1</clus>
<clus scale="   58.257">  2  5  1 -1</clus>
</clustering>
</event>
<event>
 9    2  0.3764910E-005  0.1659128E+03  0.7546771E-02  0.1184557E+00
         21   -1    0    0  501  502  0.00000000000E+00  0.00000000000E+00  0.18038159133E+03  0.18038159133E+03  0.00000000000E+00 0. -1.
          2   -1    0    0  502    0 -0.00000000000E+00 -0.00000000000E+00 -0.75760448921E+03  0.75760448921E+03  0.00000000000E+00 0. -1.
         24    2    1    2    0    0  0.15024472220E+03 -0.50509137755E+02 -0.65933354123E+03  0.68216991251E+03  0.74232212629E+02 0.  0.
         23    2    1    2    0    0 -0.53792239251E+02  0.30337510582E+02 -0.22311227877E+02  0.11224074117E+03  0.91028696228E+02 0.  0.
        -11    1    3    3    0    0  0.65310108401E+02  0.15845146451E+02 -0.24591823270E+03  0.25493578819E+03  0.00000000000E+00 0.  1.
         12    1    3    3    0    0  0.84934613800E+02 -0.66354284206E+02 -0.41341530853E+03  0.42723412432E+03  0.00000000000E+00 0. -1.
        -13    1    4    4    0    0 -0.59282956157E+02  0.90049058586E+01  0.21094690708E+02  0.63565267216E+02  0.00000000000E+00 0.  1.
         13    1    4    4    0    0  0.54907169053E+01  0.21332604723E+02 -0.43405918585E+02  0.48675473954E+02  0.00000000000E+00 0. -1.
          1    1    1    2  501    0 -0.96452482949E+02  0.20171627173E+02  0.10442187123E+03  0.14357542687E+03  0.00000000000E+00 0. -1.
<scales pt_clust_5="13000.00000" pt_clust_6="13000.00000" pt_clust_7="13000.00000" pt_clust_8="13000.00000" pt_clust_9="98.53921"></scales>
<clustering>
<clus scale="   74.232">  5  6 -1 -1</clus>
<clus scale="   91.029">  7  8 -1 -1</clus>
<clus scale="   98.539">  1  9  2 -1</clus>
<clus scale="  157.325">  2  5  1 -1</clus>
<clus scale="   98.539">  1  5  2 -1</clus>
</clustering>
</event>
<event>
 9    2  0.3764910E-005  0.1033367E+03  0.7546771E-02  0.1278530E+00
         21   -1    0    0  501  502  0.00000000000E+00  0.00000000000E+00  0.10382879813E+03  0.10382879813E+03  0.00000000000E+00 0.  1.
          2   -1    0    0  502    0 -0.00000000000E+00 -0.00000000000E+00 -0.15440146800E+03  0.15440146800E+03  0.00000000000E+00 0. -1.
         24    2    1    2    0    0  0.52953158423E+02  0.99252565744E+01 -0.67627943301E+02  0.11802499244E+03  0.80335623601E+02 0.  0.
         23    2    1    2    0    0 -0.36514336905E+02  0.22392791799E+02  0.22904645072E+02  0.10347781459E+03  0.91369039734E+02 0.  0.
        -11    1    3    3    0    0 -0.31099130946E+01 -0.28071043368E+02 -0.13381507155E+02  0.31252516202E+02  0.00000000000E+00 0.  1.
         12    1    3    3    0    0  0.56063071518E+02  0.37996299942E+02 -0.54246436145E+02  0.86772476234E+02  0.00000000000E+00 0. -1.
        -11    1    4    4    0    0 -0.66539654469E+02  0.17968830247E+02  0.24339144620E+02  0.73094448751E+02  0.00000000000E+00 0.  1.
         11    1    4    4    0    0  0.30025317564E+02  0.44239615525E+01 -0.14344995487E+01  0.30383365837E+02  0.00000000000E+00 0. -1.
          1    1    1    2  501    0 -0.16438821518E+02 -0.32318048374E+02 -0.58493716447E+01  0.36727459104E+02  0.00000000000E+00 0. -1.
<scales pt_clust_5="13000.00000" pt_clust_6="13000.00000" pt_clust_7="13000.00000" pt_clust_8="13000.00000" pt_clust_9="36.25867"></scales>
<clustering>
<clus scale="   36.259">  1  9  2 -1</clus>
<clus scale="   80.336">  5  6 -1 -1</clus>
<clus scale="   91.369">  7  8 -1 -1</clus>
<clus scale="   93.723">  2  5  1 -1</clus>
<clus scale="   36.259">  1  5  2 -1</clus>
</clustering>
</event>
<event>
 9    2  0.3764910E-005  0.1593851E+03  0.7546771E-02  0.1202343E+00
         21   -1    0    0  501  502  0.00000000000E+00  0.00000000000E+00  0.11629279978E+03  0.11629279978E+03  0.00000000000E+00 0.  1.
         -1   -1    0    0    0  501 -0.00000000000E+00 -0.00000000000E+00 -0.47639058030E+03  0.47639058030E+03  0.00000000000E+00 0.  1.
         23    2    1    2    0    0 -0.31032007465E+02 -0.70805798620E+02 -0.79722278310E+02  0.14412494908E+03  0.91868997395E+02 0.  0.
         24    2    1    2    0    0  0.43151504141E+02 -0.81092456452E+02 -0.26924594346E+03  0.29577155600E+03  0.80928341577E+02 0.  0.
        -11    1    4    4    0    0  0.64359158061E+02 -0.41878614328E+02 -0.18843854506E+03  0.20348219782E+03  0.00000000000E+00 0.  1.
         12    1    4    4    0    0 -0.21207653920E+02 -0.39213842124E+02 -0.80807398395E+02  0.92289358185E+02  0.00000000000E+00 0. -1.
        -13    1    3    3    0    0 -0.45047564722E+02 -0.48366526106E+02 -0.93337856120E+02  0.11437027289E+03  0.00000000000E+00 0. -1.
         13    1    3    3    0    0  0.14015557258E+02 -0.22439272514E+02  0.13615577810E+02  0.29754676192E+02  0.00000000000E+00 0.  1.
         -2    1    1    2    0  502 -0.12119496676E+02  0.15189825507E+03 -0.11129558754E+02  0.15278687500E+03  0.00000000000E+00 0.  1.
<scales pt_clust_5="13000.00000" pt_clust_6="13000.00000" pt_clust_7="13000.00000" pt_clust_8="13000.00000" pt_clust_9="137.31063"></scales>
<clustering>
<clus scale="   80.928">  5  6 -1 -1</clus>
<clus scale="   91.869">  7  8 -1 -1</clus>
<clus scale="  120.068">  2  7  1 -1</clus>
<clus scale="  137.311">  1  9  2 -1</clus>
<clus scale="  137.311">  1  5  2 -1</clus>
</clustering>
</event>
<event>
 9    2  0.3764910E-005  0.1436814E+03  0.7546771E-02  0.1211025E+00
          2   -1    0    0  502    0 -0.00000000000E+00  0.00000000000E+00  0.10512472309E+04  0.10512472309E+04  0.00000000000E+00 0. -1.
         21   -1    0    0  501  502  0.00000000000E+00 -0.00000000000E+00 -0.41620055502E+02  0.41620055502E+02  0.00000000000E+00 0.  1.
         24    2    1    2    0    0  0.84033527343E+02  0.65398196180E+02  0.73057001483E+03  0.74288281981E+03  0.82485026684E+02 0.  0.
         23    2    1    2    0    0 -0.74820953426E+02 -0.86943357729E+02  0.28863080073E+03  0.32467201727E+03  0.94587827671E+02 0.  0.
        -11    1    3    3    0    0  0.84315675141E+02  0.37920877134E+02  0.37406330211E+03  0.38531867329E+03  0.00000000000E+00 0.  1.
         12    1    3    3    0    0 -0.28214779787E+00  0.27477319045E+02  0.35650671272E+03  0.35756414653E+03  0.00000000000E+00 0. -1.
        -11    1    4    4    0    0 -0.84693673419E+02 -0.63180600072E+02  0.27693208695E+03  0.29640544415E+03  0.00000000000E+00 0. -1.
         11    1    4    4    0    0  0.98727199923E+01 -0.23762757657E+02  0.11698713779E+02  0.28266573114E+02  0.00000000000E+00 0.  1.
          1    1    1    2  501    0 -0.92125739169E+01  0.21545161549E+02 -0.95736401626E+01  0.25312449315E+02  0.00000000000E+00 0. -1.
<scales pt_clust_5="13000.00000" pt_clust_6="13000.00000" pt_clust_7="13000.00000" pt_clust_8="13000.00000" pt_clust_9="23.43215"></scales>
<clustering>
<clus scale="   23.432">  2  9  1 -1</clus>
<clus scale="   82.485">  5  6 -1 -1</clus>
<clus scale="   94.588">  7  8 -1 -1</clus>
<clus scale="  136.019">  1  5  2 -1</clus>
<clus scale="   23.432">  2  5  1 -1</clus>
</clustering>
</event>
<event>
 9    2  0.3764910E-005  0.2503087E+03  0.7546771E-02  0.1114166E+00
         21   -1    0    0  501  502  0.00000000000E+00  0.00000000000E+00  0.55165351898E+03  0.55165351898E+03  0.00000000000E+00 0. -1.
          2   -1    0    0  502    0 -0.00000000000E+00 -0.00000000000E+00 -0.30242098742E+03  0.30242098742E+03  0.00000000000E+00 0. -1.
         24    2    1    2    0    0 -0.79222064836E+02 -0.20666593851E+03  0.28249783486E+01  0.23342157260E+03  0.74099287137E+02 0.  0.
         23    2    1    2    0    0  0.25845878457E+03  0.16598555837E+03  0.28898567239E+03  0.43199029505E+03  0.93545428872E+02 0.  0.
        -11    1    3    3    0    0 -0.28280822954E+02 -0.13681591425E+03 -0.26364849403E+02  0.14217420520E+03  0.00000000000E+00 0.  1.
         12    1    3    3    0    0 -0.50941241882E+02 -0.69850024260E+02  0.29189827751E+02  0.91247367402E+02  0.00000000000E+00 0. -1.
        -11    1    4    4    0    0  0.94941795889E+01  0.35425751720E+02  0.55648089280E+02  0.66647079242E+02  0.00000000000E+00 0.  1.
         11    1    4    4    0    0  0.24896460498E+03  0.13055980665E+03  0.23333758311E+03  0.36534321581E+03  0.00000000000E+00 0. -1.
          1    1    1    2  501    0 -0.17923671973E+03  0.40680380147E+02 -0.42578119180E+02  0.18866263876E+03  0.00000000000E+00 0. -1.
<scales pt_clust_5="13000.00000" pt_clust_6="13000.00000" pt_clust_7="13000.00000" pt_clust_8="13000.00000" pt_clust_9="183.79534"></scales>
<clustering>
<clus scale="   74.099">  5  6 -1 -1</clus>
<clus scale="   93.545">  7  8 -1 -1</clus>
<clus scale="  183.795">  1  9  2 -1</clus>
<clus scale="  243.710">  2  5  1 -1</clus>
<clus scale="  183.795">  1  5  2 -1</clus>
</clustering>
</event>
<event>
 9    2  0.3764910E-005  0.1054776E+03  0.7546771E-02  0.1276186E+00
         21   -1    0    0  501  502  0.00000000000E+00  0.00000000000E+00  0.62879345306E+02  0.62879345306E+02  0.00000000000E+00 0. -1.
          2   -1    0    0  502    0 -0.00000000000E+00 -0.00000000000E+00 -0.44680390254E+03  0.44680390254E+03  0.00000000000E+00 0. -1.
         24    2    1    2    0    0 -0.21391929111E+02  0.61049339737E+02 -0.30704604220E+03  0.32295875258E+03  0.76422819408E+02 0.  0.
         23    2    1    2    0    0 -0.30594355793E+02 -0.11096984774E+02 -0.50874164306E+02  0.11008222337E+03  0.92036718926E+02 0.  0.
        -11    1    3    3    0    0  0.16376047575E+02  0.19482989161E+02 -0.26103280809E+02  0.36457414470E+02  0.00000000000E+00 0.  1.
         12    1    3    3    0    0 -0.37767976686E+02  0.41566350577E+02 -0.28094276139E+03  0.28650133811E+03  0.00000000000E+00 0. -1.
        -11    1    4    4    0    0  0.60279066784E+01 -0.46127511893E+02 -0.29471205317E+02  0.55069364943E+02  0.00000000000E+00 0.  1.
         11    1    4    4    0    0 -0.36622262471E+02  0.35030527119E+02 -0.21402958989E+02  0.55012858426E+02  0.00000000000E+00 0. -1.
          1    1    1    2  501    0  0.51986284904E+02 -0.49952354963E+02 -0.26004350733E+02  0.76642271897E+02  0.00000000000E+00 0. -1.
<scales pt_clust_5="13000.00000" pt_clust_6="13000.00000" pt_clust_7="13000.00000" pt_clust_8="13000.00000" pt_clust_9="72.09585"></scales>
<clustering>
<clus scale="   72.096">  1  9  2 -1</clus>
<clus scale="   76.423">  5  6 -1 -1</clus>
<clus scale="   92.037">  7  8 -1 -1</clus>
<clus scale="   92.169">  2  5  1 -1</clus>
<clus scale="   72.096">  1  5  2 -1</clus>
</clustering>
</event>
<event>
 9    2  0.5691997E-005  0.9251147E+02  0.7546771E-02  0.1304217E+00
         21   -1    0    0  501  502  0.00000000000E+00  0.00000000000E+00  0.61202976657E+03  0.61202976657E+03  0.00000000000E+00 0.  1.
         -3   -1    0    0    0  501 -0.00000000000E+00 -0.00000000000E+00 -0.69648484992E+02  0.69648484992E+02  0.00000000000E+00 0.  1.
         24    2    1    2    0    0  0.10516317815E+01 -0.50430155654E+01 -0.21115370650E+02  0.82837301678E+02  0.79935109534E+02 0.  0.
         23    2    1    2    0    0 -0.44769514068E+02  0.35051739690E+02  0.16718710857E+03  0.19899969245E+03  0.91741018504E+02 0.  0.
        -11    1    3    3    0    0 -0.31575061008E+02  0.13152542153E+01 -0.34694681495E+02  0.46930110754E+02  0.00000000000E+00 0.  1.
         12    1    3    3    0    0  0.32626692790E+02 -0.63582697808E+01  0.13579310845E+02  0.35907190924E+02  0.00000000000E+00 0. -1.
        -11    1    4    4    0    0 -0.71433175198E+02  0.11553818511E+02  0.11432585326E+03  0.13530184761E+03  0.00000000000E+00 0.  1.
         11    1    4    4    0    0  0.26663661130E+02  0.23497921179E+02  0.52861255308E+02  0.63697844841E+02  0.00000000000E+00 0. -1.
         -4    1    1    2    0  502  0.43717882286E+02 -0.30008724124E+02  0.39630954366E+03  0.39984125744E+03  0.00000000000E+00 0.  1.
<scales pt_clust_5="13000.00000" pt_clust_6="13000.00000" pt_clust_7="13000.00000" pt_clust_8="13000.00000" pt_clust_9="53.02619"></scales>
<clustering>
<clus scale="   53.026">  1  9  2 -1</clus>
<clus scale="   79.935">  5  6 -1 -1</clus>
<clus scale="   80.818">  2  5  1 -1</clus>
<clus scale="   91.741">  7  8 -1 -1</clus>
<clus scale="   53.026">  1  5  2 -1</clus>
</clustering>
</event>
<event>
 9    2  0.3764910E-005  0.1509521E+03  0.7546771E-02  0.1201317E+00
          2   -1    0    0  502    0 -0.00000000000E+00  0.00000000000E+00  0.12069482008E+04  0.12069482008E+04  0.00000000000E+00 0. -1.
         21   -1    0    0  501  502  0.00000000000E+00 -0.00000000000E+00 -0.30328993439E+02  0.30328993439E+02  0.00000000000E+00 0.  1.
         24    2    1    2    0    0 -0.75661673276E+02  0.10068665349E+03  0.78072149573E+03  0.79429691641E+03  0.74290285594E+02 0.  0.
         23    2    1    2    0    0  0.39819892881E+02 -0.11562231668E+03  0.24405324288E+03  0.28624977682E+03  0.86155704311E+02 0.  0.
        -11    1    3    3    0    0 -0.81281831943E+01  0.35896743989E+02  0.89556229541E+02  0.96824386601E+02  0.00000000000E+00 0.  1.
         12    1    3    3    0    0 -0.67533490081E+02  0.64789909500E+02  0.69116526619E+03  0.69747252981E+03  0.00000000000E+00 0. -1.
        -13    1    4    4    0    0  0.64626707017E+02 -0.87293789159E+02  0.20502865068E+03  0.23202061220E+03  0.00000000000E+00 0. -1.
         13    1    4    4    0    0 -0.24806814136E+02 -0.28328527518E+02  0.39024592201E+02  0.54229164619E+02  0.00000000000E+00 0.  1.
          1    1    1    2  501    0  0.35841780395E+02  0.14935663188E+02  0.15184446879E+03  0.15673050105E+03  0.00000000000E+00 0. -1.
<scales pt_clust_5="13000.00000" pt_clust_6="13000.00000" pt_clust_7="13000.00000" pt_clust_8="13000.00000" pt_clust_9="38.82923"></scales>
<clustering>
<clus scale="   38.829">  2  9  1 -1</clus>
<clus scale="   74.290">  5  6 -1 -1</clus>
<clus scale="   86.156">  7  8 -1 -1</clus>
<clus scale="  144.509">  1  5  2 -1</clus>
<clus scale="   38.829">  2  5  1 -1</clus>
</clustering>
</event>
<event>
 9    2  0.3764910E-005  0.1032728E+03  0.7546771E-02  0.1278404E+00
          2   -1    0    0  502    0 -0.00000000000E+00  0.00000000000E+00  0.14220294151E+03  0.14220294151E+03  0.00000000000E+00 0. -1.
         21   -1    0    0  501  502  0.00000000000E+00 -0.00000000000E+00 -0.19541125240E+03  0.19541125240E+03  0.00000000000E+00 0.  1.
         24    2    1    2    0    0  0.77761922538E+01  0.49456655073E+02  0.94161996932E+02  0.13386740902E+03  0.80917066400E+02 0.  0.
         23    2    1    2    0    0 -0.11629899206E+02 -0.29742368922E+02 -0.15458707890E+03  0.18240232611E+03  0.91397924172E+02 0.  0.
        -11    1    3    3    0    0  0.29488484564E+02  0.73316999297E+01  0.22655003696E+01  0.30470592998E+02  0.00000000000E+00 0.  1.
         12    1    3    3    0    0 -0.21712292310E+02  0.42124955143E+02  0.91896496562E+02  0.10339681602E+03  0.00000000000E+00 0. -1.
        -13    1    4    4    0    0 -0.15274015960E+02 -0.61812357541E+02 -0.90602125691E+02  0.11073756494E+03  0.00000000000E+00 0.  1.
         13    1    4    4    0    0  0.36441167545E+01  0.32069988619E+02 -0.63984953212E+02  0.71664761176E+02  0.00000000000E+00 0. -1.
          1    1    1    2  501    0  0.38537069520E+01 -0.19714286151E+02  0.72167710791E+01  0.21344458778E+02  0.00000000000E+00 0. -1.
<scales pt_clust_5="13000.00000" pt_clust_6="13000.00000" pt_clust_7="13000.00000" pt_clust_8="13000.00000" pt_clust_9="20.08742"></scales>
<clustering>
<clus scale="   20.087">  2  9  1 -1</clus>
<clus scale="   80.917">  5  6 -1 -1</clus>
<clus scale="   91.398">  7  8 -1 -1</clus>
<clus scale="   94.124">  1  5  2 -1</clus>
<clus scale="   20.087">  2  5  1 -1</clus>
</clustering>
</event>
<event>
 9    2  0.3764910E-005  0.1112317E+03  0.7546771E-02  0.1262613E+00
         21   -1    0    0  501  502  0.00000000000E+00  0.00000000000E+00  0.33477949904E+03  0.33477949904E+03  0.00000000000E+00 0.  1.
         -1   -1    0    0    0  501 -0.00000000000E+00 -0.00000000000E+00 -0.11414308327E+03  0.11414308327E+03  0.00000000000E+00 0.  1.
         24    2    1    2    0    0  0.36201397629E+02  0.69123278057E+02 -0.23315242516E+02  0.11127899788E+03  0.75834333092E+02 0.  0.
         23    2    1    2    0    0 -0.41689427455E+02 -0.39713456655E+02  0.14021628895E+02  0.10577535788E+03  0.87616512465E+02 0.  0.
        -11    1    3    3    0    0  0.49659873094E+01  0.71606629969E+02 -0.32257772807E+02  0.78693928558E+02  0.00000000000E+00 0.  1.
         12    1    3    3    0    0  0.31235410320E+02 -0.24833519120E+01  0.89425302919E+01  0.32585069320E+02  0.00000000000E+00 0. -1.
        -11    1    4    4    0    0 -0.78628394867E+01 -0.60798088092E+02  0.21986045897E+02  0.65127705123E+02  0.00000000000E+00 0. -1.
         11    1    4    4    0    0 -0.33826587968E+02  0.21084631437E+02 -0.79644170026E+01  0.40647652756E+02  0.00000000000E+00 0.  1.
         -2    1    1    2    0  502  0.54880298261E+01 -0.29409821402E+02  0.22993002940E+03  0.23186822655E+03  0.00000000000E+00 0.  1.
<scales pt_clust_5="13000.00000" pt_clust_6="13000.00000" pt_clust_7="13000.00000" pt_clust_8="13000.00000" pt_clust_9="29.91749"></scales>
<clustering>
<clus scale="   29.917">  1  9  2 -1</clus>
<clus scale="   75.834">  5  6 -1 -1</clus>
<clus scale="   87.617">  7  8 -1 -1</clus>
<clus scale="  102.209">  2  5  1 -1</clus>
<clus scale="   29.917">  1  5  2 -1</clus>
</clustering>
</event>
<event>
 9    2  0.3764910E-005  0.9440148E+02  0.7546771E-02  0.1301319E+00
         21   -1    0    0  501  502  0.00000000000E+00  0.00000000000E+00  0.35910540671E+03  0.35910540671E+03  0.00000000000E+00 0.  1.
          2   -1    0    0  502    0 -0.00000000000E+00 -0.00000000000E+00 -0.38278982592E+02  0.38278982592E+02  0.00000000000E+00 0. -1.
         24    2    1    2    0    0  0.16323984644E+01  0.10170184880E+02  0.58812792110E+02  0.99982491528E+02  0.80196363454E+02 0.  0.
         23    2    1    2    0    0  0.17981378590E+01  0.12489382767E+02  0.11825608315E+03  0.15182903822E+03  0.94383990497E+02 0.  0.
        -11    1    3    3    0    0  0.27442075976E+02  0.51009599455E+01  0.66879626122E+02  0.72470488590E+02  0.00000000000E+00 0.  1.
         12    1    3    3    0    0 -0.25809677512E+02  0.50692249342E+01 -0.80668340122E+01  0.27512002938E+02  0.00000000000E+00 0. -1.
        -13    1    4    4    0    0  0.40950024157E+02  0.24620434111E+02  0.90462732662E+02  0.10230628649E+03  0.00000000000E+00 0.  1.
         13    1    4    4    0    0 -0.39151886298E+02 -0.12131051343E+02  0.27793350486E+02  0.49522751727E+02  0.00000000000E+00 0. -1.
          1    1    1    2  501    0 -0.34305363235E+01 -0.22659567647E+02  0.14375754886E+03  0.14557285955E+03  0.00000000000E+00 0. -1.
<scales pt_clust_5="13000.00000" pt_clust_6="13000.00000" pt_clust_7="13000.00000" pt_clust_8="13000.00000" pt_clust_9="22.91778"></scales>
<clustering>
<clus scale="   22.918">  1  9  2 -1</clus>
<clus scale="   80.196">  5  6 -1 -1</clus>
<clus scale="   80.217">  2  5  1 -1</clus>
<clus scale="   94.384">  7  8 -1 -1</clus>
<clus scale="   22.918">  1  5  2 -1</clus>
</clustering>
</event>
<event>
 9    2  0.3764910E-005  0.1008130E+03  0.7546771E-02  0.1284408E+00
         -1   -1    0    0    0  501 -0.00000000000E+00  0.00000000000E+00  0.75426814641E+02  0.75426814641E+02  0.00000000000E+00 0.  1.
         21   -1    0    0  501  502  0.00000000000E+00 -0.00000000000E+00 -0.37084721179E+03  0.37084721179E+03  0.00000000000E+00 0. -1.
         23    2    1    2    0    0  0.23942369384E+02  0.14121540812E+02 -0.16870958221E+02  0.95814480264E+02  0.90128410783E+02 0.  0.
         24    2    1    2    0    0 -0.97706041815E+02 -0.44517152623E+02 -0.17886273391E+03  0.22277864805E+03  0.78167774423E+02 0.  0.
        -13    1    4    4    0    0 -0.79486521750E+02 -0.14265993689E+02 -0.65307446728E+02  0.10385898283E+03  0.00000000000E+00 0.  1.
         14    1    4    4    0    0 -0.18219520064E+02 -0.30251158934E+02 -0.11355528719E+03  0.11891966522E+03  0.00000000000E+00 0. -1.
        -11    1    3    3    0    0  0.37786277529E+02 -0.65763340981E+01  0.25929993799E+02  0.46297035738E+02  0.00000000000E+00 0.  1.
         11    1    3    3    0    0 -0.13843908146E+02  0.20697874910E+02 -0.42800952020E+02  0.49517444526E+02  0.00000000000E+00 0. -1.
         -2    1    1    2    0  502  0.73763672431E+02  0.30395611811E+02 -0.99686705017E+02  0.12768089812E+03  0.00000000000E+00 0.  1.
<scales pt_clust_5="13000.00000" pt_clust_6="13000.00000" pt_clust_7="13000.00000" pt_clust_8="13000.00000" pt_clust_9="79.78078"></scales>
<clustering>
<clus scale="   78.168">  5  6 -1 -1</clus>
<clus scale="   79.781">  2  9  1 -1</clus>
<clus scale="   90.128">  7  8 -1 -1</clus>
<clus scale="   90.279">  2  5  1 -1</clus>
<clus scale="   79.781">  2  5  1 -1</clus>
</clustering>
</event>
<event>
 9    2  0.3764910E-005  0.9536288E+02  0.7546771E-02  0.1295525E+00
         -1   -1    0    0    0  501 -0.00000000000E+00  0.00000000000E+00  0.16341020333E+03  0.16341020333E+03  0.00000000000E+00 0.  1.
         21   -1    0    0  501  502  0.00000000000E+00 -0.00000000000E+00 -0.12013681736E+03  0.12013681736E+03  0.00000000000E+00 0.  1.
         24    2    1    2    0    0 -0.24729786007E+02  0.17273983706E+02  0.10033742853E+03  0.13275799606E+03  0.81529952324E+02 0.  0.
         23    2    1    2    0    0  0.38101078786E+02  0.18289179850E+02 -0.31393928345E+02  0.10493616390E+03  0.90773528367E+02 0.  0.
        -11    1    3    3    0    0  0.21039907564E+01  0.26136949410E+02  0.10114322578E+03  0.10448693231E+03  0.00000000000E+00 0.  1.
         12    1    3    3    0    0 -0.26833776763E+02 -0.88629657036E+01 -0.80579725697E+00  0.28271063752E+02  0.00000000000E+00 0. -1.
        -13    1    4    4    0    0  0.51094820462E+02 -0.13330225263E+02  0.72966998063E+01  0.53306823312E+02  0.00000000000E+00 0. -1.
         13    1    4    4    0    0 -0.12993741676E+02  0.31619405113E+02 -0.38690628151E+02  0.51629340585E+02  0.00000000000E+00 0.  1.
         -2    1    1    2    0  502 -0.13371292779E+02 -0.35563163556E+02 -0.25670114215E+02  0.45852860723E+02  0.00000000000E+00 0.  1.
<scales pt_clust_5="13000.00000" pt_clust_6="13000.00000" pt_clust_7="13000.00000" pt_clust_8="13000.00000" pt_clust_9="37.99382"></scales>
<clustering>
<clus scale="   37.994">  2  9  1 -1</clus>
<clus scale="   81.530">  5  6 -1 -1</clus>
<clus scale="   86.610">  1  5  2 -1</clus>
<clus scale="   90.774">  7  8 -1 -1</clus>
<clus scale="   37.994">  2  5  1 -1</clus>
</clustering>
</event>
<event>
 9    2  0.3764910E-005  0.1292358E+03  0.7546771E-02  0.1249535E+00
          2   -1    0    0  502    0 -0.00000000000E+00  0.00000000000E+00  0.84958987496E+03  0.84958987496E+03  0.00000000000E+00 0. -1.
         21   -1    0    0  501  502  0.00000000000E+00 -0.00000000000E+00 -0.27794990855E+02  0.27794990855E+02  0.00000000000E+00 0.  1.
         24    2    1    2    0    0  0.23001009360E+02 -0.76019518662E+01  0.24436213948E+03  0.25852910485E+03  0.80855468219E+02 0.  0.
         23    2    1    2    0    0  0.45701213136E+02  0.74913095952E+02  0.32339444796E+03  0.34721953056E+03  0.90977253226E+02 0.  0.
        -11    1    3    3    0    0 -0.21802263306E+02 -0.22940244656E+02  0.56190639007E+02  0.64490165313E+02  0.00000000000E+00 0.  1.
         12    1    3    3    0    0  0.44803272666E+02  0.15338292789E+02  0.18817150047E+03  0.19403893954E+03  0.00000000000E+00 0. -1.
        -11    1    4    4    0    0  0.73352251061E+02  0.60838474109E+02  0.24904989429E+03  0.26666031297E+03  0.00000000000E+00 0.  1.
         11    1    4    4    0    0 -0.27651037926E+02  0.14074621843E+02  0.74344553670E+02  0.80559217590E+02  0.00000000000E+00 0. -1.
          1    1    1    2  501    0 -0.68702222495E+02 -0.67311144086E+02  0.25403829667E+03  0.27163623040E+03  0.00000000000E+00 0. -1.
<scales pt_clust_5="13000.00000" pt_clust_6="13000.00000" pt_clust_7="13000.00000" pt_clust_8="13000.00000" pt_clust_9="91.78803"></scales>
<clustering>
<clus scale="   80.855">  5  6 -1 -1</clus>
<clus scale="   84.406">  1  5  2 -1</clus>
<clus scale="   90.977">  7  8 -1 -1</clus>
<clus scale="   91.788">  2  9  1 -1</clus>
<clus scale="   91.788">  2  5  1 -1</clus>
</clustering>
</event>
<event>
 9    2  0.3764910E-005  0.1394049E+03  0.7546771E-02  0.1235052E+00
         -3   -1    0    0    0  501 -0.00000000000E+00  0.00000000000E+00  0.65309255998E+02  0.65309255998E+02  0.00000000000E+00 0.  1.
         21   -1    0    0  501  502  0.00000000000E+00 -0.00000000000E+00 -0.55926027210E+03  0.55926027210E+03  0.00000000000E+00 0.  1.
         23    2    1    2    0    0  0.51329478058E+01 -0.97499960118E+01 -0.50942271431E+02  0.10354722589E+03  0.89473478722E+02 0.  0.
         24    2    1    2    0    0  0.87318324450E+02  0.75892632630E+02 -0.14487241285E+03  0.20194964830E+03  0.80071611525E+02 0.  0.
        -11    1    4    4    0    0  0.70022501707E+02  0.35504444454E+02 -0.39715203535E+02  0.87983030825E+02  0.00000000000E+00 0.  1.
         12    1    4    4    0    0  0.17295822743E+02  0.40388188176E+02 -0.10515720931E+03  0.11396661748E+03  0.00000000000E+00 0. -1.
        -13    1    3    3    0    0  0.10936759385E+02 -0.44364835496E+02 -0.53427531349E+01  0.46004307901E+02  0.00000000000E+00 0. -1.
         13    1    3    3    0    0 -0.58038115796E+01  0.34614839484E+02 -0.45599518296E+02  0.57542917985E+02  0.00000000000E+00 0.  1.
         -4    1    1    2    0  502 -0.92451272256E+02 -0.66142636618E+02 -0.29813633182E+03  0.31907265391E+03  0.00000000000E+00 0.  1.
<scales pt_clust_5="13000.00000" pt_clust_6="13000.00000" pt_clust_7="13000.00000" pt_clust_8="13000.00000" pt_clust_9="114.11511"></scales>
<clustering>
<clus scale="   80.072">  5  6 -1 -1</clus>
<clus scale="   89.473">  7  8 -1 -1</clus>
<clus scale="   90.149">  1  7  2 -1</clus>
<clus scale="  114.115">  2  9  1 -1</clus>
<clus scale="  114.115">  2  5  1 -1</clus>
</clustering>
</event>
<event>
 9    2  0.3764910E-005  0.8932734E+02  0.7546771E-02  0.1309218E+00
          2   -1    0    0  502    0 -0.00000000000E+00  0.00000000000E+00  0.43450015082E+03  0.43450015082E+03  0.00000000000E+00 0. -1.
         21   -1    0    0  501  502  0.00000000000E+00 -0.00000000000E+00 -0.47861710431E+02  0.47861710431E+02  0.00000000000E+00 0. -1.
         24    2    1    2    0    0  0.87009168298E+01 -0.12818095231E+02  0.29680188888E+03  0.30798098460E+03  0.80752189515E+02 0.  0.
         23    2    1    2    0    0 -0.33336734235E+02 -0.30854421070E+02  0.57011862039E+02  0.11445031335E+03  0.88233716137E+02 0.  0.
        -11    1    3    3    0    0  0.40059511575E+02  0.12103681545E+02  0.16521543200E+03  0.17043298550E+03  0.00000000000E+00 0.  1.
         12    1    3    3    0    0 -0.31358594745E+02 -0.24921776776E+02  0.13158645688E+03  0.13754799910E+03  0.00000000000E+00 0. -1.
        -13    1    4    4    0    0 -0.62338014128E+02 -0.30215980559E+02  0.47204480575E+02  0.83828971560E+02  0.00000000000E+00 0. -1.
         13    1    4    4    0    0  0.29001279893E+02 -0.63844051136E+00  0.98073814644E+01  0.30621341788E+02  0.00000000000E+00 0.  1.
          1    1    1    2  501    0  0.24635817405E+02  0.43672516301E+02  0.32824689467E+02  0.59930563304E+02  0.00000000000E+00 0. -1.
<scales pt_clust_5="13000.00000" pt_clust_6="13000.00000" pt_clust_7="13000.00000" pt_clust_8="13000.00000" pt_clust_9="50.14192"></scales>
<clustering>
<clus scale="   50.142">  2  9  1 -1</clus>
<clus scale="   80.752">  5  6 -1 -1</clus>
<clus scale="   81.946">  1  5  2 -1</clus>
<clus scale="   88.234">  7  8 -1 -1</clus>
<clus scale="   50.142">  2  5  1 -1</clus>
</clustering>
</event>
<event>
 9    2  0.3764910E-005  0.1042043E+03  0.7546771E-02  0.1275839E+00
         -1   -1    0    0    0  501 -0.00000000000E+00  0.00000000000E+00  0.38441744488E+03  0.38441744488E+03  0.00000000000E+00 0.  1.
         21   -1    0    0  501  502  0.00000000000E+00 -0.00000000000E+00 -0.80944996759E+02  0.80944996759E+02  0.00000000000E+00 0.  1.
         23    2    1    2    0    0  0.51612530784E+02  0.28283974010E+02  0.21524313783E+03  0.24080715945E+03  0.90524268237E+02 0.  0.
         24    2    1    2    0    0 -0.30255978218E+02  0.24924423118E+02 -0.28441685148E+02  0.94557755138E+02  0.81213228707E+02 0.  0.
        -13    1    4    4    0    0 -0.37880084939E+01 -0.25366879298E+02 -0.27659914242E+02  0.37721325925E+02  0.00000000000E+00 0.  1.
         14    1    4    4    0    0 -0.26467969724E+02  0.50291302416E+02 -0.78177090639E+00  0.56836429213E+02  0.00000000000E+00 0. -1.
        -13    1    3    3    0    0  0.67977554122E+02  0.47153798639E+02  0.15791201849E+03  0.17827123765E+03  0.00000000000E+00 0.  1.
         13    1    3    3    0    0 -0.16365023338E+02 -0.18869824629E+02  0.57331119345E+02  0.62535921803E+02  0.00000000000E+00 0. -1.
         -2    1    1    2    0  502 -0.21356552567E+02 -0.53208397128E+02  0.11667099544E+03  0.12999752705E+03  0.00000000000E+00 0.  1.
<scales pt_clust_5="13000.00000" pt_clust_6="13000.00000" pt_clust_7="13000.00000" pt_clust_8="13000.00000" pt_clust_9="57.33445"></scales>
<clustering>
<clus scale="   57.334">  2  9  1 -1</clus>
<clus scale="   81.213">  5  6 -1 -1</clus>
<clus scale="   90.524">  7  8 -1 -1</clus>
<clus scale="   96.226">  2  5  1 -1</clus>
<clus scale="   57.334">  2  5  1 -1</clus>
</clustering>
</event>
<event>
 9    2  0.3764910E-005  0.1071716E+03  0.7546771E-02  0.1269465E+00
         21   -1    0    0  501  502  0.00000000000E+00  0.00000000000E+00  0.62798075329E+03  0.62798075329E+03  0.00000000000E+00 0.  1.
          4   -1    0    0  502    0 -0.00000000000E+00 -0.00000000000E+00 -0.12513019334E+03  0.12513019334E+03  0.00000000000E+00 0. -1.
         23    2    1    2    0    0 -0.46046749743E+02  0.41102873588E+02 -0.88954374002E+02  0.14026472593E+03  0.89171538662E+02 0.  0.
         24    2    1    2    0    0 -0.71865177325E+01 -0.55400723908E+02  0.29096778471E+03  0.30700116246E+03  0.80415022023E+02 0.  0.
        -11    1    4    4    0    0 -0.17765215160E+02 -0.73707234433E+02  0.20819197052E+03  0.22156772298E+03  0.00000000000E+00 0.  1.
         12    1    4    4    0    0  0.10578697427E+02  0.18306510525E+02  0.82775814190E+02  0.85433439481E+02  0.00000000000E+00 0. -1.
        -13    1    3    3    0    0  0.66570761642E+01  0.28293490219E+02 -0.80225636147E+02  0.85328722872E+02  0.00000000000E+00 0. -1.
         13    1    3    3    0    0 -0.52703825908E+02  0.12809383369E+02 -0.87287378551E+01  0.54936003059E+02  0.00000000000E+00 0.  1.
          3    1    1    2  501    0  0.53233267476E+02  0.14297850320E+02  0.30083714924E+03  0.30584505824E+03  0.00000000000E+00 0. -1.
<scales pt_clust_5="13000.00000" pt_clust_6="13000.00000" pt_clust_7="13000.00000" pt_clust_8="13000.00000" pt_clust_9="55.11995"></scales>
<clustering>
<clus scale="   55.120">  1  9  2 -1</clus>
<clus scale="   80.415">  5  6 -1 -1</clus>
<clus scale="   89.172">  7  8 -1 -1</clus>
<clus scale="  100.004">  1  5  2 -1</clus>
<clus scale="   55.120">  1  5  2 -1</clus>
</clustering>
</event>
<event>
 9    2  0.3764910E-005  0.1679393E+03  0.7546771E-02  0.1203306E+00
         21   -1    0    0  501  502  0.00000000000E+00  0.00000000000E+00  0.37193648466E+02  0.37193648466E+02  0.00000000000E+00 0. -1.
          2   -1    0    0  502    0 -0.00000000000E+00 -0.00000000000E+00 -0.12337682114E+04  0.12337682114E+04  0.00000000000E+00 0. -1.
         23    2    1    2    0    0 -0.21782104871E+02  0.33139563664E+02 -0.24883585292E+03  0.26837347213E+03  0.92370710052E+02 0.  0.
         24    2    1    2    0    0  0.14844081660E+03 -0.79841297679E+02 -0.62906414873E+03  0.65650031047E+03  0.82835050402E+02 0.  0.
        -11    1    4    4    0    0  0.10077702237E+03 -0.18004222143E+02 -0.26341360740E+03  0.28260730496E+03  0.00000000000E+00 0.  1.
         12    1    4    4    0    0  0.47663794230E+02 -0.61837075536E+02 -0.36565054133E+03  0.37389300551E+03  0.00000000000E+00 0. -1.
        -13    1    3    3    0    0  0.27686979184E+02  0.35132688638E+02 -0.16551860928E+03  0.17145636367E+03  0.00000000000E+00 0.  1.
         13    1    3    3    0    0 -0.49469084055E+02 -0.19931249741E+01 -0.83317243638E+02  0.96917108458E+02  0.00000000000E+00 0. -1.
          1    1    1    2  501    0 -0.12665871173E+03  0.46701734015E+02 -0.31867456131E+03  0.34608807729E+03  0.00000000000E+00 0. -1.
<scales pt_clust_5="13000.00000" pt_clust_6="13000.00000" pt_clust_7="13000.00000" pt_clust_8="13000.00000" pt_clust_9="146.08884"></scales>
<clustering>
<clus scale="   82.835">  5  6 -1 -1</clus>
<clus scale="   92.371">  7  8 -1 -1</clus>
<clus scale="  100.524">  2  7  1 -1</clus>
<clus scale="  146.089">  1  9  2 -1</clus>
<clus scale="  146.089">  1  5  2 -1</clus>
</clustering>
</event>
<event>
 9    2  0.3764910E-005  0.8889447E+02  0.7546771E-02  0.1310431E+00
         21   -1    0    0  501  502  0.00000000000E+00  0.00000000000E+00  0.11399538774E+03  0.11399538774E+03  0.00000000000E+00 0.  1.
         -3   -1    0    0    0  501 -0.00000000000E+00 -0.00000000000E+00 -0.17264944524E+03  0.17264944524E+03  0.00000000000E+00 0.  1.
         24    2    1    2    0    0  0.30178338135E+02 -0.21968726196E+02 -0.80306998193E+02  0.11904902332E+03  0.79561919103E+02 0.  0.
         23    2    1    2    0    0  0.11593343156E+02 -0.22562334194E+02 -0.20795600225E+02  0.93233404356E+02  0.87272826064E+02 0.  0.
        -13    1    3    3    0    0  0.30738765232E+02 -0.32644654305E+01  0.53505936459E+01  0.31371281053E+02  0.00000000000E+00 0.  1.
         14    1    3    3    0    0 -0.56042709685E+00 -0.18704260765E+02 -0.85657591839E+02  0.87677742266E+02  0.00000000000E+00 0. -1.
        -13    1    4    4    0    0  0.20686484571E+02  0.29420668576E+02  0.13784498527E+01  0.35991756103E+02  0.00000000000E+00 0. -1.
         13    1    4    4    0    0 -0.90931414154E+01 -0.51983002771E+02 -0.22174050078E+02  0.57241648253E+02  0.00000000000E+00 0.  1.
         -4    1    1    2    0  502 -0.41771681291E+02  0.44531060390E+02  0.42448540915E+02  0.74362405308E+02  0.00000000000E+00 0.  1.
<scales pt_clust_5="13000.00000" pt_clust_6="13000.00000" pt_clust_7="13000.00000" pt_clust_8="13000.00000" pt_clust_9="61.05644"></scales>
<clustering>
<clus scale="   61.056">  1  9  2 -1</clus>
<clus scale="   79.562">  5  6 -1 -1</clus>
<clus scale="   81.337">  2  5  1 -1</clus>
<clus scale="   87.273">  7  8 -1 -1</clus>
<clus scale="   61.056">  1  5  2 -1</clus>
</clustering>
</event>
<event>
 9    2  0.3764910E-005  0.2955691E+03  0.7546771E-02  0.1104040E+00
         21   -1    0    0  501  502  0.00000000000E+00  0.00000000000E+00  0.13496609107E+03  0.13496609107E+03  0.00000000000E+00 0. -1.
          2   -1    0    0  502    0 -0.00000000000E+00 -0.00000000000E+00 -0.14581542663E+04  0.14581542663E+04  0.00000000000E+00 0. -1.
         24    2    1    2    0    0  0.10376777555E+03 -0.14010097976E+03 -0.74844956829E+02  0.20575442757E+03  0.79605785798E+02 0.  0.
         23    2    1    2    0    0 -0.86982126754E+02 -0.21367151449E+03 -0.57900019698E+03  0.63009661442E+03  0.92515452348E+02 0.  0.
        -13    1    3    3    0    0 -0.47839315701E+01 -0.47762566506E+02 -0.93119534280E+01  0.48896433788E+02  0.00000000000E+00 0.  1.
         14    1    3    3    0    0  0.10855170712E+03 -0.92338413250E+02 -0.65533003401E+02  0.15685799379E+03  0.00000000000E+00 0. -1.
        -13    1    4    4    0    0  0.94146386853E+01 -0.17651581732E+02 -0.14218138481E+02  0.24543211303E+02  0.00000000000E+00 0.  1.
         13    1    4    4    0    0 -0.96396765439E+02 -0.19601993276E+03 -0.56478205849E+03  0.60555340311E+03  0.00000000000E+00 0. -1.
          1    1    1    2  501    0 -0.16785648793E+02  0.35377249425E+03 -0.66934302139E+03  0.75726931535E+03  0.00000000000E+00 0. -1.
<scales pt_clust_5="13000.00000" pt_clust_6="13000.00000" pt_clust_7="13000.00000" pt_clust_8="13000.00000" pt_clust_9="280.71705"></scales>
<clustering>
<clus scale="   79.606">  5  6 -1 -1</clus>
<clus scale="   92.515">  7  8 -1 -1</clus>
<clus scale="  191.659">  2  5  1 -1</clus>
<clus scale="  280.717">  1  9  2 -1</clus>
<clus scale="  280.717">  1  5  2 -1</clus>
</clustering>
</event>
<event>
 9    2  0.3764910E-005  0.1057606E+03  0.7546771E-02  0.1272217E+00
         21   -1    0    0  501  502  0.00000000000E+00  0.00000000000E+00  0.75327594722E+02  0.75327594722E+02  0.00000000000E+00 0. -1.
         -1   -1    0    0    0  501 -0.00000000000E+00 -0.00000000000E+00 -0.39890715608E+03  0.39890715608E+03  0.00000000000E+00 0.  1.
         23    2    1    2    0    0  0.47993733873E+02  0.13983751790E+02 -0.30290911272E+03  0.32135925451E+03  0.94967868705E+02 0.  0.
         24    2    1    2    0    0 -0.12927071132E+02 -0.50018889718E+02 -0.14065954377E+02  0.10216236834E+03  0.87007470577E+02 0.  0.
        -11    1    4    4    0    0  0.34140642438E+02 -0.27077993919E+02  0.97294747481E+01  0.44648223925E+02  0.00000000000E+00 0.  1.
         12    1    4    4    0    0 -0.47067713571E+02 -0.22940895800E+02 -0.23795429126E+02  0.57514144418E+02  0.00000000000E+00 0. -1.
        -11    1    3    3    0    0  0.51570160003E+02 -0.31886958173E+02 -0.18983843824E+03  0.19928595569E+03  0.00000000000E+00 0. -1.
         11    1    3    3    0    0 -0.35764261300E+01  0.45870709963E+02 -0.11307067449E+03  0.12207329882E+03  0.00000000000E+00 0.  1.
         -2    1    1    2    0  502 -0.35066662741E+02  0.36035137928E+02 -0.66044942538E+01  0.50713127942E+02  0.00000000000E+00 0.  1.
<scales pt_clust_5="13000.00000" pt_clust_6="13000.00000" pt_clust_7="13000.00000" pt_clust_8="13000.00000" pt_clust_9="50.28123"></scales>
<clustering>
<clus scale="   50.281">  1  9  2 -1</clus>
<clus scale="   87.007">  5  6 -1 -1</clus>
<clus scale="   94.968">  7  8 -1 -1</clus>
<clus scale="   98.675">  1  5  2 -1</clus>
<clus scale="   50.281">  1  5  2 -1</clus>
</clustering>
</event>
<event>
 9    2  0.3764910E-005  0.8686585E+02  0.7546771E-02  0.1310855E+00
         21   -1    0    0  501  502  0.00000000000E+00  0.00000000000E+00  0.44086061624E+03  0.44086061624E+03  0.00000000000E+00 0. -1.
          2   -1    0    0  502    0 -0.00000000000E+00 -0.00000000000E+00 -0.10123499487E+03  0.10123499487E+03  0.00000000000E+00 0. -1.
         23    2    1    2    0    0  0.67808395807E+00  0.40307801882E+02 -0.33977238913E+02  0.10033201717E+03  0.85363236899E+02 0.  0.
         24    2    1    2    0    0  0.21298418699E+02  0.43356301150E+02  0.47768297764E+02  0.10464223458E+03  0.79591428542E+02 0.  0.
        -13    1    4    4    0    0  0.25722025637E+02 -0.16050996590E+02  0.29573426781E+02  0.42353803441E+02  0.00000000000E+00 0.  1.
         14    1    4    4    0    0 -0.44236069370E+01  0.59407297741E+02  0.18194870984E+02  0.62288431135E+02  0.00000000000E+00 0. -1.
        -11    1    3    3    0    0 -0.38605647038E+02  0.39068326670E+02 -0.16777825359E+02  0.57430179834E+02  0.00000000000E+00 0.  1.
         11    1    3    3    0    0  0.39283730996E+02  0.12394752123E+01 -0.17199413554E+02  0.42901837331E+02  0.00000000000E+00 0. -1.
          1    1    1    2  501    0 -0.21976502658E+02 -0.83664103033E+02  0.32583456252E+03  0.33712135937E+03  0.00000000000E+00 0. -1.
<scales pt_clust_5="13000.00000" pt_clust_6="13000.00000" pt_clust_7="13000.00000" pt_clust_8="13000.00000" pt_clust_9="86.50231"></scales>
<clustering>
<clus scale="   79.591">  5  6 -1 -1</clus>
<clus scale="   85.363">  7  8 -1 -1</clus>
<clus scale="   86.502">  1  9  2 -1</clus>
<clus scale="   86.502">  1  5  2 -1</clus>
<clus scale="   86.502">  1  5  2 -1</clus>
</clustering>
</event>
<event>
 9    2  0.3764910E-005  0.1178622E+03  0.7546771E-02  0.1250026E+00
          2   -1    0    0  502    0 -0.00000000000E+00  0.00000000000E+00  0.29007797141E+03  0.29007797141E+03  0.00000000000E+00 0. -1.
         21   -1    0    0  501  502  0.00000000000E+00 -0.00000000000E+00 -0.72913738065E+02  0.72913738065E+02  0.00000000000E+00 0.  1.
         23    2    1    2    0    0 -0.49169802419E+02 -0.71695436390E+02  0.10223524903E+03  0.16224325351E+03  0.91175227416E+02 0.  0.
         24    2    1    2    0    0  0.18895753181E+02  0.56900530085E+02  0.23756806896E+02  0.10354879936E+03  0.81013876361E+02 0.  0.
        -13    1    4    4    0    0 -0.29724784246E+02  0.10183544334E+02  0.17155604944E+02  0.35799192095E+02  0.00000000000E+00 0.  1.
         14    1    4    4    0    0  0.48620537428E+02  0.46716985751E+02  0.66012019527E+01  0.67749607266E+02  0.00000000000E+00 0. -1.
        -13    1    3    3    0    0 -0.10911280056E+02 -0.70783183235E+02  0.10117592452E+03  0.12395919798E+03  0.00000000000E+00 0. -1.
         13    1    3    3    0    0 -0.38258522363E+02 -0.91225315496E+00  0.10593245145E+01  0.38284055528E+02  0.00000000000E+00 0.  1.
          1    1    1    2  501    0  0.30274049238E+02  0.14794906304E+02  0.91172177419E+02  0.97199656610E+02  0.00000000000E+00 0. -1.
<scales pt_clust_5="13000.00000" pt_clust_6="13000.00000" pt_clust_7="13000.00000" pt_clust_8="13000.00000" pt_clust_9="33.69582"></scales>
<clustering>
<clus scale="   33.696">  2  9  1 -1</clus>
<clus scale="   81.014">  5  6 -1 -1</clus>
<clus scale="   91.175">  7  8 -1 -1</clus>
<clus scale="  110.190">  2  5  1 -1</clus>
<clus scale="   33.696">  2  5  1 -1</clus>
</clustering>
</event>
<event>
 9    2  0.3764910E-005  0.1130030E+03  0.7546771E-02  0.1261016E+00
         -1   -1    0    0    0  501 -0.00000000000E+00  0.00000000000E+00  0.28667204492E+03  0.28667204492E+03  0.00000000000E+00 0.  1.
         21   -1    0    0  501  502  0.00000000000E+00 -0.00000000000E+00 -0.92406675986E+02  0.92406675986E+02  0.00000000000E+00 0.  1.
         24    2    1    2    0    0 -0.65415490097E+02  0.24896771861E+02  0.19973719218E+03  0.22616287622E+03  0.79722424987E+02 0.  0.
         23    2    1    2    0    0  0.31399544805E+02 -0.17864508294E+02  0.27294731909E+02  0.10516456825E+03  0.94918448965E+02 0.  0.
        -13    1    3    3    0    0 -0.56698355781E+02  0.36987545334E+01  0.19453044126E+03  0.20265852291E+03  0.00000000000E+00 0.  1.
         14    1    3    3    0    0 -0.87171343162E+01  0.21198017328E+02  0.52067509273E+01  0.23504353310E+02  0.00000000000E+00 0. -1.
        -13    1    4    4    0    0  0.24221523878E+02  0.33614174795E+02 -0.81854969778E+01  0.42232657114E+02  0.00000000000E+00 0.  1.
         13    1    4    4    0    0  0.71780209273E+01 -0.51478683088E+02  0.35480228887E+02  0.62931911133E+02  0.00000000000E+00 0. -1.
         -2    1    1    2    0  502  0.34015945292E+02 -0.70322635674E+01 -0.32766555155E+02  0.47751276441E+02  0.00000000000E+00 0.  1.
<scales pt_clust_5="13000.00000" pt_clust_6="13000.00000" pt_clust_7="13000.00000" pt_clust_8="13000.00000" pt_clust_9="34.73525"></scales>
<clustering>
<clus scale="   34.735">  2  9  1 -1</clus>
<clus scale="   79.722">  5  6 -1 -1</clus>
<clus scale="   94.918">  7  8 -1 -1</clus>
<clus scale="  100.578">  1  5  2 -1</clus>
<clus scale="   34.735">  2  5  1 -1</clus>
</clustering>
</event>
<event>
 9    2  0.3764910E-005  0.1210973E+03  0.7546771E-02  0.1244986E+00
         -1   -1    0    0    0  501 -0.00000000000E+00  0.00000000000E+00  0.52106320349E+03  0.52106320349E+03  0.00000000000E+00 0.  1.
         21   -1    0    0  501  502  0.00000000000E+00 -0.00000000000E+00 -0.92546348381E+02  0.92546348381E+02  0.00000000000E+00 0.  1.
         23    2    1    2    0    0 -0.32106584121E+02  0.72240548531E+02  0.44427391943E+03  0.46055330376E+03  0.92089633088E+02 0.  0.
         24    2    1    2    0    0  0.56771103717E+01 -0.79966062977E+02  0.11816271321E+02  0.11408844737E+03  0.80310327756E+02 0.  0.
        -13    1    4    4    0    0 -0.25175011580E+02 -0.57490141832E+01 -0.14374768637E+02  0.29554464054E+02  0.00000000000E+00 0.  1.
         14    1    4    4    0    0  0.30852121952E+02 -0.74217048794E+02  0.26191039958E+02  0.84533983313E+02  0.00000000000E+00 0. -1.
        -11    1    3    3    0    0 -0.19631226486E+02 -0.19928249404E+02  0.88015926099E+02  0.92354336253E+02  0.00000000000E+00 0. -1.
         11    1    3    3    0    0 -0.12475357636E+02  0.92168797935E+02  0.35625799333E+03  0.36819896751E+03  0.00000000000E+00 0.  1.
         -2    1    1    2    0  502  0.26429473750E+02  0.77255144464E+01 -0.27573335645E+02  0.38967800742E+02  0.00000000000E+00 0.  1.
<scales pt_clust_5="13000.00000" pt_clust_6="13000.00000" pt_clust_7="13000.00000" pt_clust_8="13000.00000" pt_clust_9="27.53544"></scales>
<clustering>
<clus scale="   27.535">  2  9  1 -1</clus>
<clus scale="   80.310">  5  6 -1 -1</clus>
<clus scale="   92.090">  7  8 -1 -1</clus>
<clus scale="  112.400">  2  5  1 -1</clus>
<clus scale="   27.535">  2  5  1 -1</clus>
</clustering>
</event>
<event>
 9    2  0.3764910E-005  0.2314643E+03  0.7546771E-02  0.1125613E+00
         21   -1    0    0  501  502  0.00000000000E+00  0.00000000000E+00  0.43844994243E+03  0.43844994243E+03  0.00000000000E+00 0.  1.
         -3   -1    0    0    0  501 -0.00000000000E+00 -0.00000000000E+00 -0.99282402169E+02  0.99282402169E+02  0.00000000000E+00 0.  1.
         24    2    1    2    0    0 -0.92547329984E+02 -0.49211984965E+02  0.59219870078E+02  0.14010672745E+03  0.71666409936E+02 0.  0.
         23    2    1    2    0    0 -0.46589516184E+02 -0.20841127306E+02  0.40407561808E+02  0.11188803821E+03  0.91001244148E+02 0.  0.
        -11    1    3    3    0    0 -0.38684476689E+02 -0.11059080670E+02  0.62148529384E+02  0.74035340929E+02  0.00000000000E+00 0.  1.
         12    1    3    3    0    0 -0.53862853295E+02 -0.38152904296E+02 -0.29286593064E+01  0.66071386519E+02  0.00000000000E+00 0. -1.
        -11    1    4    4    0    0 -0.49564499808E+02 -0.41780911808E+02 -0.16128383628E+01  0.64845088329E+02  0.00000000000E+00 0.  1.
         11    1    4    4    0    0  0.29749836238E+01  0.20939784502E+02  0.42020400171E+02  0.47042949877E+02  0.00000000000E+00 0. -1.
         -4    1    1    2    0  502  0.13913684617E+03  0.70053112271E+02  0.23954010837E+03  0.28573757894E+03  0.00000000000E+00 0.  1.
<scales pt_clust_5="13000.00000" pt_clust_6="13000.00000" pt_clust_7="13000.00000" pt_clust_8="13000.00000" pt_clust_9="155.77709"></scales>
<clustering>
<clus scale="   71.666">  5  6 -1 -1</clus>
<clus scale="   91.001">  7  8 -1 -1</clus>
<clus scale="   92.834">  5  7 -1 -1</clus>
<clus scale="  155.777">  1  9  2 -1</clus>
<clus scale="  155.777">  1  5  2 -1</clus>
</clustering>
</event>
<event>
 9    2  0.3764910E-005  0.1088655E+03  0.7546771E-02  0.1277225E+00
         21   -1    0    0  501  502  0.00000000000E+00  0.00000000000E+00  0.32586039475E+03  0.32586039475E+03  0.00000000000E+00 0.  1.
          2   -1    0    0  502    0 -0.00000000000E+00 -0.00000000000E+00 -0.23583550762E+03  0.23583550762E+03  0.00000000000E+00 0. -1.
         24    2    1    2    0    0  0.80317429179E+01  0.13411178650E+02 -0.15899938808E+03  0.17915119315E+03  0.81055388408E+02 0.  0.
         23    2    1    2    0    0  0.66398261645E+01  0.52129638867E+02  0.28288188064E+03  0.30733040776E+03  0.10801960285E+03 0.  0.
        -11    1    3    3    0    0 -0.24912033876E+02  0.20784411316E+02 -0.24982695842E+02  0.40947970366E+02  0.00000000000E+00 0.  1.
         12    1    3    3    0    0  0.32943776793E+02 -0.73732326661E+01 -0.13401669223E+03  0.13820322278E+03  0.00000000000E+00 0. -1.
        -13    1    4    4    0    0  0.51359289249E+02  0.52025853594E+02  0.14515417204E+03  0.16252445876E+03  0.00000000000E+00 0.  1.
         13    1    4    4    0    0 -0.44719463085E+02  0.10378527325E+00  0.13772770859E+03  0.14480594900E+03  0.00000000000E+00 0. -1.
          1    1    1    2  501    0 -0.14671569082E+02 -0.65540817518E+02 -0.33857605428E+02  0.75214301469E+02  0.00000000000E+00 0. -1.
<scales pt_clust_5="13000.00000" pt_clust_6="13000.00000" pt_clust_7="13000.00000" pt_clust_8="13000.00000" pt_clust_9="67.16292"></scales>
<clustering>
<clus scale="   67.163">  1  9  2 -1</clus>
<clus scale="   81.055">  5  6 -1 -1</clus>
<clus scale="   82.179">  2  5  1 -1</clus>
<clus scale="  108.020">  7  8 -1 -1</clus>
<clus scale="   67.163">  1  5  2 -1</clus>
</clustering>
</event>
<event>
 9    2  0.3764910E-005  0.1057068E+03  0.7546771E-02  0.1271784E+00
         -1   -1    0    0    0  501 -0.00000000000E+00  0.00000000000E+00  0.33161993519E+02  0.33161993519E+02  0.00000000000E+00 0.  1.
         21   -1    0    0  501  502  0.00000000000E+00 -0.00000000000E+00 -0.55332112107E+03  0.55332112107E+03  0.00000000000E+00 0. -1.
         23    2    1    2    0    0  0.62863676589E+02  0.59010067557E+01 -0.91469707647E+02  0.14173992570E+03  0.87959282652E+02 0.  0.
         24    2    1    2    0    0 -0.44248935320E+02 -0.19022192975E+02 -0.31060764498E+03  0.32448521747E+03  0.80583715082E+02 0.  0.
        -13    1    4    4    0    0 -0.52832407499E+02  0.49774642019E+01 -0.10855636763E+03  0.12083262550E+03  0.00000000000E+00 0.  1.
         14    1    4    4    0    0  0.85834721781E+01 -0.23999657177E+02 -0.20205127735E+03  0.20365259197E+03  0.00000000000E+00 0. -1.
        -11    1    3    3    0    0  0.35205440720E+02  0.39663021933E+02 -0.81066001888E+02  0.96872467850E+02  0.00000000000E+00 0.  1.
         11    1    3    3    0    0  0.27658235869E+02 -0.33762015177E+02 -0.10403705759E+02  0.44867457848E+02  0.00000000000E+00 0. -1.
         -2    1    1    2    0  502 -0.18614741268E+02  0.13121186220E+02 -0.11808177493E+03  0.12025797142E+03  0.00000000000E+00 0.  1.
<scales pt_clust_5="13000.00000" pt_clust_6="13000.00000" pt_clust_7="13000.00000" pt_clust_8="13000.00000" pt_clust_9="22.77442"></scales>
<clustering>
<clus scale="   22.774">  2  9  1 -1</clus>
<clus scale="   80.584">  5  6 -1 -1</clus>
<clus scale="   87.959">  7  8 -1 -1</clus>
<clus scale="   99.654">  2  5  1 -1</clus>
<clus scale="   22.774">  2  5  1 -1</clus>
</clustering>
</event>
<event>
 9    2  0.3764910E-005  0.1097937E+03  0.7546771E-02  0.1264587E+00
         21   -1    0    0  501  502  0.00000000000E+00  0.00000000000E+00  0.52976879170E+02  0.52976879170E+02  0.00000000000E+00 0. -1.
         -1   -1    0    0    0  501 -0.00000000000E+00 -0.00000000000E+00 -0.60674535712E+03  0.60674535712E+03  0.00000000000E+00 0.  1.
         23    2    1    2    0    0  0.28304412197E+02  0.43098547198E+02 -0.41866013711E+03  0.43185296580E+03  0.92531341426E+02 0.  0.
         24    2    1    2    0    0 -0.20585102634E+02 -0.87168320267E+02 -0.13618192957E+03  0.18311566470E+03  0.83449183397E+02 0.  0.
        -11    1    4    4    0    0 -0.52148869587E+02 -0.45372480520E+02 -0.88418520445E+02  0.11223190877E+03  0.00000000000E+00 0.  1.
         12    1    4    4    0    0  0.31563766953E+02 -0.41795839747E+02 -0.47763409125E+02  0.70883755936E+02  0.00000000000E+00 0. -1.
        -11    1    3    3    0    0 -0.33248928888E+02  0.23541264575E+02 -0.18488776944E+03  0.18932292439E+03  0.00000000000E+00 0.  1.
         11    1    3    3    0    0  0.61553341085E+02  0.19557282623E+02 -0.23377236766E+03  0.24253004141E+03  0.00000000000E+00 0. -1.
         -2    1    1    2    0  502 -0.77193095627E+01  0.44069773069E+02  0.10735887264E+01  0.44753605790E+02  0.00000000000E+00 0.  1.
<scales pt_clust_5="13000.00000" pt_clust_6="13000.00000" pt_clust_7="13000.00000" pt_clust_8="13000.00000" pt_clust_9="44.74073"></scales>
<clustering>
<clus scale="   44.741">  1  9  2 -1</clus>
<clus scale="   83.449">  5  6 -1 -1</clus>
<clus scale="   92.531">  7  8 -1 -1</clus>
<clus scale="  102.256">  1  5  2 -1</clus>
<clus scale="   44.741">  1  5  2 -1</clus>
</clustering>
</event>
<event>
 9    2  0.3764910E-005  0.9495835E+02  0.7546771E-02  0.1300627E+00
         -3   -1    0    0    0  501 -0.00000000000E+00  0.00000000000E+00  0.83427035657E+02  0.83427035657E+02  0.00000000000E+00 0.  1.
         21   -1    0    0  501  502  0.00000000000E+00 -0.00000000000E+00 -0.36520680533E+03  0.36520680533E+03  0.00000000000E+00 0.  1.
         23    2    1    2    0    0 -0.15072403593E+02  0.36329883368E+01  0.39706407776E+02  0.10248233014E+03  0.93196851976E+02 0.  0.
         24    2    1    2    0    0  0.27944574650E+02 -0.38435538969E+02 -0.23517296157E+03  0.25220002574E+03  0.77719632148E+02 0.  0.
        -11    1    4    4    0    0  0.30016556547E+01 -0.58376694447E+02 -0.13653840818E+03  0.14852469592E+03  0.00000000000E+00 0.  1.
         12    1    4    4    0    0  0.24942918995E+02  0.19941155478E+02 -0.98634553390E+02  0.10367532981E+03  0.00000000000E+00 0. -1.
        -11    1    3    3    0    0  0.18789407582E+02 -0.35639176839E+02  0.62487319498E+01  0.40770570440E+02  0.00000000000E+00 0. -1.
         11    1    3    3    0    0 -0.33861811175E+02  0.39272165175E+02  0.33457675827E+02  0.61711759701E+02  0.00000000000E+00 0.  1.
         -4    1    1    2    0  502 -0.12872171056E+02  0.34802550633E+02 -0.86313215881E+02  0.93951485108E+02  0.00000000000E+00 0.  1.
<scales pt_clust_5="13000.00000" pt_clust_6="13000.00000" pt_clust_7="13000.00000" pt_clust_8="13000.00000" pt_clust_9="37.10674"></scales>
<clustering>
<clus scale="   37.107">  2  9  1 -1</clus>
<clus scale="   77.720">  5  6 -1 -1</clus>
<clus scale="   79.823">  2  5  1 -1</clus>
<clus scale="   93.197">  7  8 -1 -1</clus>
<clus scale="   37.107">  2  5  1 -1</clus>
</clustering>
</event>
<event>
 9    2  0.3764910E-005  0.1435368E+03  0.7546771E-02  0.1210933E+00
         21   -1    0    0  501  502  0.00000000000E+00  0.00000000000E+00  0.62729608890E+02  0.62729608890E+02  0.00000000000E+00 0. -1.
          2   -1    0    0  502    0 -0.00000000000E+00 -0.00000000000E+00 -0.55708049995E+03  0.55708049995E+03  0.00000000000E+00 0. -1.
         24    2    1    2    0    0  0.32754746751E+02  0.12227102691E+03 -0.34379980791E+03  0.37524205916E+03  0.81149353592E+02 0.  0.
         23    2    1    2    0    0 -0.58156832811E+02 -0.59996170254E+02 -0.85310854686E+02  0.15086793678E+03  0.92203225397E+02 0.  0.
        -11    1    3    3    0    0  0.58050203771E+02  0.68191931912E+02 -0.18353861895E+03  0.20422142489E+03  0.00000000000E+00 0.  1.
         12    1    3    3    0    0 -0.25295457020E+02  0.54079094993E+02 -0.16026118896E+03  0.17102063428E+03  0.00000000000E+00 0. -1.
        -11    1    4    4    0    0  0.16913630001E+02 -0.26605246400E+02  0.12126942219E+01  0.31549653613E+02  0.00000000000E+00 0.  1.
         11    1    4    4    0    0 -0.75070462812E+02 -0.33390923854E+02 -0.86523548908E+02  0.11931828317E+03  0.00000000000E+00 0. -1.
          1    1    1    2  501    0  0.25402086060E+02 -0.62274856651E+02 -0.65240228463E+02  0.93700112898E+02  0.00000000000E+00 0. -1.
<scales pt_clust_5="13000.00000" pt_clust_6="13000.00000" pt_clust_7="13000.00000" pt_clust_8="13000.00000" pt_clust_9="67.25640"></scales>
<clustering>
<clus scale="   67.256">  1  9  2 -1</clus>
<clus scale="   81.149">  5  6 -1 -1</clus>
<clus scale="   92.203">  7  8 -1 -1</clus>
<clus scale="  136.699">  2  5  1 -1</clus>
<clus scale="   67.256">  1  5  2 -1</clus>
</clustering>
</event>
<event>
 9    2  0.3764910E-005  0.1190289E+03  0.7546771E-02  0.1249281E+00
         21   -1    0    0  501  502  0.00000000000E+00  0.00000000000E+00  0.82824334864E+02  0.82824334864E+02  0.00000000000E+00 0.  1.
          2   -1    0    0  502    0 -0.00000000000E+00 -0.00000000000E+00 -0.26760892853E+03  0.26760892853E+03  0.00000000000E+00 0. -1.
         23    2    1    2    0    0  0.22297522568E+02 -0.49340695804E+02 -0.16964213425E+03  0.20090370075E+03  0.93016984951E+02 0.  0.
         24    2    1    2    0    0 -0.46182057377E+02  0.46463487513E+02 -0.18800133094E+02  0.12519588419E+03  0.10501869509E+03 0.  0.
        -13    1    4    4    0    0  0.49420723953E+01  0.65326447430E+02  0.50597593542E+01  0.65708218498E+02  0.00000000000E+00 0.  1.
         14    1    4    4    0    0 -0.51124129772E+02 -0.18862959917E+02 -0.23859892448E+02  0.59487665691E+02  0.00000000000E+00 0. -1.
        -13    1    3    3    0    0 -0.15836573702E+02  0.14024598056E+02 -0.70758465813E+01  0.22305918993E+02  0.00000000000E+00 0.  1.
         13    1    3    3    0    0  0.38134096270E+02 -0.63365293861E+02 -0.16256628767E+03  0.17859778176E+03  0.00000000000E+00 0. -1.
          1    1    1    2  501    0  0.23884534808E+02  0.28772082911E+01  0.36576736706E+01  0.24333678457E+02  0.00000000000E+00 0. -1.
<scales pt_clust_5="13000.00000" pt_clust_6="13000.00000" pt_clust_7="13000.00000" pt_clust_8="13000.00000" pt_clust_9="24.05721"></scales>
<clustering>
<clus scale="   24.057">  1  9  2 -1</clus>
<clus scale="   93.017">  7  8 -1 -1</clus>
<clus scale="  105.019">  5  6 -1 -1</clus>
<clus scale="  108.587">  2  7  1 -1</clus>
<clus scale="   24.057">  1  5  2 -1</clus>
</clustering>
</event>
<event>
 9    2  0.5903198E-005  0.1093106E+03  0.7546771E-02  0.1269730E+00
         21   -1    0    0  501  502  0.00000000000E+00  0.00000000000E+00  0.50310657695E+02  0.50310657695E+02  0.00000000000E+00 0. -1.
         -3   -1    0    0    0  501 -0.00000000000E+00 -0.00000000000E+00 -0.11336254321E+04  0.11336254321E+04  0.00000000000E+00 0.  1.
         24    2    1    2    0    0  0.13093983688E+02 -0.62318861883E+02 -0.32446863400E+03  0.34040567234E+03  0.80876661377E+02 0.  0.
         23    2    1    2    0    0  0.30613408671E+01 -0.32480269535E+02 -0.29474701463E+02  0.10784667713E+03  0.98477449326E+02 0.  0.
        -11    1    3    3    0    0  0.47088289857E+02 -0.40547773778E+02 -0.21157476452E+03  0.22051147358E+03  0.00000000000E+00 0.  1.
         12    1    3    3    0    0 -0.33994306169E+02 -0.21771088105E+02 -0.11289386948E+03  0.11989419876E+03  0.00000000000E+00 0. -1.
        -13    1    4    4    0    0  0.41426362824E+02  0.56487984429E+01 -0.33545922171E+02  0.53603930406E+02  0.00000000000E+00 0.  1.
         13    1    4    4    0    0 -0.38365021957E+02 -0.38129067978E+02  0.40712207081E+01  0.54242746729E+02  0.00000000000E+00 0. -1.
         -4    1    1    2    0  502 -0.16155324555E+02  0.94799131417E+02 -0.72937143897E+03  0.73568374035E+03  0.00000000000E+00 0.  1.
<scales pt_clust_5="13000.00000" pt_clust_6="13000.00000" pt_clust_7="13000.00000" pt_clust_8="13000.00000" pt_clust_9="96.16589"></scales>
<clustering>
<clus scale="   80.877">  5  6 -1 -1</clus>
<clus scale="   96.166">  1  9  2 -1</clus>
<clus scale="   93.766">  2  5  1 -1</clus>
<clus scale="   98.477">  7  8 -1 -1</clus>
<clus scale="   96.166">  1  5  2 -1</clus>
</clustering>
</event>
<event>
 9    2  0.8755264E-005  0.1024640E+03  0.7546771E-02  0.1279058E+00
         21   -1    0    0  501  502  0.00000000000E+00  0.00000000000E+00  0.25203449243E+03  0.25203449243E+03  0.00000000000E+00 0. -1.
          2   -1    0    0  502    0 -0.00000000000E+00 -0.00000000000E+00 -0.43845505263E+03  0.43845505263E+03  0.00000000000E+00 0. -1.
         24    2    1    2    0    0  0.21378720723E+02  0.41638740318E+02 -0.40994961132E+03  0.42092889751E+03  0.83256342366E+02 0.  0.
         23    2    1    2    0    0 -0.43064780221E+02 -0.17815597645E+01  0.18114764171E+03  0.20747148681E+03  0.91499729476E+02 0.  0.
        -13    1    3    3    0    0  0.31834382181E+02 -0.41825355428E+01 -0.62011508096E+02  0.69830857282E+02  0.00000000000E+00 0.  1.
         14    1    3    3    0    0 -0.10455661459E+02  0.45821275861E+02 -0.34793810322E+03  0.35109804023E+03  0.00000000000E+00 0. -1.
        -13    1    4    4    0    0  0.21088850162E+02 -0.24849359334E+02  0.67198315165E+02  0.74684963825E+02  0.00000000000E+00 0.  1.
         13    1    4    4    0    0 -0.64153630383E+02  0.23067799570E+02  0.11394932654E+03  0.13278652299E+03  0.00000000000E+00 0. -1.
          1    1    1    2  501    0  0.21686059499E+02 -0.39857180553E+02  0.42381409403E+02  0.62089160738E+02  0.00000000000E+00 0. -1.
<scales pt_clust_5="13000.00000" pt_clust_6="13000.00000" pt_clust_7="13000.00000" pt_clust_8="13000.00000" pt_clust_9="45.37488"></scales>
<clustering>
<clus scale="   45.375">  1  9  2 -1</clus>
<clus scale="   83.256">  5  6 -1 -1</clus>
<clus scale="   91.500">  7  8 -1 -1</clus>
<clus scale="   95.175">  2  5  1 -1</clus>
<clus scale="   45.375">  1  5  2 -1</clus>
</clustering>
</event>
<event>
 9    2  0.3764910E-005  0.1252174E+03  0.7546771E-02  0.1236790E+00
         21   -1    0    0  501  502  0.00000000000E+00  0.00000000000E+00  0.65706365700E+02  0.65706365700E+02  0.00000000000E+00 0. -1.
          2   -1    0    0  502    0 -0.00000000000E+00 -0.00000000000E+00 -0.99394526202E+03  0.99394526202E+03  0.00000000000E+00 0. -1.
         24    2    1    2    0    0  0.70450720744E+02  0.53771497088E+02 -0.26064699146E+03  0.29236135590E+03  0.98405438439E+02 0.  0.
         23    2    1    2    0    0  0.77778138146E+01 -0.72294446413E+02 -0.25015271869E+02  0.11970434506E+03  0.91740858017E+02 0.  0.
        -11    1    3    3    0    0  0.50277363750E+02 -0.12662440143E+01 -0.40585925239E+02  0.64626883006E+02  0.00000000000E+00 0.  1.
         12    1    3    3    0    0  0.20173356993E+02  0.55037741102E+02 -0.22006106622E+03  0.22773447289E+03  0.00000000000E+00 0. -1.
        -13    1    4    4    0    0  0.35427656887E+02 -0.36635009535E+02 -0.47163946194E+02  0.69438322393E+02  0.00000000000E+00 0.  1.
         13    1    4    4    0    0 -0.27649843073E+02 -0.35659436878E+02  0.22148674325E+02  0.50266022667E+02  0.00000000000E+00 0. -1.
          1    1    1    2  501    0 -0.78228534558E+02  0.18522949325E+02 -0.64257663299E+03  0.64758592676E+03  0.00000000000E+00 0. -1.
<scales pt_clust_5="13000.00000" pt_clust_6="13000.00000" pt_clust_7="13000.00000" pt_clust_8="13000.00000" pt_clust_9="80.39160"></scales>
<clustering>
<clus scale="   80.392">  1  9  2 -1</clus>
<clus scale="   91.741">  7  8 -1 -1</clus>
<clus scale="   98.405">  5  6 -1 -1</clus>
<clus scale="  120.051">  1  7  2 -1</clus>
<clus scale="   80.392">  1  5  2 -1</clus>
</clustering>
</event>
<event>
 9    2  0.3764910E-005  0.1848791E+03  0.7546771E-02  0.1174169E+00
          2   -1    0    0  502    0 -0.00000000000E+00  0.00000000000E+00  0.64004508051E+03  0.64004508051E+03  0.00000000000E+00 0. -1.
         21   -1    0    0  501  502  0.00000000000E+00 -0.00000000000E+00 -0.20386482242E+03  0.20386482242E+03  0.00000000000E+00 0.  1.
         24    2    1    2    0    0 -0.19627701998E+02 -0.11732133659E+03 -0.76108700369E+02  0.16256248170E+03  0.80526290617E+02 0.  0.
         23    2    1    2    0    0  0.10183231788E+01 -0.13529686530E+03  0.82291320877E+02  0.18228807282E+03  0.90281788069E+02 0.  0.
        -13    1    3    3    0    0 -0.50616583941E+02 -0.84278906605E+02 -0.50435407875E+02  0.11049299994E+03  0.00000000000E+00 0.  1.
         14    1    3    3    0    0  0.30988881944E+02 -0.33042429983E+02 -0.25673292493E+02  0.52069481760E+02  0.00000000000E+00 0. -1.
        -11    1    4    4    0    0 -0.25397450833E+02 -0.72984113257E+01  0.33760560259E+02  0.42872750620E+02  0.00000000000E+00 0. -1.
         11    1    4    4    0    0  0.26415774012E+02 -0.12799845398E+03  0.48530760618E+02  0.13941532220E+03  0.00000000000E+00 0.  1.
          1    1    1    2  501    0  0.18609378819E+02  0.25261820189E+03  0.42999763758E+03  0.49905934840E+03  0.00000000000E+00 0. -1.
<scales pt_clust_5="13000.00000" pt_clust_6="13000.00000" pt_clust_7="13000.00000" pt_clust_8="13000.00000" pt_clust_9="161.33661"></scales>
<clustering>
<clus scale="   80.526">  5  6 -1 -1</clus>
<clus scale="   90.282">  7  8 -1 -1</clus>
<clus scale="  143.646">  1  5  2 -1</clus>
<clus scale="  161.337">  2  9  1 -1</clus>
<clus scale="  161.337">  2  5  1 -1</clus>
</clustering>
</event>
<event>
 9    2  0.3764910E-005  0.1265634E+03  0.7546771E-02  0.1237008E+00
         21   -1    0    0  501  502  0.00000000000E+00  0.00000000000E+00  0.95194052149E+02  0.95194052149E+02  0.00000000000E+00 0. -1.
         -1   -1    0    0    0  501 -0.00000000000E+00 -0.00000000000E+00 -0.23334810532E+03  0.23334810532E+03  0.00000000000E+00 0.  1.
         24    2    1    2    0    0  0.86609475814E+02  0.35891243979E+02 -0.10529882549E+03  0.16104806317E+03  0.77841205701E+02 0.  0.
         23    2    1    2    0    0 -0.66192454197E+02 -0.35583811208E+02 -0.59703676924E+02  0.13376297346E+03  0.93168425011E+02 0.  0.
        -13    1    3    3    0    0  0.78283828552E+02  0.25829187004E+02 -0.11726115228E+03  0.14333765224E+03  0.00000000000E+00 0.  1.
         14    1    3    3    0    0  0.83256472620E+01  0.10062056975E+02  0.11962326795E+02  0.17710410928E+02  0.00000000000E+00 0. -1.
        -13    1    4    4    0    0  0.47764697173E+01 -0.32256432431E+02  0.10126261793E+02  0.34144300755E+02  0.00000000000E+00 0. -1.
         13    1    4    4    0    0 -0.70968923914E+02 -0.33273787776E+01 -0.69829938718E+02  0.99618672709E+02  0.00000000000E+00 0.  1.
         -2    1    1    2    0  502 -0.20417021617E+02 -0.30743277053E+00  0.26848449240E+02  0.33731120841E+02  0.00000000000E+00 0.  1.
<scales pt_clust_5="13000.00000" pt_clust_6="13000.00000" pt_clust_7="13000.00000" pt_clust_8="13000.00000" pt_clust_9="20.41934"></scales>
<clustering>
<clus scale="   20.419">  1  9  2 -1</clus>
<clus scale="   77.841">  5  6 -1 -1</clus>
<clus scale="   93.168">  7  8 -1 -1</clus>
<clus scale="  115.746">  2  5  1 -1</clus>
<clus scale="   20.419">  1  5  2 -1</clus>
</clustering>
</event>
<event>
 9    2  0.3764910E-005  0.9775380E+02  0.7546771E-02  0.1292940E+00
         21   -1    0    0  501  502  0.00000000000E+00  0.00000000000E+00  0.93903074803E+02  0.93903074803E+02  0.00000000000E+00 0. -1.
          2   -1    0    0  502    0 -0.00000000000E+00 -0.00000000000E+00 -0.89488371348E+03  0.89488371348E+03  0.00000000000E+00 0. -1.
         24    2    1    2    0    0 -0.18089232107E+02  0.17684764535E+02 -0.56453100264E+03  0.57078048462E+03  0.80343870124E+02 0.  0.
         23    2    1    2    0    0  0.43064809702E+02  0.21348314708E+02 -0.31195125731E+03  0.32941818050E+03  0.94299641174E+02 0.  0.
        -11    1    3    3    0    0 -0.23869161890E+02  0.85752399440E+01 -0.49345001746E+02  0.55481535908E+02  0.00000000000E+00 0.  1.
         12    1    3    3    0    0  0.57799297822E+01  0.91095245912E+01 -0.51518600089E+03  0.51529894871E+03  0.00000000000E+00 0. -1.
        -11    1    4    4    0    0  0.51377169534E+02 -0.16055870580E+02 -0.95706816463E+02  0.10980527878E+03  0.00000000000E+00 0.  1.
         11    1    4    4    0    0 -0.83123598312E+01  0.37404185289E+02 -0.21624444085E+03  0.21961290172E+03  0.00000000000E+00 0. -1.
          1    1    1    2  501    0 -0.24975577595E+02 -0.39033079244E+02  0.75501621275E+02  0.88588123169E+02  0.00000000000E+00 0. -1.
<scales pt_clust_5="13000.00000" pt_clust_6="13000.00000" pt_clust_7="13000.00000" pt_clust_8="13000.00000" pt_clust_9="46.33962"></scales>
<clustering>
<clus scale="   46.340">  1  9  2 -1</clus>
<clus scale="   80.344">  5  6 -1 -1</clus>
<clus scale="   84.371">  2  5  1 -1</clus>
<clus scale="   94.300">  7  8 -1 -1</clus>
<clus scale="   46.340">  1  5  2 -1</clus>
</clustering>
</event>
<event>
 9    2  0.3764910E-005  0.1474773E+03  0.7546771E-02  0.1203986E+00
          2   -1    0    0  502    0 -0.00000000000E+00  0.00000000000E+00  0.41808938048E+03  0.41808938048E+03  0.00000000000E+00 0. -1.
         21   -1    0    0  501  502  0.00000000000E+00 -0.00000000000E+00 -0.10571949709E+03  0.10571949709E+03  0.00000000000E+00 0. -1.
         24    2    1    2    0    0  0.60471201479E+02  0.11359242242E+03  0.22655372185E+03  0.27442995385E+03  0.86169635281E+02 0.  0.
         23    2    1    2    0    0 -0.91391569740E+02 -0.47044342010E+02 -0.13408443905E+01  0.13544446949E+03  0.88191934539E+02 0.  0.
        -13    1    3    3    0    0 -0.75612320562E+01  0.75349471065E+02  0.95276848533E+02  0.12170617440E+03  0.00000000000E+00 0.  1.
         14    1    3    3    0    0  0.68032433536E+02  0.38242951350E+02  0.13127687332E+03  0.15272377945E+03  0.00000000000E+00 0. -1.
        -11    1    4    4    0    0 -0.85700120756E+01 -0.20882353998E+02 -0.35536927107E+02  0.42099774390E+02  0.00000000000E+00 0.  1.
         11    1    4    4    0    0 -0.82821557665E+02 -0.26161988013E+02  0.34196082716E+02  0.93344695103E+02  0.00000000000E+00 0. -1.
          1    1    1    2  501    0  0.30920368261E+02 -0.66548080405E+02  0.87157005927E+02  0.11393445423E+03  0.00000000000E+00 0. -1.
<scales pt_clust_5="13000.00000" pt_clust_6="13000.00000" pt_clust_7="13000.00000" pt_clust_8="13000.00000" pt_clust_9="73.38066"></scales>
<clustering>
<clus scale="   73.381">  2  9  1 -1</clus>
<clus scale="   86.170">  5  6 -1 -1</clus>
<clus scale="   88.192">  7  8 -1 -1</clus>
<clus scale="  146.277">  1  5  2 -1</clus>
<clus scale="   73.381">  2  5  1 -1</clus>
</clustering>
</event>
<event>
 9    2  0.3764910E-005  0.1312765E+03  0.7546771E-02  0.1228503E+00
         21   -1    0    0  501  502  0.00000000000E+00  0.00000000000E+00  0.22346907818E+03  0.22346907818E+03  0.00000000000E+00 0.  1.
         -3   -1    0    0    0  501 -0.00000000000E+00 -0.00000000000E+00 -0.17276627388E+03  0.17276627388E+03  0.00000000000E+00 0.  1.
         23    2    1    2    0    0  0.42044666838E+02 -0.75993966080E+02 -0.87927896725E+02  0.15350350761E+03  0.91044906145E+02 0.  0.
         24    2    1    2    0    0 -0.83263522677E+02  0.95580933392E+02  0.84130096312E+02  0.17164767407E+03  0.79476549188E+02 0.  0.
        -11    1    4    4    0    0 -0.96511448665E+02  0.65459038275E+02  0.63069253527E+02  0.13257856597E+03  0.00000000000E+00 0.  1.
         12    1    4    4    0    0  0.13247925988E+02  0.30121895117E+02  0.21060842785E+02  0.39069108094E+02  0.00000000000E+00 0. -1.
        -13    1    3    3    0    0  0.55686462960E+02 -0.29031272819E+02 -0.13162066957E+02  0.64164140804E+02  0.00000000000E+00 0. -1.
         13    1    3    3    0    0 -0.13641796122E+02 -0.46962693262E+02 -0.74765829769E+02  0.89339366803E+02  0.00000000000E+00 0.  1.
         -4    1    1    2    0  502  0.41218855839E+02 -0.19586967312E+02  0.54500604714E+02  0.71084170385E+02  0.00000000000E+00 0.  1.
<scales pt_clust_5="13000.00000" pt_clust_6="13000.00000" pt_clust_7="13000.00000" pt_clust_8="13000.00000" pt_clust_9="45.63599"></scales>
<clustering>
<clus scale="   45.636">  1  9  2 -1</clus>
<clus scale="   79.477">  5  6 -1 -1</clus>
<clus scale="   91.045">  7  8 -1 -1</clus>
<clus scale="  123.535">  1  5  2 -1</clus>
<clus scale="   45.636">  1  5  2 -1</clus>
</clustering>
</event>
<event>
 9    2  0.3764910E-005  0.1017401E+03  0.7546771E-02  0.1281602E+00
         21   -1    0    0  501  502  0.00000000000E+00  0.00000000000E+00  0.15647122636E+03  0.15647122636E+03  0.00000000000E+00 0. -1.
         -3   -1    0    0    0  501 -0.00000000000E+00 -0.00000000000E+00 -0.16544469854E+03  0.16544469854E+03  0.00000000000E+00 0.  1.
         23    2    1    2    0    0 -0.38214821870E+02  0.17673408406E+02 -0.11621777798E+03  0.15342436462E+03  0.90883121455E+02 0.  0.
         24    2    1    2    0    0  0.58164584584E+02 -0.32685174385E+02  0.81207509065E+02  0.13241856576E+03  0.80551707023E+02 0.  0.
        -13    1    4    4    0    0  0.43057191220E+02  0.35473202190E+01  0.11085660031E+01  0.43217289539E+02  0.00000000000E+00 0.  1.
         14    1    4    4    0    0  0.15107393364E+02 -0.36232494604E+02  0.80098943062E+02  0.89201276219E+02  0.00000000000E+00 0. -1.
        -11    1    3    3    0    0  0.70330984533E+01  0.28278318032E+02 -0.96660982719E+00  0.29155824103E+02  0.00000000000E+00 0. -1.
         11    1    3    3    0    0 -0.45247920323E+02 -0.10604909626E+02 -0.11525116815E+03  0.12426854052E+03  0.00000000000E+00 0.  1.
         -4    1    1    2    0  502 -0.19949762714E+02  0.15011765979E+02  0.26036796731E+02  0.36072994527E+02  0.00000000000E+00 0.  1.
<scales pt_clust_5="13000.00000" pt_clust_6="13000.00000" pt_clust_7="13000.00000" pt_clust_8="13000.00000" pt_clust_9="24.96690"></scales>
<clustering>
<clus scale="   24.967">  1  9  2 -1</clus>
<clus scale="   80.552">  5  6 -1 -1</clus>
<clus scale="   90.883">  7  8 -1 -1</clus>
<clus scale="   92.628">  1  5  2 -1</clus>
<clus scale="   24.967">  1  5  2 -1</clus>
</clustering>
</event>
<event>
 9    2  0.3764910E-005  0.9076757E+02  0.7546771E-02  0.1305539E+00
         21   -1    0    0  501  502  0.00000000000E+00  0.00000000000E+00  0.90811574561E+02  0.90811574561E+02  0.00000000000E+00 0. -1.
          2   -1    0    0  502    0 -0.00000000000E+00 -0.00000000000E+00 -0.60799558460E+03  0.60799558460E+03  0.00000000000E+00 0. -1.
         24    2    1    2    0    0 -0.16317409530E+02 -0.36994097847E+01 -0.44810495903E+03  0.45588652427E+03  0.82185918616E+02 0.  0.
         23    2    1    2    0    0  0.78432000077E+01 -0.29116320964E+02 -0.13734537272E+03  0.16670400224E+03  0.89538801778E+02 0.  0.
        -13    1    3    3    0    0 -0.49084340428E+01 -0.40164970137E+02 -0.15072420110E+03  0.15606121346E+03  0.00000000000E+00 0.  1.
         14    1    3    3    0    0 -0.11408975487E+02  0.36465560352E+02 -0.29738075793E+03  0.29982531081E+03  0.00000000000E+00 0. -1.
        -11    1    4    4    0    0  0.46087412497E+02 -0.31985690078E+02 -0.83596450471E+02  0.10067522283E+03  0.00000000000E+00 0.  1.
         11    1    4    4    0    0 -0.38244212490E+02  0.28693691141E+01 -0.53748922249E+02  0.66028779415E+02  0.00000000000E+00 0. -1.
          1    1    1    2  501    0  0.84742095222E+01  0.32815730749E+02  0.68266321711E+02  0.76216632644E+02  0.00000000000E+00 0. -1.
<scales pt_clust_5="13000.00000" pt_clust_6="13000.00000" pt_clust_7="13000.00000" pt_clust_8="13000.00000" pt_clust_9="33.89225"></scales>
<clustering>
<clus scale="   33.892">  1  9  2 -1</clus>
<clus scale="   82.186">  5  6 -1 -1</clus>
<clus scale="   83.523">  2  5  1 -1</clus>
<clus scale="   89.539">  7  8 -1 -1</clus>
<clus scale="   33.892">  1  5  2 -1</clus>
</clustering>
</event>
<event>
 9    2  0.3764910E-005  0.1012576E+03  0.7546771E-02  0.1283387E+00
         21   -1    0    0  501  502  0.00000000000E+00  0.00000000000E+00  0.77086356233E+02  0.77086356233E+02  0.00000000000E+00 0. -1.
         -1   -1    0    0    0  501 -0.00000000000E+00 -0.00000000000E+00 -0.37994877872E+03  0.37994877872E+03  0.00000000000E+00 0.  1.
         23    2    1    2    0    0 -0.19890601355E+02  0.44290712697E+02 -0.20320451641E+03  0.22813574872E+03  0.91632642111E+02 0.  0.
         24    2    1    2    0    0  0.15707549915E+02 -0.99519795718E+01  0.35457095532E+02  0.89426413328E+02  0.79963171243E+02 0.  0.
        -13    1    4    4    0    0  0.63783304740E+01  0.33171336650E+02  0.16085906757E+01  0.33817277222E+02  0.00000000000E+00 0.  1.
         14    1    4    4    0    0  0.93292194411E+01 -0.43123316222E+02  0.33848504857E+02  0.55609136105E+02  0.00000000000E+00 0. -1.
        -11    1    3    3    0    0 -0.30372532601E+02 -0.78169322696E+01 -0.14882981102E+03  0.15209834915E+03  0.00000000000E+00 0. -1.
         11    1    3    3    0    0  0.10481931246E+02  0.52107644967E+02 -0.54374705397E+02  0.76037399572E+02  0.00000000000E+00 0.  1.
         -2    1    1    2    0  502  0.41830514402E+01 -0.34338733125E+02 -0.13511500161E+03  0.13947297291E+03  0.00000000000E+00 0.  1.
<scales pt_clust_5="13000.00000" pt_clust_6="13000.00000" pt_clust_7="13000.00000" pt_clust_8="13000.00000" pt_clust_9="34.59260"></scales>
<clustering>
<clus scale="   34.593">  1  9  2 -1</clus>
<clus scale="   79.963">  5  6 -1 -1</clus>
<clus scale="   90.833">  1  5  2 -1</clus>
<clus scale="   91.633">  7  8 -1 -1</clus>
<clus scale="   34.593">  1  5  2 -1</clus>
</clustering>
</event>
<event>
 9    2  0.3764910E-005  0.9904633E+02  0.7546771E-02  0.1282506E+00
         21   -1    0    0  501  502  0.00000000000E+00  0.00000000000E+00  0.12512569950E+03  0.12512569950E+03  0.00000000000E+00 0. -1.
          2   -1    0    0  502    0 -0.00000000000E+00 -0.00000000000E+00 -0.35234821268E+03  0.35234821268E+03  0.00000000000E+00 0. -1.
         24    2    1    2    0    0  0.33815155851E+02 -0.50523974458E+02 -0.25449679892E+03  0.27602823332E+03  0.87902378611E+02 0.  0.
         23    2    1    2    0    0 -0.15232291882E+02  0.22319200388E+01 -0.54828091915E+02  0.10439803195E+03  0.87497572706E+02 0.  0.
        -13    1    3    3    0    0  0.55518374931E+02 -0.70098450851E+01 -0.10742428168E+03  0.12112557194E+03  0.00000000000E+00 0.  1.
         14    1    3    3    0    0 -0.21703219081E+02 -0.43514129373E+02 -0.14707251724E+03  0.15490266138E+03  0.00000000000E+00 0. -1.
        -13    1    4    4    0    0  0.27608994795E+02 -0.25681317179E+02 -0.22877451734E+02  0.44104018451E+02  0.00000000000E+00 0. -1.
         13    1    4    4    0    0 -0.42841286677E+02  0.27913237218E+02 -0.31950640181E+02  0.60294013502E+02  0.00000000000E+00 0.  1.
          1    1    1    2  501    0 -0.18582863969E+02  0.48292054420E+02  0.82102377664E+02  0.97047646913E+02  0.00000000000E+00 0. -1.
<scales pt_clust_5="13000.00000" pt_clust_6="13000.00000" pt_clust_7="13000.00000" pt_clust_8="13000.00000" pt_clust_9="51.74404"></scales>
<clustering>
<clus scale="   51.744">  1  9  2 -1</clus>
<clus scale="   87.498">  7  8 -1 -1</clus>
<clus scale="   87.902">  5  6 -1 -1</clus>
<clus scale="   98.687">  1  7  2 -1</clus>
<clus scale="   51.744">  1  5  2 -1</clus>
</clustering>
</event>
<event>
 9    2  0.3764910E-005  0.1090971E+03  0.7546771E-02  0.1267327E+00
         21   -1    0    0  501  502  0.00000000000E+00  0.00000000000E+00  0.75804658187E+02  0.75804658187E+02  0.00000000000E+00 0. -1.
          2   -1    0    0  502    0 -0.00000000000E+00 -0.00000000000E+00 -0.37207258815E+03  0.37207258815E+03  0.00000000000E+00 0. -1.
         23    2    1    2    0    0 -0.12126815844E+02  0.46088604189E+02 -0.20201494534E+03  0.22758021972E+03  0.93335412200E+02 0.  0.
         24    2    1    2    0    0  0.23917864050E+02 -0.65114706437E+02 -0.13603875240E+03  0.17289373799E+03  0.81078438977E+02 0.  0.
        -11    1    4    4    0    0  0.26816629028E+02 -0.52158952703E+02 -0.29719950017E+02  0.65749246145E+02  0.00000000000E+00 0.  1.
         12    1    4    4    0    0 -0.28987649777E+01 -0.12955753734E+02 -0.10631880238E+03  0.10714449185E+03  0.00000000000E+00 0. -1.
        -13    1    3    3    0    0  0.18842422943E+02  0.56975989545E+02 -0.17520115439E+03  0.18519380331E+03  0.00000000000E+00 0. -1.
         13    1    3    3    0    0 -0.30969238787E+02 -0.10887385356E+02 -0.26813790953E+02  0.42386416412E+02  0.00000000000E+00 0.  1.
          1    1    1    2  501    0 -0.11791048206E+02  0.19026102248E+02  0.41785767770E+02  0.47403288627E+02  0.00000000000E+00 0. -1.
<scales pt_clust_5="13000.00000" pt_clust_6="13000.00000" pt_clust_7="13000.00000" pt_clust_8="13000.00000" pt_clust_9="22.38351"></scales>
<clustering>
<clus scale="   22.384">  1  9  2 -1</clus>
<clus scale="   81.078">  5  6 -1 -1</clus>
<clus scale="   93.335">  7  8 -1 -1</clus>
<clus scale="   98.815">  1  5  2 -1</clus>
<clus scale="   22.384">  1  5  2 -1</clus>
</clustering>
</event>
<event>
 9    2  0.3764910E-005  0.1281928E+03  0.7546771E-02  0.1233519E+00
         -3   -1    0    0    0  501 -0.00000000000E+00  0.00000000000E+00  0.18661727324E+03  0.18661727324E+03  0.00000000000E+00 0.  1.
         21   -1    0    0  501  502  0.00000000000E+00 -0.00000000000E+00 -0.14062324846E+03  0.14062324846E+03  0.00000000000E+00 0. -1.
         23    2    1    2    0    0  0.14257304179E+02 -0.83400662436E+02  0.93991281265E+02  0.15623991334E+03  0.91747525036E+02 0.  0.
         24    2    1    2    0    0 -0.21938373183E+01  0.10617088607E+03 -0.56161659194E+02  0.14396974102E+03  0.79347869515E+02 0.  0.
        -13    1    4    4    0    0  0.21229737141E+02  0.46864705973E+01  0.61583133382E+01  0.22596229086E+02  0.00000000000E+00 0.  1.
         14    1    4    4    0    0 -0.23423574459E+02  0.10148441547E+03 -0.62319972532E+02  0.12137351194E+03  0.00000000000E+00 0. -1.
        -11    1    3    3    0    0 -0.17457546037E+02 -0.79109873769E+02  0.33226103969E+02  0.87562046723E+02  0.00000000000E+00 0.  1.
         11    1    3    3    0    0  0.31714850216E+02 -0.42907886669E+01  0.60765177296E+02  0.68677866620E+02  0.00000000000E+00 0. -1.
         -4    1    1    2    0  502 -0.12063466861E+02 -0.22770223631E+02  0.81644027080E+01  0.27030867327E+02  0.00000000000E+00 0.  1.
<scales pt_clust_5="13000.00000" pt_clust_6="13000.00000" pt_clust_7="13000.00000" pt_clust_8="13000.00000" pt_clust_9="25.76841"></scales>
<clustering>
<clus scale="   25.768">  2  9  1 -1</clus>
<clus scale="   79.348">  5  6 -1 -1</clus>
<clus scale="   91.748">  7  8 -1 -1</clus>
<clus scale="  119.632">  2  5  1 -1</clus>
<clus scale="   25.768">  2  5  1 -1</clus>
</clustering>
</event>
<event>
 9    2  0.3764910E-005  0.1056175E+03  0.7546771E-02  0.1273319E+00
         -1   -1    0    0    0  501 -0.00000000000E+00  0.00000000000E+00  0.63502301890E+03  0.63502301890E+03  0.00000000000E+00 0.  1.
         21   -1    0    0  501  502  0.00000000000E+00 -0.00000000000E+00 -0.17538230732E+03  0.17538230732E+03  0.00000000000E+00 0.  1.
         23    2    1    2    0    0 -0.55081031030E+02  0.57171214006E+02  0.43282849492E+03  0.44932864076E+03  0.90847419907E+02 0.  0.
         24    2    1    2    0    0  0.36078333667E+02  0.13257139906E+02  0.17467325325E+03  0.19620054504E+03  0.80662944124E+02 0.  0.
        -11    1    4    4    0    0  0.28185003972E+01  0.32030983823E+02  0.22342767128E+02  0.39155167119E+02  0.00000000000E+00 0.  1.
         12    1    4    4    0    0  0.33259833270E+02 -0.18773843918E+02  0.15233048612E+03  0.15704537792E+03  0.00000000000E+00 0. -1.
        -11    1    3    3    0    0 -0.40153725736E+02 -0.75441866662E+01  0.75166072013E+02  0.85552176038E+02  0.00000000000E+00 0. -1.
         11    1    3    3    0    0 -0.14927305295E+02  0.64715400672E+02  0.35766242290E+03  0.36377646472E+03  0.00000000000E+00 0.  1.
         -2    1    1    2    0  502  0.19002697363E+02 -0.70428353912E+02 -0.14786103658E+03  0.16487614042E+03  0.00000000000E+00 0.  1.
<scales pt_clust_5="13000.00000" pt_clust_6="13000.00000" pt_clust_7="13000.00000" pt_clust_8="13000.00000" pt_clust_9="72.94694"></scales>
<clustering>
<clus scale="   72.947">  2  9  1 -1</clus>
<clus scale="   80.663">  5  6 -1 -1</clus>
<clus scale="   90.847">  7  8 -1 -1</clus>
<clus scale="   96.996">  2  5  1 -1</clus>
<clus scale="   72.947">  2  5  1 -1</clus>
</clustering>
</event>
<event>
 9    2  0.3764910E-005  0.9450480E+02  0.7546771E-02  0.1293494E+00
         -3   -1    0    0    0  501 -0.00000000000E+00  0.00000000000E+00  0.55755171490E+03  0.55755171490E+03  0.00000000000E+00 0.  1.
         21   -1    0    0  501  502  0.00000000000E+00 -0.00000000000E+00 -0.34197652719E+02  0.34197652719E+02  0.00000000000E+00 0.  1.
         23    2    1    2    0    0  0.17702506072E+02  0.30259811281E+00  0.30007644482E+03  0.31435958726E+03  0.91992429458E+02 0.  0.
         24    2    1    2    0    0 -0.16400908073E+02  0.32027818747E+02  0.22505615153E+03  0.24498433027E+03  0.89845866766E+02 0.  0.
        -13    1    4    4    0    0  0.33040616854E+02  0.28291956410E+02  0.72234478799E+02  0.84320442877E+02  0.00000000000E+00 0.  1.
         14    1    4    4    0    0 -0.49441524927E+02  0.37358623372E+01  0.15282167274E+03  0.16066388739E+03  0.00000000000E+00 0. -1.
        -13    1    3    3    0    0  0.25018786751E+02  0.34010368608E+02  0.25008099701E+03  0.25362008976E+03  0.00000000000E+00 0.  1.
         13    1    3    3    0    0 -0.73162806789E+01 -0.33707770495E+02  0.49995447810E+02  0.60739497499E+02  0.00000000000E+00 0. -1.
         -4    1    1    2    0  502 -0.13015979987E+01 -0.32330416860E+02 -0.17785341754E+01  0.32405450089E+02  0.00000000000E+00 0.  1.
<scales pt_clust_5="13000.00000" pt_clust_6="13000.00000" pt_clust_7="13000.00000" pt_clust_8="13000.00000" pt_clust_9="32.35661"></scales>
<clustering>
<clus scale="   32.357">  2  9  1 -1</clus>
<clus scale="   89.846">  5  6 -1 -1</clus>
<clus scale="   91.992">  7  8 -1 -1</clus>
<clus scale="   92.417">  2  5  1 -1</clus>
<clus scale="   32.357">  2  5  1 -1</clus>
</clustering>
</event>
<event>
 9    2  0.3764910E-005  0.9631527E+02  0.7546771E-02  0.1294330E+00
         21   -1    0    0  501  502  0.00000000000E+00  0.00000000000E+00  0.60413484367E+02  0.60413484367E+02  0.00000000000E+00 0.  1.
          2   -1    0    0  502    0 -0.00000000000E+00 -0.00000000000E+00 -0.28200117682E+03  0.28200117682E+03  0.00000000000E+00 0. -1.
         24    2    1    2    0    0  0.23297667839E+02  0.48115859426E+01 -0.18748779946E+03  0.20588849292E+03  0.81685150940E+02 0.  0.
         23    2    1    2    0    0 -0.39078298404E+02 -0.17789601450E+02 -0.65320176873E+01  0.10221225074E+03  0.92526178022E+02 0.  0.
        -13    1    3    3    0    0 -0.81546167778E+01  0.38215716132E+02 -0.91739160572E+02  0.99714654473E+02  0.00000000000E+00 0.  1.
         14    1    3    3    0    0  0.31452284617E+02 -0.33404130190E+02 -0.95748638889E+02  0.10617383845E+03  0.00000000000E+00 0. -1.
        -11    1    4    4    0    0 -0.57322489881E+02  0.72772694062E+01  0.20265115213E+02  0.61233172307E+02  0.00000000000E+00 0.  1.
         11    1    4    4    0    0  0.18244191477E+02 -0.25066870857E+02 -0.26797132901E+02  0.40979078429E+02  0.00000000000E+00 0. -1.
          1    1    1    2  501    0  0.15780630565E+02  0.12978015508E+02 -0.27567875300E+02  0.34313917528E+02  0.00000000000E+00 0. -1.
<scales pt_clust_5="13000.00000" pt_clust_6="13000.00000" pt_clust_7="13000.00000" pt_clust_8="13000.00000" pt_clust_9="20.43178"></scales>
<clustering>
<clus scale="   20.432">  1  9  2 -1</clus>
<clus scale="   81.685">  5  6 -1 -1</clus>
<clus scale="   85.953">  2  5  1 -1</clus>
<clus scale="   92.526">  7  8 -1 -1</clus>
<clus scale="   20.432">  1  5  2 -1</clus>
</clustering>
</event>
<event>
 9    2  0.3764910E-005  0.1011383E+03  0.7546771E-02  0.1285176E+00
         21   -1    0    0  501  502  0.00000000000E+00  0.00000000000E+00  0.48015156323E+02  0.48015156323E+02  0.00000000000E+00 0.  1.
          2   -1    0    0  502    0 -0.00000000000E+00 -0.00000000000E+00 -0.76851164310E+03  0.76851164310E+03  0.00000000000E+00 0. -1.
         24    2    1    2    0    0  0.44341993702E+02 -0.30380594133E+02 -0.15715455010E+03  0.18295353088E+03  0.76715376142E+02 0.  0.
         23    2    1    2    0    0 -0.37881670170E+02 -0.45675739800E+02 -0.59803226820E+02  0.12428206105E+03  0.91369090068E+02 0.  0.
        -13    1    3    3    0    0 -0.22529750317E+00  0.21499480879E+02 -0.18566464492E+02  0.28407605333E+02  0.00000000000E+00 0.  1.
         14    1    3    3    0    0  0.44567291205E+02 -0.51880075012E+02 -0.13858808561E+03  0.15454592554E+03  0.00000000000E+00 0. -1.
        -11    1    4    4    0    0  0.27933785108E+02 -0.86198451331E+01 -0.33122223964E+02  0.44177820237E+02  0.00000000000E+00 0. -1.
         11    1    4    4    0    0 -0.65815455278E+02 -0.37055894667E+02 -0.26681002856E+02  0.80104240814E+02  0.00000000000E+00 0.  1.
          1    1    1    2  501    0 -0.64603235324E+01  0.76056333933E+02 -0.50353870985E+03  0.50929120749E+03  0.00000000000E+00 0. -1.
<scales pt_clust_5="13000.00000" pt_clust_6="13000.00000" pt_clust_7="13000.00000" pt_clust_8="13000.00000" pt_clust_9="76.33025"></scales>
<clustering>
<clus scale="   76.330">  1  9  2 -1</clus>
<clus scale="   76.715">  5  6 -1 -1</clus>
<clus scale="   88.124">  2  5  1 -1</clus>
<clus scale="   91.369">  7  8 -1 -1</clus>
<clus scale="   76.330">  1  5  2 -1</clus>
</clustering>
</event>
<event>
 9    2  0.3764910E-005  0.9266789E+02  0.7546771E-02  0.1305465E+00
         -3   -1    0    0    0  501 -0.00000000000E+00  0.00000000000E+00  0.28975333929E+03  0.28975333929E+03  0.00000000000E+00 0.  1.
         21   -1    0    0  501  502  0.00000000000E+00 -0.00000000000E+00 -0.89309218287E+02  0.89309218287E+02  0.00000000000E+00 0.  1.
         23    2    1    2    0    0  0.21744201377E+01 -0.16719226044E+01  0.20743069302E+03  0.22703791730E+03  0.92256165415E+02 0.  0.
         24    2    1    2    0    0 -0.17108652052E+02  0.15461736078E+02  0.47213513813E+02  0.94138203672E+02  0.78109629665E+02 0.  0.
        -11    1    4    4    0    0  0.31114506171E+02  0.11449226936E+01  0.18471763022E+02  0.36202615533E+02  0.00000000000E+00 0.  1.
         12    1    4    4    0    0 -0.48223158223E+02  0.14316813384E+02  0.28741750790E+02  0.57935588139E+02  0.00000000000E+00 0. -1.
        -11    1    3    3    0    0 -0.17987976100E+02  0.40546856280E+02  0.11890120718E+03  0.12690591754E+03  0.00000000000E+00 0.  1.
         11    1    3    3    0    0  0.20162396237E+02 -0.42218778884E+02  0.88529485842E+02  0.10013199976E+03  0.00000000000E+00 0. -1.
         -4    1    1    2    0  502  0.14934231915E+02 -0.13789813474E+02 -0.54200085831E+02  0.57886436603E+02  0.00000000000E+00 0.  1.
<scales pt_clust_5="13000.00000" pt_clust_6="13000.00000" pt_clust_7="13000.00000" pt_clust_8="13000.00000" pt_clust_9="20.32708"></scales>
<clustering>
<clus scale="   20.327">  2  9  1 -1</clus>
<clus scale="   78.110">  5  6 -1 -1</clus>
<clus scale="   78.595">  2  5  1 -1</clus>
<clus scale="   92.256">  7  8 -1 -1</clus>
<clus scale="   20.327">  2  5  1 -1</clus>
</clustering>
</event>
<event>
 9    2  0.6233259E-005  0.1190858E+03  0.7546771E-02  0.1248672E+00
         21   -1    0    0  501  502  0.00000000000E+00  0.00000000000E+00  0.53813286484E+03  0.53813286484E+03  0.00000000000E+00 0.  1.
         -3   -1    0    0    0  501 -0.00000000000E+00 -0.00000000000E+00 -0.14302155577E+03  0.14302155577E+03  0.00000000000E+00 0.  1.
         23    2    1    2    0    0 -0.80888002263E+02 -0.50959005763E+01 -0.98260602385E+02  0.15725431026E+03  0.92222204488E+02 0.  0.
         24    2    1    2    0    0  0.41895353725E+02  0.27667500236E+02  0.14722438757E+03  0.17483276436E+03  0.79817065624E+02 0.  0.
        -11    1    4    4    0    0  0.87297676850E+01  0.37233543536E+02  0.20297123252E+02  0.43295713649E+02  0.00000000000E+00 0.  1.
         12    1    4    4    0    0  0.33165586040E+02 -0.95660433009E+01  0.12692726432E+03  0.13153705071E+03  0.00000000000E+00 0. -1.
        -11    1    3    3    0    0 -0.50834273800E+02 -0.36382290974E+02 -0.95035137732E+02  0.11375179952E+03  0.00000000000E+00 0.  1.
         11    1    3    3    0    0 -0.30053728463E+02  0.31286390397E+02 -0.32254646536E+01  0.43502510742E+02  0.00000000000E+00 0. -1.
         -4    1    1    2    0  502  0.38992648538E+02 -0.22571599659E+02  0.34614752388E+03  0.34906734600E+03  0.00000000000E+00 0.  1.
<scales pt_clust_5="13000.00000" pt_clust_6="13000.00000" pt_clust_7="13000.00000" pt_clust_8="13000.00000" pt_clust_9="45.05445"></scales>
<clustering>
<clus scale="   45.054">  1  9  2 -1</clus>
<clus scale="   79.817">  5  6 -1 -1</clus>
<clus scale="   92.222">  7  8 -1 -1</clus>
<clus scale="  109.760">  1  5  2 -1</clus>
<clus scale="   45.054">  1  5  2 -1</clus>
</clustering>
</event>
<event>
 9    2  0.3764910E-005  0.1158643E+03  0.7546771E-02  0.1254726E+00
         21   -1    0    0  501  502  0.00000000000E+00  0.00000000000E+00  0.24332198624E+02  0.24332198624E+02  0.00000000000E+00 0.  1.
          2   -1    0    0  502    0 -0.00000000000E+00 -0.00000000000E+00 -0.89902307784E+03  0.89902307784E+03  0.00000000000E+00 0. -1.
         23    2    1    2    0    0  0.53898200329E+02 -0.89470932071E+01 -0.34279605996E+03  0.35932741661E+03  0.92854655935E+02 0.  0.
         24    2    1    2    0    0 -0.65103384706E+02  0.70455706143E+02 -0.37137923679E+03  0.39176608860E+03  0.79722477550E+02 0.  0.
        -13    1    4    4    0    0 -0.48661290673E+02  0.15687771790E+02 -0.80825489847E+02  0.95638837313E+02  0.00000000000E+00 0.  1.
         14    1    4    4    0    0 -0.16442094033E+02  0.54767934354E+02 -0.29055374694E+03  0.29612725128E+03  0.00000000000E+00 0. -1.
        -13    1    3    3    0    0 -0.97720141214E+00  0.36472009424E+02 -0.11918955834E+03  0.12464875937E+03  0.00000000000E+00 0.  1.
         13    1    3    3    0    0  0.54875401741E+02 -0.45419102631E+02 -0.22360650161E+03  0.23467865724E+03  0.00000000000E+00 0. -1.
          1    1    1    2  501    0  0.11205184377E+02 -0.61508612936E+02 -0.16051558247E+03  0.17226177126E+03  0.00000000000E+00 0. -1.
<scales pt_clust_5="13000.00000" pt_clust_6="13000.00000" pt_clust_7="13000.00000" pt_clust_8="13000.00000" pt_clust_9="62.52092"></scales>
<clustering>
<clus scale="   62.521">  1  9  2 -1</clus>
<clus scale="   79.722">  5  6 -1 -1</clus>
<clus scale="   92.855">  7  8 -1 -1</clus>
<clus scale="  105.632">  1  5  2 -1</clus>
<clus scale="   62.521">  1  5  2 -1</clus>
</clustering>
</event>
<event>
 9    2  0.3764910E-005  0.9097893E+02  0.7546771E-02  0.1305541E+00
          2   -1    0    0  502    0 -0.00000000000E+00  0.00000000000E+00  0.15661071668E+03  0.15661071668E+03  0.00000000000E+00 0. -1.
         21   -1    0    0  501  502  0.00000000000E+00 -0.00000000000E+00 -0.25897396596E+03  0.25897396596E+03  0.00000000000E+00 0. -1.
         24    2    1    2    0    0  0.26816243635E+02  0.48343025886E+01 -0.64019834369E+02  0.10734680065E+03  0.81745428082E+02 0.  0.
         23    2    1    2    0    0  0.11495325197E+02  0.66277120544E+01 -0.15789535951E+03  0.18217511372E+03  0.89893038857E+02 0.  0.
        -13    1    3    3    0    0 -0.99220140775E+01 -0.22647325717E+02 -0.55396253631E+02  0.60663767125E+02  0.00000000000E+00 0.  1.
         14    1    3    3    0    0  0.36738257713E+02  0.27481628305E+02 -0.86235807385E+01  0.46683033522E+02  0.00000000000E+00 0. -1.
        -11    1    4    4    0    0  0.40854659492E+02  0.17668589300E+02 -0.38897186747E+02  0.59112379303E+02  0.00000000000E+00 0.  1.
         11    1    4    4    0    0 -0.29359334295E+02 -0.11040877246E+02 -0.11899817276E+03  0.12306273441E+03  0.00000000000E+00 0. -1.
          1    1    1    2  501    0 -0.38311568833E+02 -0.11462014643E+02  0.11955194461E+03  0.12606276828E+03  0.00000000000E+00 0. -1.
<scales pt_clust_5="13000.00000" pt_clust_6="13000.00000" pt_clust_7="13000.00000" pt_clust_8="13000.00000" pt_clust_9="39.98944"></scales>
<clustering>
<clus scale="   39.989">  2  9  1 -1</clus>
<clus scale="   81.745">  5  6 -1 -1</clus>
<clus scale="   82.938">  1  5  2 -1</clus>
<clus scale="   89.893">  7  8 -1 -1</clus>
<clus scale="   39.989">  2  5  1 -1</clus>
</clustering>
</event>
<event>
 9    2  0.3764910E-005  0.9658512E+02  0.7546771E-02  0.1294561E+00
         21   -1    0    0  501  502  0.00000000000E+00  0.00000000000E+00  0.20161627533E+03  0.20161627533E+03  0.00000000000E+00 0.  1.
         -3   -1    0    0    0  501 -0.00000000000E+00 -0.00000000000E+00 -0.12858954284E+03  0.12858954284E+03  0.00000000000E+00 0.  1.
         23    2    1    2    0    0 -0.22931403219E+02  0.19447520971E+02 -0.72637609426E+02  0.12170045887E+03  0.92901690296E+02 0.  0.
         24    2    1    2    0    0 -0.10358061577E+02 -0.30579775451E+02  0.37203492780E+02  0.94505923547E+02  0.80652697438E+02 0.  0.
        -13    1    4    4    0    0  0.57882104377E-01 -0.35639442967E+02 -0.16710342925E+02  0.39362530483E+02  0.00000000000E+00 0.  1.
         14    1    4    4    0    0 -0.10415943682E+02  0.50596675166E+01  0.53913835705E+02  0.55143393064E+02  0.00000000000E+00 0. -1.
        -11    1    3    3    0    0 -0.57221575684E-01  0.55104404076E+02 -0.37402411792E+02  0.66599091816E+02  0.00000000000E+00 0. -1.
         11    1    3    3    0    0 -0.22874181644E+02 -0.35656883105E+02 -0.35235197634E+02  0.55101367051E+02  0.00000000000E+00 0.  1.
         -4    1    1    2    0  502  0.33289464797E+02  0.11132254480E+02  0.10846084914E+03  0.11399943575E+03  0.00000000000E+00 0.  1.
<scales pt_clust_5="13000.00000" pt_clust_6="13000.00000" pt_clust_7="13000.00000" pt_clust_8="13000.00000" pt_clust_9="35.10150"></scales>
<clustering>
<clus scale="   35.102">  1  9  2 -1</clus>
<clus scale="   80.653">  5  6 -1 -1</clus>
<clus scale="   84.869">  1  5  2 -1</clus>
<clus scale="   92.902">  7  8 -1 -1</clus>
<clus scale="   35.102">  1  5  2 -1</clus>
</clustering>
</event>
<event>
 9    2  0.3764910E-005  0.9504556E+02  0.7546771E-02  0.1297899E+00
         21   -1    0    0  501  502  0.00000000000E+00  0.00000000000E+00  0.33247909467E+02  0.33247909467E+02  0.00000000000E+00 0.  1.
          2   -1    0    0  502    0 -0.00000000000E+00 -0.00000000000E+00 -0.32348733935E+03  0.32348733935E+03  0.00000000000E+00 0. -1.
         23    2    1    2    0    0  0.40093924443E+02 -0.99764401159E+01 -0.14909206270E+03  0.17864803670E+03  0.89328750816E+02 0.  0.
         24    2    1    2    0    0 -0.24028862115E+02 -0.68736664709E+01 -0.85937689755E+02  0.11816959533E+03  0.77163030232E+02 0.  0.
        -11    1    4    4    0    0 -0.47225701749E+02  0.88782772221E+01 -0.72740540237E+02  0.87179567022E+02  0.00000000000E+00 0.  1.
         12    1    4    4    0    0  0.23196839634E+02 -0.15751943693E+02 -0.13197149518E+02  0.30990028308E+02  0.00000000000E+00 0. -1.
        -11    1    3    3    0    0  0.55567454226E+02 -0.34484360684E+02 -0.77466155991E+02  0.10138006917E+03  0.00000000000E+00 0.  1.
         11    1    3    3    0    0 -0.15473529782E+02  0.24507920568E+02 -0.71625906708E+02  0.77267967530E+02  0.00000000000E+00 0. -1.
          1    1    1    2  501    0 -0.16065062328E+02  0.16850106587E+02 -0.55209677433E+02  0.59917616790E+02  0.00000000000E+00 0. -1.
<scales pt_clust_5="13000.00000" pt_clust_6="13000.00000" pt_clust_7="13000.00000" pt_clust_8="13000.00000" pt_clust_9="23.28117"></scales>
<clustering>
<clus scale="   23.281">  1  9  2 -1</clus>
<clus scale="   77.163">  5  6 -1 -1</clus>
<clus scale="   83.715">  1  5  2 -1</clus>
<clus scale="   89.329">  7  8 -1 -1</clus>
<clus scale="   23.281">  1  5  2 -1</clus>
</clustering>
</event>
<event>
 9    2  0.3764910E-005  0.1244295E+03  0.7546771E-02  0.1239213E+00
         -3   -1    0    0    0  501 -0.00000000000E+00  0.00000000000E+00  0.12190922522E+03  0.12190922522E+03  0.00000000000E+00 0.  1.
         21   -1    0    0  501  502  0.00000000000E+00 -0.00000000000E+00 -0.18851247605E+03  0.18851247605E+03  0.00000000000E+00 0.  1.
         24    2    1    2    0    0  0.46487876957E+02  0.76076185407E+02 -0.77734600020E+01  0.11945093416E+03  0.79116308687E+02 0.  0.
         23    2    1    2    0    0  0.24775573306E+01 -0.88989570215E+02 -0.23098390864E+02  0.12899414084E+03  0.90447060829E+02 0.  0.
        -13    1    3    3    0    0  0.20841893431E+02  0.13348781212E+02  0.32322388740E+02  0.40710088375E+02  0.00000000000E+00 0.  1.
         14    1    3    3    0    0  0.25645983526E+02  0.62727404194E+02 -0.40095848742E+02  0.78740845781E+02  0.00000000000E+00 0. -1.
        -13    1    4    4    0    0 -0.30076282318E+02  0.20555933857E+01 -0.73554944761E+01  0.31030815672E+02  0.00000000000E+00 0. -1.
         13    1    4    4    0    0  0.32553839649E+02 -0.91045163601E+02 -0.15742896388E+02  0.97963325167E+02  0.00000000000E+00 0.  1.
         -4    1    1    2    0  502 -0.48965434287E+02  0.12913384808E+02 -0.35731399964E+02  0.61976626284E+02  0.00000000000E+00 0.  1.
<scales pt_clust_5="13000.00000" pt_clust_6="13000.00000" pt_clust_7="13000.00000" pt_clust_8="13000.00000" pt_clust_9="50.63960"></scales>
<clustering>
<clus scale="   50.640">  2  9  1 -1</clus>
<clus scale="   79.116">  5  6 -1 -1</clus>
<clus scale="   90.447">  7  8 -1 -1</clus>
<clus scale="  116.454">  1  5  2 -1</clus>
<clus scale="   50.640">  2  5  1 -1</clus>
</clustering>
</event>
<event>
 9    2  0.3764910E-005  0.9478020E+02  0.7546771E-02  0.1297234E+00
          4   -1    0    0  502    0 -0.00000000000E+00  0.00000000000E+00  0.15663402646E+03  0.15663402646E+03  0.00000000000E+00 0. -1.
         21   -1    0    0  501  502  0.00000000000E+00 -0.00000000000E+00 -0.17365250431E+03  0.17365250431E+03  0.00000000000E+00 0. -1.
         23    2    1    2    0    0  0.83564263995E+01 -0.31648231220E+01  0.55725258184E+02  0.10759140487E+03  0.91601091888E+02 0.  0.
         24    2    1    2    0    0 -0.41416369766E+02  0.59080798256E+01  0.43538866017E+02  0.10177313098E+03  0.81926285428E+02 0.  0.
        -11    1    4    4    0    0 -0.36221949596E+02 -0.10788665348E+02  0.64327249664E+02  0.74608444440E+02  0.00000000000E+00 0.  1.
         12    1    4    4    0    0 -0.51944201701E+01  0.16696745174E+02 -0.20788383646E+02  0.27164686542E+02  0.00000000000E+00 0. -1.
        -13    1    3    3    0    0  0.34902070620E+02  0.23508364325E+02  0.21698548283E+01  0.42136753515E+02  0.00000000000E+00 0.  1.
         13    1    3    3    0    0 -0.26545644221E+02 -0.26673187447E+02  0.53555403356E+02  0.65454651357E+02  0.00000000000E+00 0. -1.
          3    1    1    2  501    0  0.33059943366E+02 -0.27432567037E+01 -0.11628260206E+03  0.12092199492E+03  0.00000000000E+00 0. -1.
<scales pt_clust_5="13000.00000" pt_clust_6="13000.00000" pt_clust_7="13000.00000" pt_clust_8="13000.00000" pt_clust_9="33.17356"></scales>
<clustering>
<clus scale="   33.174">  2  9  1 -1</clus>
<clus scale="   81.926">  5  6 -1 -1</clus>
<clus scale="   85.466">  2  5  1 -1</clus>
<clus scale="   91.601">  7  8 -1 -1</clus>
<clus scale="   33.174">  2  5  1 -1</clus>
</clustering>
</event>
<event>
 9    2  0.3764910E-005  0.9097466E+02  0.7546771E-02  0.1305383E+00
         21   -1    0    0  501  502  0.00000000000E+00  0.00000000000E+00  0.10928787977E+03  0.10928787977E+03  0.00000000000E+00 0. -1.
          2   -1    0    0  502    0 -0.00000000000E+00 -0.00000000000E+00 -0.18207123662E+03  0.18207123662E+03  0.00000000000E+00 0. -1.
         23    2    1    2    0    0  0.39112489125E+01  0.73265067894E+01 -0.96983585884E+02  0.13261593404E+03  0.90067721517E+02 0.  0.
         24    2    1    2    0    0 -0.27690026377E+02  0.10120499124E+02 -0.33829850054E+02  0.93648494761E+02  0.82197443714E+02 0.  0.
        -13    1    4    4    0    0 -0.19275328981E+02  0.46313791752E+02 -0.19192218068E+02  0.53710770318E+02  0.00000000000E+00 0.  1.
         14    1    4    4    0    0 -0.84146973954E+01 -0.36193292628E+02 -0.14637631986E+02  0.39937724443E+02  0.00000000000E+00 0. -1.
        -13    1    3    3    0    0  0.31842044929E+02 -0.14595862996E+02 -0.67831606737E+01  0.35678653430E+02  0.00000000000E+00 0.  1.
         13    1    3    3    0    0 -0.27930796016E+02  0.21922369785E+02 -0.90200425210E+02  0.96937280605E+02  0.00000000000E+00 0. -1.
          1    1    1    2  501    0  0.23778777464E+02 -0.17447005913E+02  0.58030079094E+02  0.65094687592E+02  0.00000000000E+00 0. -1.
<scales pt_clust_5="13000.00000" pt_clust_6="13000.00000" pt_clust_7="13000.00000" pt_clust_8="13000.00000" pt_clust_9="29.49285"></scales>
<clustering>
<clus scale="   29.493">  1  9  2 -1</clus>
<clus scale="   82.197">  5  6 -1 -1</clus>
<clus scale="   83.190">  1  5  2 -1</clus>
<clus scale="   90.068">  7  8 -1 -1</clus>
<clus scale="   29.493">  1  5  2 -1</clus>
</clustering>
</event>
<event>
 9    2  0.3764910E-005  0.4807990E+03  0.7546771E-02  0.1018916E+00
         21   -1    0    0  501  502  0.00000000000E+00  0.00000000000E+00  0.15182517100E+04  0.15182517100E+04  0.00000000000E+00 0. -1.
         -3   -1    0    0    0  501 -0.00000000000E+00 -0.00000000000E+00 -0.14116788232E+03  0.14116788232E+03  0.00000000000E+00 0.  1.
         24    2    1    2    0    0  0.24740517238E+03  0.27803073665E+03  0.91766483782E+03  0.99355813770E+03  0.80861663166E+02 0.  0.
         23    2    1    2    0    0 -0.80627559404E+00  0.14436064899E+02  0.13711141557E+03  0.16563148915E+03  0.91788887504E+02 0.  0.
        -11    1    3    3    0    0  0.61699292180E+02  0.61948350787E+02  0.31547904377E+03  0.32737047496E+03  0.00000000000E+00 0.  1.
         12    1    3    3    0    0  0.18570588020E+03  0.21608238586E+03  0.60218579406E+03  0.66618766274E+03  0.00000000000E+00 0. -1.
        -13    1    4    4    0    0  0.22860351738E+02 -0.32133218627E+02  0.72632158112E+02  0.82647261375E+02  0.00000000000E+00 0. -1.
         13    1    4    4    0    0 -0.23666627332E+02  0.46569283526E+02  0.64479257454E+02  0.82984227774E+02  0.00000000000E+00 0.  1.
         -4    1    1    2    0  502 -0.24659889678E+03 -0.29246680155E+03  0.32230757429E+03  0.50022996546E+03  0.00000000000E+00 0.  1.
<scales pt_clust_5="13000.00000" pt_clust_6="13000.00000" pt_clust_7="13000.00000" pt_clust_8="13000.00000" pt_clust_9="382.55456"></scales>
<clustering>
<clus scale="   80.862">  5  6 -1 -1</clus>
<clus scale="   91.789">  7  8 -1 -1</clus>
<clus scale="   92.711">  5  7 -1 -1</clus>
<clus scale="  382.555">  1  9  2 -1</clus>
<clus scale="  382.555">  1  5  2 -1</clus>
</clustering>
</event>
<event>
 9    2  0.3764910E-005  0.1504230E+03  0.7546771E-02  0.1202037E+00
          2   -1    0    0  502    0 -0.00000000000E+00  0.00000000000E+00  0.64751932315E+03  0.64751932315E+03  0.00000000000E+00 0. -1.
         21   -1    0    0  501  502  0.00000000000E+00 -0.00000000000E+00 -0.96606972784E+02  0.96606972784E+02  0.00000000000E+00 0. -1.
         24    2    1    2    0    0 -0.11516318554E+03 -0.40160422188E+02  0.35498299416E+03  0.38388540215E+03  0.80496316847E+02 0.  0.
         23    2    1    2    0    0  0.64018027257E+02  0.11847796174E+03  0.24333074348E+02  0.16480612675E+03  0.91834773782E+02 0.  0.
        -13    1    3    3    0    0 -0.73254543170E+00 -0.31351283387E+02  0.74922320183E+02  0.81220647956E+02  0.00000000000E+00 0.  1.
         14    1    3    3    0    0 -0.11443064011E+03 -0.88091388013E+01  0.28006067398E+03  0.30266475419E+03  0.00000000000E+00 0. -1.
        -11    1    4    4    0    0 -0.22792062487E+01  0.80089451402E+02  0.35045941687E+02  0.87451318091E+02  0.00000000000E+00 0.  1.
         11    1    4    4    0    0  0.66297233506E+02  0.38388510342E+02 -0.10712867339E+02  0.77354808664E+02  0.00000000000E+00 0. -1.
          1    1    1    2  501    0  0.51145158281E+02 -0.78317539556E+02  0.17159628186E+03  0.19543476704E+03  0.00000000000E+00 0. -1.
<scales pt_clust_5="13000.00000" pt_clust_6="13000.00000" pt_clust_7="13000.00000" pt_clust_8="13000.00000" pt_clust_9="93.53862"></scales>
<clustering>
<clus scale="   80.496">  5  6 -1 -1</clus>
<clus scale="   91.835">  7  8 -1 -1</clus>
<clus scale="   93.539">  2  9  1 -1</clus>
<clus scale="  143.781">  1  5  2 -1</clus>
<clus scale="   93.539">  2  5  1 -1</clus>
</clustering>
</event>
<event>
 9    2  0.3764910E-005  0.8798291E+02  0.7546771E-02  0.1312424E+00
         -1   -1    0    0    0  501 -0.00000000000E+00  0.00000000000E+00  0.42480461261E+03  0.42480461261E+03  0.00000000000E+00 0.  1.
         21   -1    0    0  501  502  0.00000000000E+00 -0.00000000000E+00 -0.31517922176E+02  0.31517922176E+02  0.00000000000E+00 0. -1.
         24    2    1    2    0    0  0.41649888910E-01 -0.20637073353E+02  0.25893878403E+03  0.27178346795E+03  0.79944162022E+02 0.  0.
         23    2    1    2    0    0  0.16560841653E+02 -0.10999517690E+02  0.10795013812E+03  0.14011656366E+03  0.87087130085E+02 0.  0.
        -13    1    3    3    0    0  0.23386581832E+02 -0.35700593304E+02  0.21907322462E+03  0.22319171650E+03  0.00000000000E+00 0.  1.
         14    1    3    3    0    0 -0.23344931943E+02  0.15063519950E+02  0.39865559417E+02  0.48591751444E+02  0.00000000000E+00 0. -1.
        -11    1    4    4    0    0  0.33841538745E+02  0.26529552043E+02  0.78064854940E+02  0.89124567056E+02  0.00000000000E+00 0.  1.
         11    1    4    4    0    0 -0.17280697092E+02 -0.37529069733E+02  0.29885283183E+02  0.50991996607E+02  0.00000000000E+00 0. -1.
         -2    1    1    2    0  502 -0.16602491542E+02  0.31636591044E+02  0.26397768277E+02  0.44422503175E+02  0.00000000000E+00 0.  1.
<scales pt_clust_5="13000.00000" pt_clust_6="13000.00000" pt_clust_7="13000.00000" pt_clust_8="13000.00000" pt_clust_9="35.72837"></scales>
<clustering>
<clus scale="   35.728">  2  9  1 -1</clus>
<clus scale="   79.944">  5  6 -1 -1</clus>
<clus scale="   80.919">  1  5  2 -1</clus>
<clus scale="   87.087">  7  8 -1 -1</clus>
<clus scale="   35.728">  2  5  1 -1</clus>
</clustering>
</event>
<event>
 9    2  0.3764910E-005  0.9555152E+02  0.7546771E-02  0.1303917E+00
         -3   -1    0    0    0  501 -0.00000000000E+00  0.00000000000E+00  0.15056584135E+03  0.15056584135E+03  0.00000000000E+00 0.  1.
         21   -1    0    0  501  502  0.00000000000E+00 -0.00000000000E+00 -0.25812886824E+03  0.25812886824E+03  0.00000000000E+00 0.  1.
         23    2    1    2    0    0  0.71552025669E+01 -0.13722296073E+02  0.96850980226E+02  0.13622167351E+03  0.94534298698E+02 0.  0.
         24    2    1    2    0    0 -0.27114363311E+02 -0.16060508673E+02 -0.15889987878E+02  0.80570223740E+02  0.72428865808E+02 0.  0.
        -13    1    4    4    0    0 -0.51124755184E+02 -0.12311766911E+02 -0.20984429133E+01  0.52628164131E+02  0.00000000000E+00 0.  1.
         14    1    4    4    0    0  0.24010391873E+02 -0.37487417619E+01 -0.13791544965E+02  0.27942059609E+02  0.00000000000E+00 0. -1.
        -11    1    3    3    0    0 -0.34171919168E+02  0.88910578700E+01  0.77740613827E+02  0.85383687012E+02  0.00000000000E+00 0.  1.
         11    1    3    3    0    0  0.41327121735E+02 -0.22613353943E+02  0.19110366399E+02  0.50837986500E+02  0.00000000000E+00 0. -1.
         -4    1    1    2    0  502  0.19959160744E+02  0.29782804746E+02 -0.18852401924E+03  0.19190281234E+03  0.00000000000E+00 0.  1.
<scales pt_clust_5="13000.00000" pt_clust_6="13000.00000" pt_clust_7="13000.00000" pt_clust_8="13000.00000" pt_clust_9="35.85225"></scales>
<clustering>
<clus scale="   35.852">  2  9  1 -1</clus>
<clus scale="   72.429">  5  6 -1 -1</clus>
<clus scale="   73.752">  2  5  1 -1</clus>
<clus scale="   94.534">  7  8 -1 -1</clus>
<clus scale="   35.852">  2  5  1 -1</clus>
</clustering>
</event>
<event>
 9    2  0.3764910E-005  0.3121188E+03  0.7546771E-02  0.1107017E+00
          2   -1    0    0  502    0 -0.00000000000E+00  0.00000000000E+00  0.82805833214E+03  0.82805833214E+03  0.00000000000E+00 0. -1.
         21   -1    0    0  501  502  0.00000000000E+00 -0.00000000000E+00 -0.20073908819E+03  0.20073908819E+03  0.00000000000E+00 0. -1.
         24    2    1    2    0    0  0.12177396591E+03  0.39536146304E+02  0.10823622953E+02  0.15116773713E+03  0.79639991812E+02 0.  0.
         23    2    1    2    0    0  0.13631885039E+03 -0.24475074532E+03  0.30305354139E+03  0.42268916979E+03  0.91317736506E+02 0.  0.
        -13    1    3    3    0    0  0.29614662038E+02  0.34335826661E+02  0.33188306108E+02  0.56191110173E+02  0.00000000000E+00 0.  1.
         14    1    3    3    0    0  0.92159303875E+02  0.52003196427E+01 -0.22364683155E+02  0.94976626955E+02  0.00000000000E+00 0. -1.
        -13    1    4    4    0    0  0.30298055426E+02 -0.13566554033E+02  0.10022665166E+02  0.34676755442E+02  0.00000000000E+00 0.  1.
         13    1    4    4    0    0  0.10602079496E+03 -0.23118419129E+03  0.29303087623E+03  0.38801241435E+03  0.00000000000E+00 0. -1.
          1    1    1    2  501    0 -0.25809281630E+03  0.20521459902E+03  0.31344207960E+03  0.45494051341E+03  0.00000000000E+00 0. -1.
<scales pt_clust_5="13000.00000" pt_clust_6="13000.00000" pt_clust_7="13000.00000" pt_clust_8="13000.00000" pt_clust_9="298.46153"></scales>
<clustering>
<clus scale="   79.640">  5  6 -1 -1</clus>
<clus scale="   91.318">  7  8 -1 -1</clus>
<clus scale="  150.780">  1  5  2 -1</clus>
<clus scale="  298.462">  2  9  1 -1</clus>
<clus scale="  298.462">  2  5  1 -1</clus>
</clustering>
</event>
<event>
 9    2  0.3764910E-005  0.1348090E+03  0.7546771E-02  0.1241288E+00
         21   -1    0    0  501  502  0.00000000000E+00  0.00000000000E+00  0.10764687992E+03  0.10764687992E+03  0.00000000000E+00 0. -1.
          2   -1    0    0  502    0 -0.00000000000E+00 -0.00000000000E+00 -0.49183188309E+03  0.49183188309E+03  0.00000000000E+00 0. -1.
         24    2    1    2    0    0  0.48895125159E+01  0.15028834415E+02 -0.35052203488E+02  0.94533130639E+02  0.86360191191E+02 0.  0.
         23    2    1    2    0    0 -0.47462725153E+02 -0.10546475409E+03 -0.37443646730E+03  0.40183690532E+03  0.88852156970E+02 0.  0.
        -11    1    3    3    0    0 -0.10599326830E+02  0.48935384276E+02 -0.15351644734E+02  0.52370703255E+02  0.00000000000E+00 0.  1.
         12    1    3    3    0    0  0.15488839346E+02 -0.33906549860E+02 -0.19700558754E+02  0.42162427384E+02  0.00000000000E+00 0. -1.
        -13    1    4    4    0    0  0.60018292106E+01 -0.79869655896E+02 -0.27134474092E+03  0.28291898542E+03  0.00000000000E+00 0.  1.
         13    1    4    4    0    0 -0.53464554364E+02 -0.25595098192E+02 -0.10309172638E+03  0.11891791990E+03  0.00000000000E+00 0. -1.
          1    1    1    2  501    0  0.42573212637E+02  0.90435919672E+02  0.25303667610E+02  0.10310872706E+03  0.00000000000E+00 0. -1.
<scales pt_clust_5="13000.00000" pt_clust_6="13000.00000" pt_clust_7="13000.00000" pt_clust_8="13000.00000" pt_clust_9="101.38424"></scales>
<clustering>
<clus scale="   86.360">  5  6 -1 -1</clus>
<clus scale="   87.794">  2  5  1 -1</clus>
<clus scale="   88.852">  7  8 -1 -1</clus>
<clus scale="  101.384">  1  9  2 -1</clus>
<clus scale="  101.384">  1  5  2 -1</clus>
</clustering>
</event>
<event>
 9    2  0.3764910E-005  0.1107124E+03  0.7546771E-02  0.1270906E+00
          2   -1    0    0  502    0 -0.00000000000E+00  0.00000000000E+00  0.45770754791E+03  0.45770754791E+03  0.00000000000E+00 0. -1.
         21   -1    0    0  501  502  0.00000000000E+00 -0.00000000000E+00 -0.47111430399E+02  0.47111430399E+02  0.00000000000E+00 0. -1.
         24    2    1    2    0    0 -0.27563986544E+02  0.32128723086E+02  0.19355550531E+03  0.21271246129E+03  0.77400447995E+02 0.  0.
         23    2    1    2    0    0 -0.27896360433E+02  0.38097715336E+02  0.83133757765E+02  0.13105171764E+03  0.89630843887E+02 0.  0.
        -11    1    3    3    0    0  0.10803322790E+02  0.37048797328E+02  0.14800560490E+03  0.15295419003E+03  0.00000000000E+00 0.  1.
         12    1    3    3    0    0 -0.38367309334E+02 -0.49200742420E+01  0.45549900413E+02  0.59758271257E+02  0.00000000000E+00 0. -1.
        -11    1    4    4    0    0 -0.34130314801E+02 -0.15318489034E+02  0.63692941810E+02  0.73866943426E+02  0.00000000000E+00 0.  1.
         11    1    4    4    0    0  0.62339543685E+01  0.53416204370E+02  0.19440815955E+02  0.57184774209E+02  0.00000000000E+00 0. -1.
          1    1    1    2  501    0  0.55460346976E+02 -0.70226438422E+02  0.13390685443E+03  0.16105479938E+03  0.00000000000E+00 0. -1.
<scales pt_clust_5="13000.00000" pt_clust_6="13000.00000" pt_clust_7="13000.00000" pt_clust_8="13000.00000" pt_clust_9="64.98892"></scales>
<clustering>
<clus scale="   77.400">  5  6 -1 -1</clus>
<clus scale="   88.221">  1  5  2 -1</clus>
<clus scale="   64.989">  2  9  1 -1</clus>
<clus scale="   89.631">  7  8 -1 -1</clus>
<clus scale="   64.989">  2  5  1 -1</clus>
</clustering>
</event>
<event>
 9    2  0.3764910E-005  0.3967621E+03  0.7546771E-02  0.1044970E+00
          2   -1    0    0  502    0 -0.00000000000E+00  0.00000000000E+00  0.11869191376E+04  0.11869191376E+04  0.00000000000E+00 0. -1.
         21   -1    0    0  501  502  0.00000000000E+00 -0.00000000000E+00 -0.21583590993E+03  0.21583590993E+03  0.00000000000E+00 0. -1.
         23    2    1    2    0    0 -0.21461838086E+03 -0.28862061714E+03  0.59817544461E+03  0.70311779928E+03  0.84840244491E+02 0.  0.
         24    2    1    2    0    0  0.30512023786E+03  0.32235796235E+03  0.39594984960E+03  0.60034106794E+03  0.81363990965E+02 0.  0.
        -11    1    4    4    0    0  0.17945930433E+03  0.23219219137E+03  0.22483904921E+03  0.36969102464E+03  0.00000000000E+00 0.  1.
         12    1    4    4    0    0  0.12566093353E+03  0.90165770974E+02  0.17111080038E+03  0.23065004331E+03  0.00000000000E+00 0. -1.
        -13    1    3    3    0    0 -0.24134255046E+02 -0.85433743414E+02  0.17971517741E+03  0.20044683029E+03  0.00000000000E+00 0.  1.
         13    1    3    3    0    0 -0.19048412581E+03 -0.20318687372E+03  0.41846026720E+03  0.50267096899E+03  0.00000000000E+00 0. -1.
          1    1    1    2  501    0 -0.90501857005E+02 -0.33737345210E+02 -0.23042066575E+02  0.99296180265E+02  0.00000000000E+00 0. -1.
<scales pt_clust_5="13000.00000" pt_clust_6="13000.00000" pt_clust_7="13000.00000" pt_clust_8="13000.00000" pt_clust_9="96.58569"></scales>
<clustering>
<clus scale="   81.364">  5  6 -1 -1</clus>
<clus scale="   84.840">  7  8 -1 -1</clus>
<clus scale="   96.586">  2  9  1 -1</clus>
<clus scale="  396.033">  2  5  1 -1</clus>
<clus scale="   96.586">  2  5  1 -1</clus>
</clustering>
</event>
<event>
 9    2  0.3764910E-005  0.8892066E+02  0.7546771E-02  0.1316119E+00
         21   -1    0    0  501  502  0.00000000000E+00  0.00000000000E+00  0.38955630750E+02  0.38955630750E+02  0.00000000000E+00 0.  1.
         -1   -1    0    0    0  501 -0.00000000000E+00 -0.00000000000E+00 -0.33445265855E+03  0.33445265855E+03  0.00000000000E+00 0.  1.
         24    2    1    2    0    0  0.18101121820E+01 -0.50582025806E+02 -0.16552780975E+03  0.18470024737E+03  0.64443058105E+02 0.  0.
         23    2    1    2    0    0  0.19955619188E+02  0.29322019716E+01 -0.74670496249E+02  0.11253585930E+03  0.81742351767E+02 0.  0.
        -11    1    3    3    0    0  0.13527086458E+01 -0.59474228152E+02 -0.85391266535E+02  0.10407056277E+03  0.00000000000E+00 0.  1.
         12    1    3    3    0    0  0.45740353619E+00  0.88922023454E+01 -0.80136543213E+02  0.80629684600E+02  0.00000000000E+00 0. -1.
        -13    1    4    4    0    0  0.48278165168E+02 -0.11376150684E+02 -0.30774810419E+02  0.58371970951E+02  0.00000000000E+00 0. -1.
         13    1    4    4    0    0 -0.28322545979E+02  0.14308352656E+02 -0.43895685830E+02  0.54163888347E+02  0.00000000000E+00 0.  1.
         -2    1    1    2    0  502 -0.21765731370E+02  0.47649823835E+02 -0.55298721800E+02  0.76172182628E+02  0.00000000000E+00 0.  1.
<scales pt_clust_5="13000.00000" pt_clust_6="13000.00000" pt_clust_7="13000.00000" pt_clust_8="13000.00000" pt_clust_9="52.38562"></scales>
<clustering>
<clus scale="   52.386">  1  9  2 -1</clus>
<clus scale="   64.443">  5  6 -1 -1</clus>
<clus scale="   73.335">  2  5  1 -1</clus>
<clus scale="   81.742">  7  8 -1 -1</clus>
<clus scale="   52.386">  1  5  2 -1</clus>
</clustering>
</event>
<event>
 9    2  0.3764910E-005  0.9853593E+02  0.7546771E-02  0.1291152E+00
         21   -1    0    0  501  502  0.00000000000E+00  0.00000000000E+00  0.45698736179E+02  0.45698736179E+02  0.00000000000E+00 0.  1.
          2   -1    0    0  502    0 -0.00000000000E+00 -0.00000000000E+00 -0.41466940840E+03  0.41466940840E+03  0.00000000000E+00 0. -1.
         23    2    1    2    0    0 -0.21395643975E+01  0.37483249875E+02 -0.29676293588E+03  0.31241108444E+03  0.90126987138E+02 0.  0.
         24    2    1    2    0    0 -0.24534310480E+02 -0.49185008229E+02 -0.32515900568E+02  0.98724260336E+02  0.75286774164E+02 0.  0.
        -11    1    4    4    0    0 -0.46700917868E+02 -0.51016832732E+02 -0.32645968083E+02  0.76481711433E+02  0.00000000000E+00 0.  1.
         12    1    4    4    0    0  0.22166607389E+02  0.18318245025E+01  0.13006751509E+00  0.22242548903E+02  0.00000000000E+00 0. -1.
        -13    1    3    3    0    0  0.29183534113E+02  0.50842515897E+01 -0.31089906851E+02  0.42943108709E+02  0.00000000000E+00 0.  1.
         13    1    3    3    0    0 -0.31323098511E+02  0.32398998285E+02 -0.26567302903E+03  0.26946797573E+03  0.00000000000E+00 0. -1.
          1    1    1    2  501    0  0.26673874877E+02  0.11701758354E+02 -0.39691835773E+02  0.49232799804E+02  0.00000000000E+00 0. -1.
<scales pt_clust_5="13000.00000" pt_clust_6="13000.00000" pt_clust_7="13000.00000" pt_clust_8="13000.00000" pt_clust_9="29.12778"></scales>
<clustering>
<clus scale="   29.128">  1  9  2 -1</clus>
<clus scale="   75.287">  5  6 -1 -1</clus>
<clus scale="   85.174">  1  5  2 -1</clus>
<clus scale="   90.127">  7  8 -1 -1</clus>
<clus scale="   29.128">  1  5  2 -1</clus>
</clustering>
</event>
<event>
 9    2  0.3764910E-005  0.9105225E+02  0.7546771E-02  0.1306989E+00
         -1   -1    0    0    0  501 -0.00000000000E+00  0.00000000000E+00  0.13436252128E+03  0.13436252128E+03  0.00000000000E+00 0.  1.
         21   -1    0    0  501  502  0.00000000000E+00 -0.00000000000E+00 -0.15366274580E+03  0.15366274580E+03  0.00000000000E+00 0.  1.
         23    2    1    2    0    0  0.48471912376E+01 -0.14522779810E+02  0.58418790278E+02  0.10655250844E+03  0.87785395151E+02 0.  0.
         24    2    1    2    0    0  0.81450643224E+01  0.39323992113E+02  0.11937928398E+02  0.87545838641E+02  0.76870288802E+02 0.  0.
        -13    1    4    4    0    0  0.29108835717E+02  0.40356359207E+02 -0.16300804886E+02  0.52361018756E+02  0.00000000000E+00 0.  1.
         14    1    4    4    0    0 -0.20963771394E+02 -0.10323670936E+01  0.28238733284E+02  0.35184819886E+02  0.00000000000E+00 0. -1.
        -11    1    3    3    0    0 -0.14726610364E+02  0.25904103861E+02 -0.35599803597E+01  0.30009483665E+02  0.00000000000E+00 0. -1.
         11    1    3    3    0    0  0.19573801602E+02 -0.40426883671E+02  0.61978770637E+02  0.76543024778E+02  0.00000000000E+00 0.  1.
         -2    1    1    2    0  502 -0.12992255560E+02 -0.24801212303E+02 -0.89656943192E+02  0.93926919990E+02  0.00000000000E+00 0.  1.
<scales pt_clust_5="13000.00000" pt_clust_6="13000.00000" pt_clust_7="13000.00000" pt_clust_8="13000.00000" pt_clust_9="27.99819"></scales>
<clustering>
<clus scale="   27.998">  2  9  1 -1</clus>
<clus scale="   76.870">  5  6 -1 -1</clus>
<clus scale="   80.581">  2  5  1 -1</clus>
<clus scale="   87.785">  7  8 -1 -1</clus>
<clus scale="   27.998">  2  5  1 -1</clus>
</clustering>
</event>
<event>
 9    2  0.3764910E-005  0.1043443E+03  0.7546771E-02  0.1275717E+00
         -3   -1    0    0    0  501 -0.00000000000E+00  0.00000000000E+00  0.51290745780E+03  0.51290745780E+03  0.00000000000E+00 0.  1.
         21   -1    0    0  501  502  0.00000000000E+00 -0.00000000000E+00 -0.32264952907E+02  0.32264952907E+02  0.00000000000E+00 0. -1.
         23    2    1    2    0    0 -0.59585546695E+02  0.20231760535E+02  0.23307951381E+03  0.25746818373E+03  0.89465324916E+02 0.  0.
         24    2    1    2    0    0  0.42191893112E+02  0.47911209568E+01  0.90894008915E+02  0.12809892082E+03  0.79652382095E+02 0.  0.
        -11    1    4    4    0    0  0.31446202487E+02 -0.16862702332E+02  0.96840203573E+02  0.10320484198E+03  0.00000000000E+00 0.  1.
         12    1    4    4    0    0  0.10745690625E+02  0.21653823289E+02 -0.59461946579E+01  0.24894078833E+02  0.00000000000E+00 0. -1.
        -11    1    3    3    0    0 -0.19854490412E+02  0.48616679605E+02  0.16858207594E+03  0.17657207779E+03  0.00000000000E+00 0.  1.
         11    1    3    3    0    0 -0.39731056283E+02 -0.28384919070E+02  0.64497437872E+02  0.80896105939E+02  0.00000000000E+00 0. -1.
         -4    1    1    2    0  502  0.17393653583E+02 -0.25022881491E+02  0.15666898217E+03  0.15960530617E+03  0.00000000000E+00 0.  1.
<scales pt_clust_5="13000.00000" pt_clust_6="13000.00000" pt_clust_7="13000.00000" pt_clust_8="13000.00000" pt_clust_9="30.47433"></scales>
<clustering>
<clus scale="   30.474">  2  9  1 -1</clus>
<clus scale="   79.652">  5  6 -1 -1</clus>
<clus scale="   89.465">  7  8 -1 -1</clus>
<clus scale="   96.063">  2  5  1 -1</clus>
<clus scale="   30.474">  2  5  1 -1</clus>
</clustering>
</event>
<event>
 9    2  0.3764910E-005  0.1943733E+03  0.7546771E-02  0.1155456E+00
          2   -1    0    0  502    0 -0.00000000000E+00  0.00000000000E+00  0.59837274396E+03  0.59837274396E+03  0.00000000000E+00 0. -1.
         21   -1    0    0  501  502  0.00000000000E+00 -0.00000000000E+00 -0.73952856970E+02  0.73952856970E+02  0.00000000000E+00 0.  1.
         23    2    1    2    0    0 -0.87076635866E+02  0.14879823707E+03  0.31024991144E+03  0.36632124479E+03  0.90625553598E+02 0.  0.
         24    2    1    2    0    0  0.62863475637E+02 -0.16068869967E+03  0.17931448059E+03  0.26192980841E+03  0.81736569621E+02 0.  0.
        -13    1    4    4    0    0  0.10919594012E+02 -0.96828768368E+02  0.52349261792E+02  0.11061416332E+03  0.00000000000E+00 0.  1.
         14    1    4    4    0    0  0.51943881625E+02 -0.63859931300E+02  0.12696521880E+03  0.15131564509E+03  0.00000000000E+00 0. -1.
        -13    1    3    3    0    0 -0.19132062586E+02  0.19228760565E+02  0.46709310631E+01  0.27524509962E+02  0.00000000000E+00 0.  1.
         13    1    3    3    0    0 -0.67944573281E+02  0.12956947651E+03  0.30557898038E+03  0.33879673483E+03  0.00000000000E+00 0. -1.
          1    1    1    2  501    0  0.24213160229E+02  0.11890462593E+02  0.34855494966E+02  0.44074547738E+02  0.00000000000E+00 0. -1.
<scales pt_clust_5="13000.00000" pt_clust_6="13000.00000" pt_clust_7="13000.00000" pt_clust_8="13000.00000" pt_clust_9="26.97519"></scales>
<clustering>
<clus scale="   26.975">  2  9  1 -1</clus>
<clus scale="   81.737">  5  6 -1 -1</clus>
<clus scale="   90.626">  7  8 -1 -1</clus>
<clus scale="  190.391">  2  5  1 -1</clus>
<clus scale="   26.975">  2  5  1 -1</clus>
</clustering>
</event>
<event>
 9    2  0.3764910E-005  0.3594180E+03  0.7546771E-02  0.1098722E+00
         21   -1    0    0  501  502  0.00000000000E+00  0.00000000000E+00  0.54604929821E+03  0.54604929821E+03  0.00000000000E+00 0.  1.
          2   -1    0    0  502    0 -0.00000000000E+00 -0.00000000000E+00 -0.32482905644E+03  0.32482905644E+03  0.00000000000E+00 0. -1.
         23    2    1    2    0    0 -0.40532344662E+02 -0.27976281646E+02  0.75326211984E+02  0.14364690252E+03  0.11195914922E+03 0.  0.
         24    2    1    2    0    0  0.30612667571E+03 -0.18914478834E+03  0.62521291227E+02  0.37419757096E+03  0.81397897492E+02 0.  0.
        -13    1    4    4    0    0  0.18620559552E+03 -0.98046479379E+02 -0.17720324021E+01  0.21044898674E+03  0.00000000000E+00 0.  1.
         14    1    4    4    0    0  0.11992108019E+03 -0.91098308965E+02  0.64293323629E+02  0.16374858422E+03  0.00000000000E+00 0. -1.
        -11    1    3    3    0    0 -0.27997084373E+02 -0.52813347120E+02  0.93096581990E+02  0.11063480440E+03  0.00000000000E+00 0. -1.
         11    1    3    3    0    0 -0.12535260289E+02  0.24837065474E+02 -0.17770370006E+02  0.33012098116E+02  0.00000000000E+00 0.  1.
          1    1    1    2  501    0 -0.26559433105E+03  0.21712106999E+03  0.83372738558E+02  0.35303388117E+03  0.00000000000E+00 0. -1.
<scales pt_clust_5="13000.00000" pt_clust_6="13000.00000" pt_clust_7="13000.00000" pt_clust_8="13000.00000" pt_clust_9="350.07957"></scales>
<clustering>
<clus scale="   81.398">  5  6 -1 -1</clus>
<clus scale="  111.959">  7  8 -1 -1</clus>
<clus scale="  122.313">  2  7  1 -1</clus>
<clus scale="  350.080">  1  9  2 -1</clus>
<clus scale="  350.080">  1  5  2 -1</clus>
</clustering>
</event>
<event>
 9    2  0.3764910E-005  0.9434038E+02  0.7546771E-02  0.1299177E+00
         21   -1    0    0  501  502  0.00000000000E+00  0.00000000000E+00  0.12262915376E+03  0.12262915376E+03  0.00000000000E+00 0. -1.
          2   -1    0    0  502    0 -0.00000000000E+00 -0.00000000000E+00 -0.17122823588E+03  0.17122823588E+03  0.00000000000E+00 0. -1.
         23    2    1    2    0    0 -0.17159502176E+02  0.15743148369E+02 -0.11390315346E+03  0.14803519798E+03  0.91641673032E+02 0.  0.
         24    2    1    2    0    0  0.31777065394E+02  0.13760964649E+02  0.70474734332E+02  0.11249200121E+03  0.80551946747E+02 0.  0.
        -13    1    4    4    0    0  0.89300918145E+01 -0.33595995391E+02  0.32929654220E+02  0.47883186749E+02  0.00000000000E+00 0.  1.
         14    1    4    4    0    0  0.22846973580E+02  0.47356960040E+02  0.37545080111E+02  0.64608814465E+02  0.00000000000E+00 0. -1.
        -13    1    3    3    0    0  0.26552920645E+02  0.36313151005E+02 -0.67002490910E+02  0.80703384804E+02  0.00000000000E+00 0. -1.
         13    1    3    3    0    0 -0.43712422821E+02 -0.20570002637E+02 -0.46900662555E+02  0.67331813175E+02  0.00000000000E+00 0.  1.
          1    1    1    2  501    0 -0.14617563218E+02 -0.29504113018E+02 -0.51706629934E+01  0.33330190446E+02  0.00000000000E+00 0. -1.
<scales pt_clust_5="13000.00000" pt_clust_6="13000.00000" pt_clust_7="13000.00000" pt_clust_8="13000.00000" pt_clust_9="32.92667"></scales>
<clustering>
<clus scale="   32.927">  1  9  2 -1</clus>
<clus scale="   80.552">  5  6 -1 -1</clus>
<clus scale="   83.609">  1  5  2 -1</clus>
<clus scale="   91.642">  7  8 -1 -1</clus>
<clus scale="   32.927">  1  5  2 -1</clus>
</clustering>
</event>
<event>
 9    2  0.3764910E-005  0.9242235E+02  0.7546771E-02  0.1303919E+00
         -1   -1    0    0    0  501 -0.00000000000E+00  0.00000000000E+00  0.91139860674E+02  0.91139860674E+02  0.00000000000E+00 0.  1.
         21   -1    0    0  501  502  0.00000000000E+00 -0.00000000000E+00 -0.13191843724E+03  0.13191843724E+03  0.00000000000E+00 0. -1.
         24    2    1    2    0    0 -0.44749872690E+01 -0.16529657295E+01  0.26090164233E+02  0.84988451673E+02  0.80743931297E+02 0.  0.
         23    2    1    2    0    0  0.24251320151E+02  0.16010233872E+02 -0.55628480318E+02  0.11117044204E+03  0.91759932669E+02 0.  0.
        -11    1    3    3    0    0 -0.36279896132E+02  0.20898029554E+02  0.14625356459E+02  0.44349290346E+02  0.00000000000E+00 0.  1.
         12    1    3    3    0    0  0.31804908864E+02 -0.22550995284E+02  0.11464807774E+02  0.40639161327E+02  0.00000000000E+00 0. -1.
        -11    1    4    4    0    0 -0.11473831632E+02  0.31222235124E+02  0.10157533951E+02  0.34780055699E+02  0.00000000000E+00 0.  1.
         11    1    4    4    0    0  0.35725151783E+02 -0.15212001252E+02 -0.65786014269E+02  0.76390386341E+02  0.00000000000E+00 0. -1.
         -2    1    1    2    0  502 -0.19776332882E+02 -0.14357268143E+02 -0.11240260486E+02  0.26899404205E+02  0.00000000000E+00 0.  1.
<scales pt_clust_5="13000.00000" pt_clust_6="13000.00000" pt_clust_7="13000.00000" pt_clust_8="13000.00000" pt_clust_9="24.43838"></scales>
<clustering>
<clus scale="   24.438">  2  9  1 -1</clus>
<clus scale="   80.744">  5  6 -1 -1</clus>
<clus scale="   81.496">  1  5  2 -1</clus>
<clus scale="   91.760">  7  8 -1 -1</clus>
<clus scale="   24.438">  2  5  1 -1</clus>
</clustering>
</event>
<event>
 9    2  0.3764910E-005  0.1005172E+03  0.7546771E-02  0.1284872E+00
         21   -1    0    0  501  502  0.00000000000E+00  0.00000000000E+00  0.17466932165E+03  0.17466932165E+03  0.00000000000E+00 0.  1.
          2   -1    0    0  502    0 -0.00000000000E+00 -0.00000000000E+00 -0.16492380517E+03  0.16492380517E+03  0.00000000000E+00 0. -1.
         24    2    1    2    0    0 -0.24432402654E+02  0.41302544238E+02 -0.11638472441E+03  0.14875784175E+03  0.79250545407E+02 0.  0.
         23    2    1    2    0    0  0.24359956414E+02 -0.93270015861E+01  0.46945370160E+02  0.10543807008E+03  0.90735430829E+02 0.  0.
        -13    1    3    3    0    0  0.28373408640E+02  0.11724952035E+02 -0.27458549601E+02  0.41188551374E+02  0.00000000000E+00 0.  1.
         14    1    3    3    0    0 -0.52805811293E+02  0.29577592204E+02 -0.88926174804E+02  0.10756929038E+03  0.00000000000E+00 0. -1.
        -13    1    4    4    0    0 -0.10800127706E+02  0.23780511839E+02  0.50664882201E+02  0.57000752541E+02  0.00000000000E+00 0.  1.
         13    1    4    4    0    0  0.35160084121E+02 -0.33107513425E+02 -0.37195120407E+01  0.48437317539E+02  0.00000000000E+00 0. -1.
          1    1    1    2  501    0  0.72446239527E-01 -0.31975542652E+02  0.79184870730E+02  0.85397214995E+02  0.00000000000E+00 0. -1.
<scales pt_clust_5="13000.00000" pt_clust_6="13000.00000" pt_clust_7="13000.00000" pt_clust_8="13000.00000" pt_clust_9="31.97562"></scales>
<clustering>
<clus scale="   31.976">  1  9  2 -1</clus>
<clus scale="   79.251">  5  6 -1 -1</clus>
<clus scale="   90.285">  2  5  1 -1</clus>
<clus scale="   90.735">  7  8 -1 -1</clus>
<clus scale="   31.976">  1  5  2 -1</clus>
</clustering>
</event>
<event>
 9    2  0.3764910E-005  0.9669895E+02  0.7546771E-02  0.1291084E+00
         21   -1    0    0  501  502  0.00000000000E+00  0.00000000000E+00  0.85067041002E+02  0.85067041002E+02  0.00000000000E+00 0. -1.
         -1   -1    0    0    0  501 -0.00000000000E+00 -0.00000000000E+00 -0.27550281806E+03  0.27550281806E+03  0.00000000000E+00 0.  1.
         23    2    1    2    0    0  0.38345829805E+02  0.34814234885E+02 -0.16286454223E+03  0.19424713798E+03  0.92329073864E+02 0.  0.
         24    2    1    2    0    0  0.82985532166E+01 -0.19084922815E+00 -0.55052646596E+02  0.10205993797E+03  0.85536744338E+02 0.  0.
        -13    1    4    4    0    0  0.24626994839E+02 -0.34815894007E+00 -0.73445057932E+02  0.77464744394E+02  0.00000000000E+00 0.  1.
         14    1    4    4    0    0 -0.16328441622E+02  0.15730971193E+00  0.18392411336E+02  0.24595193573E+02  0.00000000000E+00 0. -1.
        -11    1    3    3    0    0 -0.29061156970E+02 -0.17293683921E+01 -0.41596542250E+02  0.50772176304E+02  0.00000000000E+00 0.  1.
         11    1    3    3    0    0  0.67406986775E+02  0.36543603277E+02 -0.12126799998E+03  0.14347496167E+03  0.00000000000E+00 0. -1.
         -2    1    1    2    0  502 -0.46644383022E+02 -0.34623385657E+02  0.27481411768E+02  0.64262783122E+02  0.00000000000E+00 0.  1.
<scales pt_clust_5="13000.00000" pt_clust_6="13000.00000" pt_clust_7="13000.00000" pt_clust_8="13000.00000" pt_clust_9="58.09025"></scales>
<clustering>
<clus scale="   58.090">  1  9  2 -1</clus>
<clus scale="   85.537">  5  6 -1 -1</clus>
<clus scale="   90.236">  1  5  2 -1</clus>
<clus scale="   92.329">  7  8 -1 -1</clus>
<clus scale="   58.090">  1  5  2 -1</clus>
</clustering>
</event>
<event>
 9    2  0.3764910E-005  0.1083433E+03  0.7546771E-02  0.1267398E+00
         21   -1    0    0  501  502  0.00000000000E+00  0.00000000000E+00  0.72825713342E+02  0.72825713342E+02  0.00000000000E+00 0. -1.
          2   -1    0    0  502    0 -0.00000000000E+00 -0.00000000000E+00 -0.20258379869E+03  0.20258379869E+03  0.00000000000E+00 0. -1.
         24    2    1    2    0    0 -0.48001981837E+02 -0.51508588149E+01 -0.45766803145E+02  0.10492518902E+03  0.81141687276E+02 0.  0.
         23    2    1    2    0    0  0.71876773402E+02  0.20589393943E+02 -0.53945142864E+02  0.12911858201E+03  0.90395442833E+02 0.  0.
        -11    1    3    3    0    0 -0.61288484877E+01  0.35399962452E+02 -0.14150541265E+02  0.38612924565E+02  0.00000000000E+00 0.  1.
         12    1    3    3    0    0 -0.41873133350E+02 -0.40550821267E+02 -0.31616261880E+02  0.66312264455E+02  0.00000000000E+00 0. -1.
        -11    1    4    4    0    0  0.77498270866E+02 -0.96599579689E+01 -0.59078098340E+02  0.97926086814E+02  0.00000000000E+00 0. -1.
         11    1    4    4    0    0 -0.56214974646E+01  0.30249351912E+02  0.51329554768E+01  0.31192495199E+02  0.00000000000E+00 0.  1.
          1    1    1    2  501    0 -0.23874791564E+02 -0.15438535128E+02 -0.30046139341E+02  0.41365740999E+02  0.00000000000E+00 0. -1.
<scales pt_clust_5="13000.00000" pt_clust_6="13000.00000" pt_clust_7="13000.00000" pt_clust_8="13000.00000" pt_clust_9="28.43158"></scales>
<clustering>
<clus scale="   28.432">  1  9  2 -1</clus>
<clus scale="   81.142">  5  6 -1 -1</clus>
<clus scale="   90.395">  7  8 -1 -1</clus>
<clus scale="  100.752">  2  5  1 -1</clus>
<clus scale="   28.432">  1  5  2 -1</clus>
</clustering>
</event>
<event>
 9    2  0.3764910E-005  0.1056015E+03  0.7546771E-02  0.1272986E+00
         21   -1    0    0  501  502  0.00000000000E+00  0.00000000000E+00  0.26130167752E+03  0.26130167752E+03  0.00000000000E+00 0. -1.
          2   -1    0    0  502    0 -0.00000000000E+00 -0.00000000000E+00 -0.21282901103E+03  0.21282901103E+03  0.00000000000E+00 0. -1.
         23    2    1    2    0    0  0.27347125377E+01  0.53385938508E+02 -0.13407675920E+03  0.17084988340E+03  0.91408797259E+02 0.  0.
         24    2    1    2    0    0 -0.53116599995E+02 -0.41924353454E+02 -0.71787965538E+01  0.10664281079E+03  0.82110470500E+02 0.  0.
        -13    1    4    4    0    0  0.18130041955E+02 -0.23006115636E+02  0.10001415283E+02  0.30951705698E+02  0.00000000000E+00 0.  1.
         14    1    4    4    0    0 -0.71246641950E+02 -0.18918237818E+02 -0.17180211836E+02  0.75691105092E+02  0.00000000000E+00 0. -1.
        -13    1    3    3    0    0 -0.20453065496E+02  0.18250295821E+02 -0.12475737114E+03  0.12773332705E+03  0.00000000000E+00 0. -1.
         13    1    3    3    0    0  0.23187778033E+02  0.35135642687E+02 -0.93193880557E+01  0.43116556343E+02  0.00000000000E+00 0.  1.
          1    1    1    2  501    0  0.50381887457E+02 -0.11461585054E+02  0.18972822224E+03  0.19663799437E+03  0.00000000000E+00 0. -1.
<scales pt_clust_5="13000.00000" pt_clust_6="13000.00000" pt_clust_7="13000.00000" pt_clust_8="13000.00000" pt_clust_9="51.66916"></scales>
<clustering>
<clus scale="   51.669">  1  9  2 -1</clus>
<clus scale="   82.110">  5  6 -1 -1</clus>
<clus scale="   91.409">  7  8 -1 -1</clus>
<clus scale="   97.664">  1  5  2 -1</clus>
<clus scale="   51.669">  1  5  2 -1</clus>
</clustering>
</event>
<event>
 9    2  0.3764910E-005  0.9674987E+02  0.7546771E-02  0.1293441E+00
         -3   -1    0    0    0  501 -0.00000000000E+00  0.00000000000E+00  0.19598387774E+03  0.19598387774E+03  0.00000000000E+00 0.  1.
         21   -1    0    0  501  502  0.00000000000E+00 -0.00000000000E+00 -0.13562131560E+03  0.13562131560E+03  0.00000000000E+00 0. -1.
         24    2    1    2    0    0 -0.25753369996E+02 -0.17434826376E+02  0.14523112621E+03  0.16928019521E+03  0.81218810845E+02 0.  0.
         23    2    1    2    0    0  0.25865230737E+02 -0.10372104809E+02 -0.30312350717E+02  0.10109087079E+03  0.92325158175E+02 0.  0.
        -13    1    3    3    0    0 -0.38184925197E+02 -0.43530364303E+02  0.91957707307E+02  0.10867014798E+03  0.00000000000E+00 0.  1.
         14    1    3    3    0    0  0.12431555201E+02  0.26095537927E+02  0.53273418902E+02  0.60610047236E+02  0.00000000000E+00 0. -1.
        -11    1    4    4    0    0 -0.26095204123E+02  0.12573439858E+02  0.10861988047E+02  0.30935963738E+02  0.00000000000E+00 0.  1.
         11    1    4    4    0    0  0.51960434860E+02 -0.22945544667E+02 -0.41174338763E+02  0.70154907052E+02  0.00000000000E+00 0. -1.
         -4    1    1    2    0  502 -0.11186074110E+00  0.27806931185E+02 -0.54556213354E+02  0.61234127333E+02  0.00000000000E+00 0.  1.
<scales pt_clust_5="13000.00000" pt_clust_6="13000.00000" pt_clust_7="13000.00000" pt_clust_8="13000.00000" pt_clust_9="27.80716"></scales>
<clustering>
<clus scale="   27.807">  2  9  1 -1</clus>
<clus scale="   81.219">  5  6 -1 -1</clus>
<clus scale="   86.215">  1  5  2 -1</clus>
<clus scale="   92.325">  7  8 -1 -1</clus>
<clus scale="   27.807">  2  5  1 -1</clus>
</clustering>
</event>
<event>
 9    2  0.4017153E-005  0.1000850E+03  0.7546771E-02  0.1285398E+00
         21   -1    0    0  501  502  0.00000000000E+00  0.00000000000E+00  0.71765821113E+02  0.71765821113E+02  0.00000000000E+00 0. -1.
         -1   -1    0    0    0  501 -0.00000000000E+00 -0.00000000000E+00 -0.32642148193E+03  0.32642148193E+03  0.00000000000E+00 0.  1.
         24    2    1    2    0    0  0.24067851610E+02  0.36790357982E+02 -0.13842791120E+03  0.16652706392E+03  0.81462779820E+02 0.  0.
         23    2    1    2    0    0 -0.36412392782E+02  0.67524759061E-02  0.10197783379E+02  0.99411116528E+02  0.91938636654E+02 0.  0.
        -13    1    3    3    0    0  0.34353195843E+02  0.49321622831E+02 -0.13775991067E+03  0.15030155531E+03  0.00000000000E+00 0.  1.
         14    1    3    3    0    0 -0.10285344233E+02 -0.12531264849E+02 -0.66800053448E+00  0.16225508603E+02  0.00000000000E+00 0. -1.
        -11    1    4    4    0    0 -0.14167638401E+02  0.31125603552E+02 -0.28855178639E+02  0.44745351810E+02  0.00000000000E+00 0.  1.
         11    1    4    4    0    0 -0.22244754381E+02 -0.31118851076E+02  0.39052962018E+02  0.54665764717E+02  0.00000000000E+00 0. -1.
         -2    1    1    2    0  502  0.12344541172E+02 -0.36797110458E+02 -0.12642553300E+03  0.13224912260E+03  0.00000000000E+00 0.  1.
<scales pt_clust_5="13000.00000" pt_clust_6="13000.00000" pt_clust_7="13000.00000" pt_clust_8="13000.00000" pt_clust_9="38.81258"></scales>
<clustering>
<clus scale="   38.813">  1  9  2 -1</clus>
<clus scale="   81.463">  5  6 -1 -1</clus>
<clus scale="   90.556">  2  5  1 -1</clus>
<clus scale="   91.939">  7  8 -1 -1</clus>
<clus scale="   38.813">  1  5  2 -1</clus>
</clustering>
</event>
<event>
 9    2  0.3764910E-005  0.9873162E+02  0.7546771E-02  0.1288192E+00
         -3   -1    0    0    0  501 -0.00000000000E+00  0.00000000000E+00  0.11542918573E+03  0.11542918573E+03  0.00000000000E+00 0.  1.
         21   -1    0    0  501  502  0.00000000000E+00 -0.00000000000E+00 -0.12802446162E+03  0.12802446162E+03  0.00000000000E+00 0. -1.
         23    2    1    2    0    0  0.19017263603E+02  0.47416025398E+02  0.36038404252E+02  0.10956376270E+03  0.89975083974E+02 0.  0.
         24    2    1    2    0    0  0.12593186944E+02 -0.29249937552E+02 -0.21687388135E+02  0.88554137334E+02  0.79732962008E+02 0.  0.
        -13    1    4    4    0    0  0.29174426259E+02  0.13255409960E+01  0.19141405564E+02  0.34918442311E+02  0.00000000000E+00 0.  1.
         14    1    4    4    0    0 -0.16581239315E+02 -0.30575478548E+02 -0.40828793699E+02  0.53635695023E+02  0.00000000000E+00 0. -1.
        -13    1    3    3    0    0  0.19887529816E+02  0.23928669073E+02  0.65120295288E+02  0.72171655822E+02  0.00000000000E+00 0.  1.
         13    1    3    3    0    0 -0.87026621319E+00  0.23487356325E+02 -0.29081891036E+02  0.37392106876E+02  0.00000000000E+00 0. -1.
         -4    1    1    2    0  502 -0.31610450546E+02 -0.18166087846E+02 -0.26946292012E+02  0.45335747314E+02  0.00000000000E+00 0.  1.
<scales pt_clust_5="13000.00000" pt_clust_6="13000.00000" pt_clust_7="13000.00000" pt_clust_8="13000.00000" pt_clust_9="36.45857"></scales>
<clustering>
<clus scale="   36.459">  2  9  1 -1</clus>
<clus scale="   79.733">  5  6 -1 -1</clus>
<clus scale="   89.497">  2  5  1 -1</clus>
<clus scale="   89.975">  7  8 -1 -1</clus>
<clus scale="   36.459">  2  5  1 -1</clus>
</clustering>
</event>
<event>
 9    2  0.3764910E-005  0.1198149E+03  0.7546771E-02  0.1249289E+00
          2   -1    0    0  502    0 -0.00000000000E+00  0.00000000000E+00  0.21336411537E+03  0.21336411537E+03  0.00000000000E+00 0. -1.
         21   -1    0    0  501  502  0.00000000000E+00 -0.00000000000E+00 -0.13632935220E+03  0.13632935220E+03  0.00000000000E+00 0.  1.
         24    2    1    2    0    0 -0.10364024900E+02  0.73632592794E+02  0.12512154894E+03  0.16549433453E+03  0.78764211537E+02 0.  0.
         23    2    1    2    0    0 -0.36786875366E+02 -0.65028518468E+02 -0.84296921794E+01  0.12199043138E+03  0.96065723462E+02 0.  0.
        -11    1    3    3    0    0  0.20573325011E+02 -0.18477860806E+00  0.50387806576E+01  0.21182189586E+02  0.00000000000E+00 0.  1.
         12    1    3    3    0    0 -0.30937349911E+02  0.73817371402E+02  0.12008276829E+03  0.14431214495E+03  0.00000000000E+00 0. -1.
        -13    1    4    4    0    0 -0.57792450829E+02 -0.55254578176E+02  0.22764287972E+02  0.83133919606E+02  0.00000000000E+00 0. -1.
         13    1    4    4    0    0  0.21005575463E+02 -0.97739402920E+01 -0.31193980152E+02  0.38856511772E+02  0.00000000000E+00 0.  1.
          1    1    1    2  501    0  0.47150900266E+02 -0.86040743259E+01 -0.39657093592E+02  0.62208701667E+02  0.00000000000E+00 0. -1.
<scales pt_clust_5="13000.00000" pt_clust_6="13000.00000" pt_clust_7="13000.00000" pt_clust_8="13000.00000" pt_clust_9="47.92951"></scales>
<clustering>
<clus scale="   47.930">  2  9  1 -1</clus>
<clus scale="   78.764">  5  6 -1 -1</clus>
<clus scale="   96.066">  7  8 -1 -1</clus>
<clus scale="  106.446">  1  5  2 -1</clus>
<clus scale="   47.930">  2  5  1 -1</clus>
</clustering>
</event>
<event>
 9    2  0.3764910E-005  0.1568133E+03  0.7546771E-02  0.1193967E+00
         21   -1    0    0  501  502  0.00000000000E+00  0.00000000000E+00  0.21879202609E+03  0.21879202609E+03  0.00000000000E+00 0.  1.
          2   -1    0    0  502    0 -0.00000000000E+00 -0.00000000000E+00 -0.29723197199E+03  0.29723197199E+03  0.00000000000E+00 0. -1.
         24    2    1    2    0    0  0.51228437143E+02  0.94212982948E+02  0.50697411034E+02  0.14349173675E+03  0.80741637962E+02 0.  0.
         23    2    1    2    0    0 -0.96054783051E+02 -0.12067220451E+03  0.50193033047E+02  0.18580015252E+03  0.90631417423E+02 0.  0.
        -11    1    3    3    0    0  0.68391521283E+02  0.85198687812E+02  0.56841531317E+02  0.12315509032E+03  0.00000000000E+00 0.  1.
         12    1    3    3    0    0 -0.17163084140E+02  0.90142951360E+01 -0.61441202830E+01  0.20336646430E+02  0.00000000000E+00 0. -1.
        -11    1    4    4    0    0 -0.97293088919E+02 -0.58883524009E+02  0.49409741681E+02  0.12399410117E+03  0.00000000000E+00 0. -1.
         11    1    4    4    0    0  0.12383058682E+01 -0.61788680498E+02  0.78329136639E+00  0.61806051358E+02  0.00000000000E+00 0.  1.
          1    1    1    2  501    0  0.44826345908E+02  0.26459221559E+02 -0.17933038997E+03  0.18673210881E+03  0.00000000000E+00 0. -1.
<scales pt_clust_5="13000.00000" pt_clust_6="13000.00000" pt_clust_7="13000.00000" pt_clust_8="13000.00000" pt_clust_9="52.05280"></scales>
<clustering>
<clus scale="   52.053">  1  9  2 -1</clus>
<clus scale="   80.742">  5  6 -1 -1</clus>
<clus scale="   90.631">  7  8 -1 -1</clus>
<clus scale="  151.313">  2  5  1 -1</clus>
<clus scale="   52.053">  1  5  2 -1</clus>
</clustering>
</event>
<event>
 9    2  0.3764910E-005  0.1359850E+03  0.7546771E-02  0.1221417E+00
          2   -1    0    0  502    0 -0.00000000000E+00  0.00000000000E+00  0.11341178982E+04  0.11341178982E+04  0.00000000000E+00 0. -1.
         21   -1    0    0  501  502  0.00000000000E+00 -0.00000000000E+00 -0.30573871408E+02  0.30573871408E+02  0.00000000000E+00 0. -1.
         24    2    1    2    0    0 -0.72670445189E+02 -0.59111617436E+02  0.92947910661E+03  0.93971528043E+03  0.10177534927E+03 0.  0.
         23    2    1    2    0    0  0.64157716649E+02  0.39190056625E+02  0.13146547674E+03  0.17718477742E+03  0.91973912764E+02 0.  0.
        -13    1    3    3    0    0 -0.19885651209E+02  0.12649032223E+02  0.45338290236E+02  0.51097922675E+02  0.00000000000E+00 0.  1.
         14    1    3    3    0    0 -0.52784793980E+02 -0.71760649659E+02  0.88414081638E+03  0.88861735775E+03  0.00000000000E+00 0. -1.
        -13    1    4    4    0    0  0.44036338643E+01  0.19808906452E+02 -0.98346291675E+01  0.22550048712E+02  0.00000000000E+00 0. -1.
         13    1    4    4    0    0  0.59754082785E+02  0.19381150172E+02  0.14130010591E+03  0.15463472870E+03  0.00000000000E+00 0.  1.
          1    1    1    2  501    0  0.85127285400E+01  0.19921560811E+02  0.42599443458E+02  0.47791711784E+02  0.00000000000E+00 0. -1.
<scales pt_clust_5="13000.00000" pt_clust_6="13000.00000" pt_clust_7="13000.00000" pt_clust_8="13000.00000" pt_clust_9="21.66414"></scales>
<clustering>
<clus scale="   21.664">  2  9  1 -1</clus>
<clus scale="   91.974">  7  8 -1 -1</clus>
<clus scale="  101.775">  5  6 -1 -1</clus>
<clus scale="  128.813">  2  7  1 -1</clus>
<clus scale="   21.664">  2  5  1 -1</clus>
</clustering>
</event>
<event>
 9    2  0.3764910E-005  0.9612045E+02  0.7546771E-02  0.1295526E+00
         21   -1    0    0  501  502  0.00000000000E+00  0.00000000000E+00  0.18383224324E+03  0.18383224324E+03  0.00000000000E+00 0. -1.
         -1   -1    0    0    0  501 -0.00000000000E+00 -0.00000000000E+00 -0.12205585089E+03  0.12205585089E+03  0.00000000000E+00 0.  1.
         23    2    1    2    0    0 -0.17313119768E+02  0.30081153479E+01 -0.11132561249E+02  0.94061401887E+02  0.91732330893E+02 0.  0.
         24    2    1    2    0    0  0.55554003674E+02 -0.35318634473E+02  0.10897328688E+03  0.15012603597E+03  0.79554988275E+02 0.  0.
        -11    1    4    4    0    0  0.20307526875E+02 -0.18894703734E+02 -0.63224229680E+01  0.28449578366E+02  0.00000000000E+00 0.  1.
         12    1    4    4    0    0  0.35246476798E+02 -0.16423930738E+02  0.11529570984E+03  0.12167645761E+03  0.00000000000E+00 0. -1.
        -13    1    3    3    0    0 -0.46539405937E+02  0.21971200610E+00 -0.33339830330E+02  0.57249531568E+02  0.00000000000E+00 0.  1.
         13    1    3    3    0    0  0.29226286169E+02  0.27884033419E+01  0.22207269081E+02  0.36811870320E+02  0.00000000000E+00 0. -1.
         -2    1    1    2    0  502 -0.38240883906E+02  0.32310519125E+02 -0.36064333280E+02  0.61700656260E+02  0.00000000000E+00 0.  1.
<scales pt_clust_5="13000.00000" pt_clust_6="13000.00000" pt_clust_7="13000.00000" pt_clust_8="13000.00000" pt_clust_9="50.06333"></scales>
<clustering>
<clus scale="   50.063">  1  9  2 -1</clus>
<clus scale="   79.555">  5  6 -1 -1</clus>
<clus scale="   84.577">  1  5  2 -1</clus>
<clus scale="   91.732">  7  8 -1 -1</clus>
<clus scale="   50.063">  1  5  2 -1</clus>
</clustering>
</event>
<event>
 9    2  0.3764910E-005  0.9400158E+02  0.7546771E-02  0.1300225E+00
          4   -1    0    0  502    0 -0.00000000000E+00  0.00000000000E+00  0.49270153941E+03  0.49270153941E+03  0.00000000000E+00 0. -1.
         21   -1    0    0  501  502  0.00000000000E+00 -0.00000000000E+00 -0.73868083501E+02  0.73868083501E+02  0.00000000000E+00 0.  1.
         24    2    1    2    0    0  0.21962063461E+02 -0.87974161914E+01  0.38954705252E+03  0.39852458495E+03  0.80716862683E+02 0.  0.
         23    2    1    2    0    0  0.31059130251E+02  0.25179482253E+02  0.45515699389E+02  0.11022627700E+03  0.92084077623E+02 0.  0.
        -13    1    3    3    0    0  0.23135279181E+02 -0.17061162215E+02  0.42102821478E+02  0.50980113528E+02  0.00000000000E+00 0.  1.
         14    1    3    3    0    0 -0.11732157195E+01  0.82637460239E+01  0.34744423104E+03  0.34754447142E+03  0.00000000000E+00 0. -1.
        -11    1    4    4    0    0  0.44494540064E+02  0.50355277899E+02  0.15804216944E+02  0.69030365644E+02  0.00000000000E+00 0.  1.
         11    1    4    4    0    0 -0.13435409813E+02 -0.25175795646E+02  0.29711482445E+02  0.41195911354E+02  0.00000000000E+00 0. -1.
          3    1    1    2  501    0 -0.53021193712E+02 -0.16382066062E+02 -0.16229295995E+02  0.57818760966E+02  0.00000000000E+00 0. -1.
<scales pt_clust_5="13000.00000" pt_clust_6="13000.00000" pt_clust_7="13000.00000" pt_clust_8="13000.00000" pt_clust_9="55.49432"></scales>
<clustering>
<clus scale="   55.494">  2  9  1 -1</clus>
<clus scale="   80.717">  5  6 -1 -1</clus>
<clus scale="   82.898">  1  5  2 -1</clus>
<clus scale="   92.084">  7  8 -1 -1</clus>
<clus scale="   55.494">  2  5  1 -1</clus>
</clustering>
</event>
<event>
 9    2  0.3764910E-005  0.1977007E+03  0.7546771E-02  0.1152363E+00
         21   -1    0    0  501  502  0.00000000000E+00  0.00000000000E+00  0.31897446688E+03  0.31897446688E+03  0.00000000000E+00 0.  1.
         -3   -1    0    0    0  501 -0.00000000000E+00 -0.00000000000E+00 -0.27595866680E+03  0.27595866680E+03  0.00000000000E+00 0.  1.
         23    2    1    2    0    0 -0.52497485816E+02 -0.11259829842E+03  0.20507669006E+02  0.15426033871E+03  0.89114111040E+02 0.  0.
         24    2    1    2    0    0  0.38267188847E+00  0.23774587443E+03 -0.87301232055E+02  0.26621372859E+03  0.82006078611E+02 0.  0.
        -13    1    4    4    0    0 -0.23816763101E+02  0.20782291318E+03 -0.89811545321E+02  0.22764822670E+03  0.00000000000E+00 0.  1.
         14    1    4    4    0    0  0.24199434990E+02  0.29922961246E+02  0.25103132660E+01  0.38565501893E+02  0.00000000000E+00 0. -1.
        -11    1    3    3    0    0 -0.67405568942E+02 -0.69054977226E+02 -0.12943589364E+02  0.97363427989E+02  0.00000000000E+00 0. -1.
         11    1    3    3    0    0  0.14908083125E+02 -0.43543321189E+02  0.33451258370E+02  0.56896910718E+02  0.00000000000E+00 0.  1.
         -4    1    1    2    0  502  0.52114813928E+02 -0.12514757601E+03  0.10980936313E+03  0.17445906638E+03  0.00000000000E+00 0.  1.
<scales pt_clust_5="13000.00000" pt_clust_6="13000.00000" pt_clust_7="13000.00000" pt_clust_8="13000.00000" pt_clust_9="135.56500"></scales>
<clustering>
<clus scale="   82.006">  5  6 -1 -1</clus>
<clus scale="   89.114">  7  8 -1 -1</clus>
<clus scale="  135.565">  1  9  2 -1</clus>
<clus scale="  194.600">  1  5  2 -1</clus>
<clus scale="  135.565">  1  5  2 -1</clus>
</clustering>
</event>
<event>
 9    2  0.3764910E-005  0.1031710E+03  0.7546771E-02  0.1279614E+00
          2   -1    0    0  502    0 -0.00000000000E+00  0.00000000000E+00  0.73041776784E+02  0.73041776784E+02  0.00000000000E+00 0. -1.
         21   -1    0    0  501  502  0.00000000000E+00 -0.00000000000E+00 -0.18300224600E+03  0.18300224600E+03  0.00000000000E+00 0. -1.
         24    2    1    2    0    0  0.62797180214E+02  0.64840278726E+01 -0.34382906014E+02  0.10651426144E+03  0.78597552155E+02 0.  0.
         23    2    1    2    0    0 -0.30346806788E+02 -0.77141892723E+01 -0.53323681765E+02  0.11016257612E+03  0.91169845580E+02 0.  0.
        -11    1    3    3    0    0 -0.27613728493E+01  0.24367938186E+02 -0.29532382476E+02  0.38387279224E+02  0.00000000000E+00 0.  1.
         12    1    3    3    0    0  0.65558553064E+02 -0.17883910313E+02 -0.48505235377E+01  0.68126982221E+02  0.00000000000E+00 0. -1.
        -13    1    4    4    0    0 -0.61814755199E+02  0.49052356855E+01 -0.29123569231E+02  0.68507719143E+02  0.00000000000E+00 0.  1.
         13    1    4    4    0    0  0.31467948411E+02 -0.12619424958E+02 -0.24200112533E+02  0.41654856981E+02  0.00000000000E+00 0. -1.
          1    1    1    2  501    0 -0.32450373427E+02  0.12301613996E+01 -0.22253881432E+02  0.39367185210E+02  0.00000000000E+00 0. -1.
<scales pt_clust_5="13000.00000" pt_clust_6="13000.00000" pt_clust_7="13000.00000" pt_clust_8="13000.00000" pt_clust_9="32.47368"></scales>
<clustering>
<clus scale="   32.474">  2  9  1 -1</clus>
<clus scale="   78.598">  5  6 -1 -1</clus>
<clus scale="   91.170">  7  8 -1 -1</clus>
<clus scale="   92.249">  1  5  2 -1</clus>
<clus scale="   32.474">  2  5  1 -1</clus>
</clustering>
</event>
<event>
 9    2  0.3764910E-005  0.9154707E+02  0.7546771E-02  0.1306015E+00
         21   -1    0    0  501  502  0.00000000000E+00  0.00000000000E+00  0.37348320249E+02  0.37348320249E+02  0.00000000000E+00 0.  1.
          2   -1    0    0  502    0 -0.00000000000E+00 -0.00000000000E+00 -0.72621901295E+03  0.72621901295E+03  0.00000000000E+00 0. -1.
         24    2    1    2    0    0  0.21391150747E+01 -0.15227286128E+02 -0.54406001325E+03  0.55016274254E+03  0.80257704956E+02 0.  0.
         23    2    1    2    0    0  0.11286098396E+02 -0.39797705854E+02 -0.93691726181E+02  0.13710823765E+03  0.91155339222E+02 0.  0.
        -13    1    3    3    0    0  0.25777555089E+02  0.23271373212E+02 -0.18087226848E+03  0.18417604802E+03  0.00000000000E+00 0.  1.
         14    1    3    3    0    0 -0.23638440015E+02 -0.38498659341E+02 -0.36318774476E+03  0.36598669452E+03  0.00000000000E+00 0. -1.
        -11    1    4    4    0    0  0.29281595351E+02 -0.60007114174E+02 -0.42339899730E+02  0.79062840114E+02  0.00000000000E+00 0.  1.
         11    1    4    4    0    0 -0.17995496955E+02  0.20209408320E+02 -0.51351826451E+02  0.58045397536E+02  0.00000000000E+00 0. -1.
          1    1    1    2  501    0 -0.13425213471E+02  0.55024991983E+02 -0.51118953277E+02  0.76296353016E+02  0.00000000000E+00 0. -1.
<scales pt_clust_5="13000.00000" pt_clust_6="13000.00000" pt_clust_7="13000.00000" pt_clust_8="13000.00000" pt_clust_9="56.63909"></scales>
<clustering>
<clus scale="   56.639">  1  9  2 -1</clus>
<clus scale="   80.258">  5  6 -1 -1</clus>
<clus scale="   80.702">  2  5  1 -1</clus>
<clus scale="   91.155">  7  8 -1 -1</clus>
<clus scale="   56.639">  1  5  2 -1</clus>
</clustering>
</event>
<event>
 9    2  0.3764910E-005  0.1089065E+03  0.7546771E-02  0.1266313E+00
         21   -1    0    0  501  502  0.00000000000E+00  0.00000000000E+00  0.15786509741E+03  0.15786509741E+03  0.00000000000E+00 0.  1.
          2   -1    0    0  502    0 -0.00000000000E+00 -0.00000000000E+00 -0.58577599691E+03  0.58577599691E+03  0.00000000000E+00 0. -1.
         23    2    1    2    0    0 -0.42248430769E+02 -0.47909240983E+02 -0.55166709624E+03  0.56255159662E+03  0.89707795116E+02 0.  0.
         24    2    1    2    0    0  0.30617240435E+02  0.14903829657E+02  0.52795747793E+02  0.10196916479E+03  0.80316748141E+02 0.  0.
        -13    1    4    4    0    0  0.58443106181E+01  0.46603849519E+02  0.26963769637E+02  0.54158283112E+02  0.00000000000E+00 0.  1.
         14    1    4    4    0    0  0.24772929817E+02 -0.31700019862E+02  0.25831978156E+02  0.47810881674E+02  0.00000000000E+00 0. -1.
        -11    1    3    3    0    0 -0.23180458681E+02  0.25208914789E+02 -0.19237525346E+03  0.19539974717E+03  0.00000000000E+00 0.  1.
         11    1    3    3    0    0 -0.19067972089E+02 -0.73118155772E+02 -0.35929184278E+03  0.36715184945E+03  0.00000000000E+00 0. -1.
          1    1    1    2  501    0  0.11631190334E+02  0.33005411326E+02  0.70960448951E+02  0.79120332916E+02  0.00000000000E+00 0. -1.
<scales pt_clust_5="13000.00000" pt_clust_6="13000.00000" pt_clust_7="13000.00000" pt_clust_8="13000.00000" pt_clust_9="34.99488"></scales>
<clustering>
<clus scale="   34.995">  1  9  2 -1</clus>
<clus scale="   80.317">  5  6 -1 -1</clus>
<clus scale="   89.708">  7  8 -1 -1</clus>
<clus scale="  101.311">  1  5  2 -1</clus>
<clus scale="   34.995">  1  5  2 -1</clus>
</clustering>
</event>
<event>
 9    2  0.3764910E-005  0.1021911E+03  0.7546771E-02  0.1280650E+00
          2   -1    0    0  502    0 -0.00000000000E+00  0.00000000000E+00  0.31169432248E+03  0.31169432248E+03  0.00000000000E+00 0. -1.
         21   -1    0    0  501  502  0.00000000000E+00 -0.00000000000E+00 -0.15645706437E+03  0.15645706437E+03  0.00000000000E+00 0.  1.
         23    2    1    2    0    0  0.35230743567E+02 -0.35405255729E+02  0.26832440757E+03  0.28805058415E+03  0.92089162820E+02 0.  0.
         24    2    1    2    0    0  0.61136883238E+01 -0.47686893420E+01 -0.72218661997E+02  0.10943581009E+03  0.81856849484E+02 0.  0.
        -11    1    4    4    0    0 -0.21193165637E+02 -0.29195777605E+02 -0.61433395920E+02  0.71243286237E+02  0.00000000000E+00 0.  1.
         12    1    4    4    0    0  0.27306853961E+02  0.24427088263E+02 -0.10785266077E+02  0.38192523857E+02  0.00000000000E+00 0. -1.
        -13    1    3    3    0    0 -0.26741058722E+02 -0.29067910678E+02  0.13903020000E+03  0.14453174103E+03  0.00000000000E+00 0.  1.
         13    1    3    3    0    0  0.61971802289E+02 -0.63373450503E+01  0.12929420757E+03  0.14351884313E+03  0.00000000000E+00 0. -1.
          1    1    1    2  501    0 -0.41344431891E+02  0.40173945071E+02 -0.40868487462E+02  0.70664992594E+02  0.00000000000E+00 0. -1.
<scales pt_clust_5="13000.00000" pt_clust_6="13000.00000" pt_clust_7="13000.00000" pt_clust_8="13000.00000" pt_clust_9="57.64814"></scales>
<clustering>
<clus scale="   57.648">  2  9  1 -1</clus>
<clus scale="   81.857">  5  6 -1 -1</clus>
<clus scale="   92.089">  7  8 -1 -1</clus>
<clus scale="   93.076">  2  5  1 -1</clus>
<clus scale="   57.648">  2  5  1 -1</clus>
</clustering>
</event>
<event>
 9    2  0.3764910E-005  0.9795491E+02  0.7546771E-02  0.1290956E+00
         21   -1    0    0  501  502  0.00000000000E+00  0.00000000000E+00  0.10529051152E+03  0.10529051152E+03  0.00000000000E+00 0.  1.
          4   -1    0    0  502    0 -0.00000000000E+00 -0.00000000000E+00 -0.15189592079E+03  0.15189592079E+03  0.00000000000E+00 0. -1.
         23    2    1    2    0    0 -0.32967069575E+02 -0.11204751912E+02 -0.90244163103E+02  0.13317190926E+03  0.91533460007E+02 0.  0.
         24    2    1    2    0    0  0.38291831518E+02 -0.95494144349E+01  0.18272134990E+02  0.90809796546E+02  0.79718834378E+02 0.  0.
        -11    1    4    4    0    0  0.35125386474E+02 -0.77711324652E+01  0.48488226491E+02  0.60376248501E+02  0.00000000000E+00 0.  1.
         12    1    4    4    0    0  0.31664450438E+01 -0.17782819697E+01 -0.30216091502E+02  0.30433548045E+02  0.00000000000E+00 0. -1.
        -11    1    3    3    0    0  0.17195501872E+02 -0.18974879113E+02  0.42013785813E+01  0.25949622424E+02  0.00000000000E+00 0.  1.
         11    1    3    3    0    0 -0.50162571447E+02  0.77701272016E+01 -0.94445541684E+02  0.10722228684E+03  0.00000000000E+00 0. -1.
          3    1    1    2  501    0 -0.53247619425E+01  0.20754166346E+02  0.25366618842E+02  0.33204726500E+02  0.00000000000E+00 0. -1.
<scales pt_clust_5="13000.00000" pt_clust_6="13000.00000" pt_clust_7="13000.00000" pt_clust_8="13000.00000" pt_clust_9="21.42635"></scales>
<clustering>
<clus scale="   21.426">  1  9  2 -1</clus>
<clus scale="   79.719">  5  6 -1 -1</clus>
<clus scale="   87.017">  1  5  2 -1</clus>
<clus scale="   91.533">  7  8 -1 -1</clus>
<clus scale="   21.426">  1  5  2 -1</clus>
</clustering>
</event>
<event>
 9    2  0.3764910E-005  0.1555713E+03  0.7546771E-02  0.1195748E+00
         21   -1    0    0  501  502  0.00000000000E+00  0.00000000000E+00  0.16617610015E+03  0.16617610015E+03  0.00000000000E+00 0.  1.
          2   -1    0    0  502    0 -0.00000000000E+00 -0.00000000000E+00 -0.40518074694E+03  0.40518074694E+03  0.00000000000E+00 0. -1.
         23    2    1    2    0    0 -0.11717685311E+03  0.77696441005E+02 -0.26283043830E+03  0.31196912853E+03  0.92074676286E+02 0.  0.
         24    2    1    2    0    0  0.68987023804E+02  0.88177583620E+01  0.90757519908E+02  0.13986022128E+03  0.80541863401E+02 0.  0.
        -13    1    4    4    0    0  0.70690327630E+02  0.33435649495E+02  0.82900189471E+02  0.11396274168E+03  0.00000000000E+00 0.  1.
         14    1    4    4    0    0 -0.17033038261E+01 -0.24617891133E+02  0.78573304377E+01  0.25897479595E+02  0.00000000000E+00 0. -1.
        -11    1    3    3    0    0  0.10653998758E+02  0.29636339881E+02 -0.48635651651E+02  0.57941754742E+02  0.00000000000E+00 0.  1.
         11    1    3    3    0    0 -0.12783085186E+03  0.48060101123E+02 -0.21419478665E+03  0.25402737379E+03  0.00000000000E+00 0. -1.
          1    1    1    2  501    0  0.48189829302E+02 -0.86514199367E+02 -0.66931728398E+02  0.11952749728E+03  0.00000000000E+00 0. -1.
<scales pt_clust_5="13000.00000" pt_clust_6="13000.00000" pt_clust_7="13000.00000" pt_clust_8="13000.00000" pt_clust_9="99.03018"></scales>
<clustering>
<clus scale="   80.542">  5  6 -1 -1</clus>
<clus scale="   92.075">  7  8 -1 -1</clus>
<clus scale="   99.030">  1  9  2 -1</clus>
<clus scale="  149.036">  1  5  2 -1</clus>
<clus scale="   99.030">  1  5  2 -1</clus>
</clustering>
</event>
<event>
 9    2  0.3764910E-005  0.8995854E+02  0.7546771E-02  0.1308412E+00
         21   -1    0    0  501  502  0.00000000000E+00  0.00000000000E+00  0.12806227510E+03  0.12806227510E+03  0.00000000000E+00 0.  1.
         -3   -1    0    0    0  501 -0.00000000000E+00 -0.00000000000E+00 -0.15880473622E+03  0.15880473622E+03  0.00000000000E+00 0.  1.
         24    2    1    2    0    0 -0.11345817436E+02 -0.47475362409E+01 -0.72032969720E+02  0.10881417650E+03  0.80625737868E+02 0.  0.
         23    2    1    2    0    0 -0.43073094285E+02  0.38752153765E+02  0.40584945005E+02  0.11387939962E+03  0.89243257583E+02 0.  0.
        -13    1    3    3    0    0 -0.37912611754E+02  0.13113905082E+02 -0.64450110775E+02  0.75915462295E+02  0.00000000000E+00 0.  1.
         14    1    3    3    0    0  0.26566794319E+02 -0.17861441323E+02 -0.75828589452E+01  0.32898714204E+02  0.00000000000E+00 0. -1.
        -13    1    4    4    0    0 -0.35869828598E+02  0.65384521895E+02  0.43167166758E+02  0.86169510808E+02  0.00000000000E+00 0.  1.
         13    1    4    4    0    0 -0.72032656877E+01 -0.26632368130E+02 -0.25822217528E+01  0.27709888812E+02  0.00000000000E+00 0. -1.
         -4    1    1    2    0  502  0.54418911721E+02 -0.34004617524E+02  0.70556358869E+00  0.64173435203E+02  0.00000000000E+00 0.  1.
<scales pt_clust_5="13000.00000" pt_clust_6="13000.00000" pt_clust_7="13000.00000" pt_clust_8="13000.00000" pt_clust_9="64.16956"></scales>
<clustering>
<clus scale="   64.170">  1  9  2 -1</clus>
<clus scale="   80.626">  5  6 -1 -1</clus>
<clus scale="   81.417">  2  5  1 -1</clus>
<clus scale="   89.243">  7  8 -1 -1</clus>
<clus scale="   64.170">  1  5  2 -1</clus>
</clustering>
</event>
<event>
 9    2  0.3764910E-005  0.1130329E+03  0.7546771E-02  0.1258234E+00
         21   -1    0    0  501  502  0.00000000000E+00  0.00000000000E+00  0.27974413607E+02  0.27974413607E+02  0.00000000000E+00 0. -1.
          2   -1    0    0  502    0 -0.00000000000E+00 -0.00000000000E+00 -0.54315260880E+03  0.54315260880E+03  0.00000000000E+00 0. -1.
         24    2    1    2    0    0 -0.76055044994E+02  0.18281407398E+02 -0.25849694440E+03  0.28203207164E+03  0.81257857714E+02 0.  0.
         23    2    1    2    0    0  0.51781468168E+02 -0.24764585052E+02 -0.19199212096E+03  0.21969810904E+03  0.90064862656E+02 0.  0.
        -11    1    3    3    0    0 -0.57215477618E+01 -0.25631818450E+02 -0.35802141072E+02  0.44401796486E+02  0.00000000000E+00 0.  1.
         12    1    3    3    0    0 -0.70333497232E+02  0.43913225848E+02 -0.22269480333E+03  0.23763027515E+03  0.00000000000E+00 0. -1.
        -11    1    4    4    0    0 -0.22598993163E+02  0.97287960937E+01 -0.50277921352E+02  0.55975292236E+02  0.00000000000E+00 0.  1.
         11    1    4    4    0    0  0.74380461331E+02 -0.34493381146E+02 -0.14171419961E+03  0.16372281681E+03  0.00000000000E+00 0. -1.
          1    1    1    2  501    0  0.24273576826E+02  0.64831776545E+01 -0.64689129823E+02  0.69396841727E+02  0.00000000000E+00 0. -1.
<scales pt_clust_5="13000.00000" pt_clust_6="13000.00000" pt_clust_7="13000.00000" pt_clust_8="13000.00000" pt_clust_9="25.12447"></scales>
<clustering>
<clus scale="   25.124">  1  9  2 -1</clus>
<clus scale="   81.258">  5  6 -1 -1</clus>
<clus scale="   90.065">  7  8 -1 -1</clus>
<clus scale="  106.149">  2  5  1 -1</clus>
<clus scale="   25.124">  1  5  2 -1</clus>
</clustering>
</event>
<event>
 9    2  0.1064882E-004  0.9246406E+02  0.7546771E-02  0.1298004E+00
         21   -1    0    0  501  502  0.00000000000E+00  0.00000000000E+00  0.28282411746E+03  0.28282411746E+03  0.00000000000E+00 0.  1.
         -1   -1    0    0    0  501 -0.00000000000E+00 -0.00000000000E+00 -0.18099292766E+03  0.18099292766E+03  0.00000000000E+00 0.  1.
         23    2    1    2    0    0  0.19562120543E+02  0.40662390773E+02 -0.13000221042E+03  0.16067399179E+03  0.82942451983E+02 0.  0.
         24    2    1    2    0    0  0.16578815053E+02 -0.32960143072E+02  0.24218650459E+02  0.92265420165E+02  0.81025530472E+02 0.  0.
        -13    1    4    4    0    0  0.16860034191E+02  0.14292525669E+02 -0.18302502281E+02  0.28697014351E+02  0.00000000000E+00 0.  1.
         14    1    4    4    0    0 -0.28121913804E+00 -0.47252668741E+02  0.42521152741E+02  0.63568405814E+02  0.00000000000E+00 0. -1.
        -11    1    3    3    0    0  0.21964440674E+02 -0.42404069221E+01  0.77339891265E+00  0.22383383365E+02  0.00000000000E+00 0. -1.
         11    1    3    3    0    0 -0.24023201308E+01  0.44902797695E+02 -0.13077560933E+03  0.13829060843E+03  0.00000000000E+00 0.  1.
         -2    1    1    2    0  502 -0.36140935596E+02 -0.77022477010E+01  0.20761474977E+03  0.21087763316E+03  0.00000000000E+00 0.  1.
<scales pt_clust_5="13000.00000" pt_clust_6="13000.00000" pt_clust_7="13000.00000" pt_clust_8="13000.00000" pt_clust_9="36.95256"></scales>
<clustering>
<clus scale="   36.953">  1  9  2 -1</clus>
<clus scale="   81.026">  5  6 -1 -1</clus>
<clus scale="   82.942">  7  8 -1 -1</clus>
<clus scale="   90.748">  1  5  2 -1</clus>
<clus scale="   36.953">  1  5  2 -1</clus>
</clustering>
</event>
<event>
 9    2  0.3764910E-005  0.1200999E+03  0.7546771E-02  0.1244848E+00
         -1   -1    0    0    0  501 -0.00000000000E+00  0.00000000000E+00  0.43642564876E+03  0.43642564876E+03  0.00000000000E+00 0.  1.
         21   -1    0    0  501  502  0.00000000000E+00 -0.00000000000E+00 -0.64010467196E+02  0.64010467196E+02  0.00000000000E+00 0.  1.
         23    2    1    2    0    0  0.12507277822E+02 -0.74334808135E+02  0.17977656820E+03  0.21421658247E+03  0.88808974966E+02 0.  0.
         24    2    1    2    0    0 -0.87480595651E+02  0.63174683229E+02  0.12595615435E+03  0.18526361679E+03  0.82545500616E+02 0.  0.
        -11    1    4    4    0    0 -0.87626107332E+02  0.69375197085E+02  0.13439232140E+03  0.17479287373E+03  0.00000000000E+00 0.  1.
         12    1    4    4    0    0  0.14551168079E+00 -0.62005138556E+01 -0.84361670503E+01  0.10470743060E+02  0.00000000000E+00 0. -1.
        -11    1    3    3    0    0 -0.23064605983E+02 -0.40267353404E+02  0.14918471835E+03  0.15623545049E+03  0.00000000000E+00 0.  1.
         11    1    3    3    0    0  0.35571883805E+02 -0.34067454731E+02  0.30591849845E+02  0.57981131985E+02  0.00000000000E+00 0. -1.
         -2    1    1    2    0  502  0.74973317829E+02  0.11160124905E+02  0.66682459021E+02  0.10095591669E+03  0.00000000000E+00 0.  1.
<scales pt_clust_5="13000.00000" pt_clust_6="13000.00000" pt_clust_7="13000.00000" pt_clust_8="13000.00000" pt_clust_9="75.79939"></scales>
<clustering>
<clus scale="   75.799">  2  9  1 -1</clus>
<clus scale="   82.546">  5  6 -1 -1</clus>
<clus scale="   88.809">  7  8 -1 -1</clus>
<clus scale="  115.545">  2  5  1 -1</clus>
<clus scale="   75.799">  2  5  1 -1</clus>
</clustering>
</event>
<event>
 9    2  0.3764910E-005  0.1390372E+03  0.7546771E-02  0.1227335E+00
         21   -1    0    0  501  502  0.00000000000E+00  0.00000000000E+00  0.19596860283E+03  0.19596860283E+03  0.00000000000E+00 0.  1.
         -1   -1    0    0    0  501 -0.00000000000E+00 -0.00000000000E+00 -0.42544052176E+03  0.42544052176E+03  0.00000000000E+00 0.  1.
         23    2    1    2    0    0 -0.48338068368E+02 -0.24931732559E+02 -0.32852005027E+03  0.34536016366E+03  0.91597265658E+02 0.  0.
         24    2    1    2    0    0  0.78691842084E+02 -0.85934314694E+02  0.62246198342E+02  0.15535507424E+03  0.81752660081E+02 0.  0.
        -11    1    4    4    0    0  0.77377796781E+02 -0.77243218656E+02  0.18688497170E+02  0.11091933190E+03  0.00000000000E+00 0.  1.
         12    1    4    4    0    0  0.13140453030E+01 -0.86910960382E+01  0.43557701172E+02  0.44435742335E+02  0.00000000000E+00 0. -1.
        -11    1    3    3    0    0  0.92930460854E+01 -0.37411193502E+02 -0.67213702246E+02  0.77483158650E+02  0.00000000000E+00 0.  1.
         11    1    3    3    0    0 -0.57631114453E+02  0.12479460943E+02 -0.26130634802E+03  0.26787700501E+03  0.00000000000E+00 0. -1.
         -2    1    1    2    0  502 -0.30353773716E+02  0.11086604725E+03  0.36801932997E+02  0.12069388669E+03  0.00000000000E+00 0.  1.
<scales pt_clust_5="13000.00000" pt_clust_6="13000.00000" pt_clust_7="13000.00000" pt_clust_8="13000.00000" pt_clust_9="112.46271"></scales>
<clustering>
<clus scale="   81.753">  5  6 -1 -1</clus>
<clus scale="   91.597">  7  8 -1 -1</clus>
<clus scale="  106.528">  2  7  1 -1</clus>
<clus scale="  112.463">  1  9  2 -1</clus>
<clus scale="  112.463">  1  5  2 -1</clus>
</clustering>
</event>
<event>
 9    2  0.3764910E-005  0.1384422E+03  0.7546771E-02  0.1217831E+00
         21   -1    0    0  501  502  0.00000000000E+00  0.00000000000E+00  0.97826835658E+02  0.97826835658E+02  0.00000000000E+00 0.  1.
          2   -1    0    0  502    0 -0.00000000000E+00 -0.00000000000E+00 -0.11686459127E+04  0.11686459127E+04  0.00000000000E+00 0. -1.
         24    2    1    2    0    0  0.67776485749E+02  0.78140016525E+02 -0.10591895855E+04  0.10671788400E+04  0.79300595478E+02 0.  0.
         23    2    1    2    0    0 -0.94858255713E+02 -0.99342003315E+02 -0.57816693174E+01  0.16440632408E+03  0.90161462925E+02 0.  0.
        -11    1    3    3    0    0 -0.51840221009E+01  0.24728665800E+02 -0.81740814292E+02  0.85556657944E+02  0.00000000000E+00 0.  1.
         12    1    3    3    0    0  0.72960507850E+02  0.53411350725E+02 -0.97744877119E+03  0.98162218210E+03  0.00000000000E+00 0. -1.
        -11    1    4    4    0    0 -0.74534990816E+02 -0.76030204161E+02 -0.44032545826E+02  0.11521684726E+03  0.00000000000E+00 0. -1.
         11    1    4    4    0    0 -0.20323264897E+02 -0.23311799154E+02  0.38250876508E+02  0.49189476817E+02  0.00000000000E+00 0.  1.
          1    1    1    2  501    0  0.27081769964E+02  0.21201986789E+02 -0.58478222305E+01  0.34887584225E+02  0.00000000000E+00 0. -1.
<scales pt_clust_5="13000.00000" pt_clust_6="13000.00000" pt_clust_7="13000.00000" pt_clust_8="13000.00000" pt_clust_9="34.39399"></scales>
<clustering>
<clus scale="   34.394">  1  9  2 -1</clus>
<clus scale="   79.301">  5  6 -1 -1</clus>
<clus scale="   90.161">  7  8 -1 -1</clus>
<clus scale="  131.627">  2  5  1 -1</clus>
<clus scale="   34.394">  1  5  2 -1</clus>
</clustering>
</event>
<event>
 9    2  0.3764910E-005  0.9034668E+02  0.7546771E-02  0.1307777E+00
         -1   -1    0    0    0  501 -0.00000000000E+00  0.00000000000E+00  0.16859738865E+03  0.16859738865E+03  0.00000000000E+00 0.  1.
         21   -1    0    0  501  502  0.00000000000E+00 -0.00000000000E+00 -0.23523102163E+03  0.23523102163E+03  0.00000000000E+00 0.  1.
         23    2    1    2    0    0  0.28019080253E+01 -0.27947234863E+01  0.11802693559E+03  0.14845183212E+03  0.89955143086E+02 0.  0.
         24    2    1    2    0    0 -0.23061165346E+02  0.77208427487E+01 -0.16646229094E+02  0.86073529089E+02  0.80871049869E+02 0.  0.
        -13    1    4    4    0    0 -0.27487516222E+02 -0.15159040677E+02  0.23800747552E+02  0.39393345204E+02  0.00000000000E+00 0.  1.
         14    1    4    4    0    0  0.44263508764E+01  0.22879883426E+02 -0.40446976646E+02  0.46680183885E+02  0.00000000000E+00 0. -1.
        -11    1    3    3    0    0  0.13183586407E+02 -0.44046796077E+02  0.74828175896E+02  0.87824729451E+02  0.00000000000E+00 0. -1.
         11    1    3    3    0    0 -0.10381678381E+02  0.41252072591E+02  0.43198759690E+02  0.60627102667E+02  0.00000000000E+00 0.  1.
         -2    1    1    2    0  502  0.20259257321E+02 -0.49261192623E+01 -0.16801433947E+03  0.16930304907E+03  0.00000000000E+00 0.  1.
<scales pt_clust_5="13000.00000" pt_clust_6="13000.00000" pt_clust_7="13000.00000" pt_clust_8="13000.00000" pt_clust_9="20.84956"></scales>
<clustering>
<clus scale="   20.850">  2  9  1 -1</clus>
<clus scale="   80.871">  5  6 -1 -1</clus>
<clus scale="   81.306">  2  5  1 -1</clus>
<clus scale="   89.955">  7  8 -1 -1</clus>
<clus scale="   20.850">  2  5  1 -1</clus>
</clustering>
</event>
<event>
 9    2  0.3764911E-005  0.1076375E+03  0.7546771E-02  0.1269009E+00
         -3   -1    0    0    0  501 -0.00000000000E+00  0.00000000000E+00  0.44039961525E+03  0.44039961525E+03  0.00000000000E+00 0.  1.
         21   -1    0    0  501  502  0.00000000000E+00 -0.00000000000E+00 -0.76671641194E+02  0.76671641194E+02  0.00000000000E+00 0.  1.
         24    2    1    2    0    0  0.47305736855E+02  0.93182944935E+01  0.31923415073E+03  0.33815804012E+03  0.10057710354E+03 0.  0.
         23    2    1    2    0    0 -0.76351882820E+00  0.44517762408E+02  0.26288164450E+02  0.10545611934E+03  0.91910344282E+02 0.  0.
        -13    1    3    3    0    0  0.66773963077E+02  0.29513734544E+02  0.28338883821E+03  0.29264151498E+03  0.00000000000E+00 0.  1.
         14    1    3    3    0    0 -0.19468226221E+02 -0.20195440050E+02  0.35845312523E+02  0.45516525141E+02  0.00000000000E+00 0. -1.
        -11    1    4    4    0    0 -0.78516237768E+01  0.66733703822E+02 -0.39036016332E+01  0.67307305156E+02  0.00000000000E+00 0.  1.
         11    1    4    4    0    0  0.70881049486E+01 -0.22215941414E+02  0.30191766083E+02  0.38148814187E+02  0.00000000000E+00 0. -1.
         -4    1    1    2    0  502 -0.46542218027E+02 -0.53836056901E+02  0.18205658880E+02  0.73457096981E+02  0.00000000000E+00 0.  1.
<scales pt_clust_5="13000.00000" pt_clust_6="13000.00000" pt_clust_7="13000.00000" pt_clust_8="13000.00000" pt_clust_9="71.16529"></scales>
<clustering>
<clus scale="   71.165">  2  9  1 -1</clus>
<clus scale="   91.910">  7  8 -1 -1</clus>
<clus scale="   99.587">  2  7  1 -1</clus>
<clus scale="  100.577">  5  6 -1 -1</clus>
<clus scale="   71.165">  2  5  1 -1</clus>
</clustering>
</event>
<event>
 9    2  0.3764910E-005  0.1006274E+03  0.7546771E-02  0.1286910E+00
          2   -1    0    0  502    0 -0.00000000000E+00  0.00000000000E+00  0.18816671161E+03  0.18816671161E+03  0.00000000000E+00 0. -1.
         21   -1    0    0  501  502  0.00000000000E+00 -0.00000000000E+00 -0.19859152523E+03  0.19859152523E+03  0.00000000000E+00 0.  1.
         24    2    1    2    0    0 -0.32906462072E+02  0.45607422654E+02  0.90989193525E+02  0.13419030481E+03  0.81025504128E+02 0.  0.
         23    2    1    2    0    0 -0.21100518781E+02  0.22742369866E+01  0.29966952982E+02  0.10266675127E+03  0.95875124508E+02 0.  0.
        -11    1    3    3    0    0 -0.25979094942E+02 -0.54107695341E+01  0.76100375493E+02  0.80594397766E+02  0.00000000000E+00 0.  1.
         12    1    3    3    0    0 -0.69273671292E+01  0.51018192188E+02  0.14888818032E+02  0.53595907044E+02  0.00000000000E+00 0. -1.
        -11    1    4    4    0    0  0.32908809045E+02 -0.19870829453E+02  0.20383124273E+02  0.43512197497E+02  0.00000000000E+00 0. -1.
         11    1    4    4    0    0 -0.54009327826E+02  0.22145066439E+02  0.95838287093E+01  0.59154553777E+02  0.00000000000E+00 0.  1.
          1    1    1    2  501    0  0.54006980853E+02 -0.47881659640E+02 -0.13138096013E+03  0.14990118076E+03  0.00000000000E+00 0. -1.
<scales pt_clust_5="13000.00000" pt_clust_6="13000.00000" pt_clust_7="13000.00000" pt_clust_8="13000.00000" pt_clust_9="72.17622"></scales>
<clustering>
<clus scale="   72.176">  2  9  1 -1</clus>
<clus scale="   81.026">  5  6 -1 -1</clus>
<clus scale="   86.597">  1  5  2 -1</clus>
<clus scale="   95.875">  7  8 -1 -1</clus>
<clus scale="   72.176">  2  5  1 -1</clus>
</clustering>
</event>
<event>
 9    2  0.3764910E-005  0.9944024E+02  0.7546771E-02  0.1289983E+00
          2   -1    0    0  502    0 -0.00000000000E+00  0.00000000000E+00  0.15043661144E+03  0.15043661144E+03  0.00000000000E+00 0. -1.
         21   -1    0    0  501  502  0.00000000000E+00 -0.00000000000E+00 -0.19319198381E+03  0.19319198381E+03  0.00000000000E+00 0. -1.
         23    2    1    2    0    0  0.31984988141E+01  0.25076237023E+02  0.63600610990E+02  0.11603729956E+03  0.93704690989E+02 0.  0.
         24    2    1    2    0    0 -0.62409170242E+02 -0.19520763547E+02  0.44899087174E+01  0.10179948877E+03  0.77891025760E+02 0.  0.
        -13    1    4    4    0    0 -0.10833935774E+02 -0.43390666283E+02  0.46901691447E+01  0.44968008310E+02  0.00000000000E+00 0.  1.
         14    1    4    4    0    0 -0.51575234468E+02  0.23869902736E+02 -0.20026042730E+00  0.56831480460E+02  0.00000000000E+00 0. -1.
        -13    1    3    3    0    0  0.90483904391E+01 -0.18130453301E+02 -0.15637656944E+02  0.25595371088E+02  0.00000000000E+00 0.  1.
         13    1    3    3    0    0 -0.58498916250E+01  0.43206690325E+02  0.79238267934E+02  0.90441928473E+02  0.00000000000E+00 0. -1.
          1    1    1    2  501    0  0.59210671427E+02 -0.55554734766E+01 -0.11084589208E+03  0.12579180692E+03  0.00000000000E+00 0. -1.
<scales pt_clust_5="13000.00000" pt_clust_6="13000.00000" pt_clust_7="13000.00000" pt_clust_8="13000.00000" pt_clust_9="59.47072"></scales>
<clustering>
<clus scale="   59.471">  2  9  1 -1</clus>
<clus scale="   77.891">  5  6 -1 -1</clus>
<clus scale="   84.704">  2  5  1 -1</clus>
<clus scale="   93.705">  7  8 -1 -1</clus>
<clus scale="   59.471">  2  5  1 -1</clus>
</clustering>
</event>
<event>
 9    2  0.3764910E-005  0.1155072E+03  0.7546771E-02  0.1253679E+00
          2   -1    0    0  502    0 -0.00000000000E+00  0.00000000000E+00  0.91573862859E+03  0.91573862859E+03  0.00000000000E+00 0. -1.
         21   -1    0    0  501  502  0.00000000000E+00 -0.00000000000E+00 -0.16775707736E+02  0.16775707736E+02  0.00000000000E+00 0.  1.
         23    2    1    2    0    0  0.81726217486E+02 -0.55958745432E+01  0.49350807574E+03  0.50801262207E+03  0.88408794336E+02 0.  0.
         24    2    1    2    0    0 -0.64966144314E+02  0.17409545930E+02  0.35714127097E+03  0.37201681805E+03  0.79516874209E+02 0.  0.
        -13    1    4    4    0    0 -0.70303525513E+02 -0.52610385027E+00  0.17031085739E+03  0.18425159601E+03  0.00000000000E+00 0.  1.
         14    1    4    4    0    0  0.53373811991E+01  0.17935649781E+02  0.18683041358E+03  0.18776522204E+03  0.00000000000E+00 0. -1.
        -13    1    3    3    0    0  0.72473659897E+02  0.28855797873E+02  0.40751785538E+03  0.41491672768E+03  0.00000000000E+00 0.  1.
         13    1    3    3    0    0  0.92525575881E+01 -0.34451672416E+02  0.85990220360E+02  0.93095894387E+02  0.00000000000E+00 0. -1.
          1    1    1    2  501    0 -0.16760073171E+02 -0.11813671387E+02  0.48313574141E+02  0.52484896214E+02  0.00000000000E+00 0. -1.
<scales pt_clust_5="13000.00000" pt_clust_6="13000.00000" pt_clust_7="13000.00000" pt_clust_8="13000.00000" pt_clust_9="20.50519"></scales>
<clustering>
<clus scale="   20.505">  2  9  1 -1</clus>
<clus scale="   79.517">  5  6 -1 -1</clus>
<clus scale="   88.409">  7  8 -1 -1</clus>
<clus scale="  108.852">  2  5  1 -1</clus>
<clus scale="   20.505">  2  5  1 -1</clus>
</clustering>
</event>
<event>
 9    2  0.3764910E-005  0.9380848E+02  0.7546771E-02  0.1300607E+00
         21   -1    0    0  501  502  0.00000000000E+00  0.00000000000E+00  0.52543142475E+02  0.52543142475E+02  0.00000000000E+00 0. -1.
          2   -1    0    0  502    0 -0.00000000000E+00 -0.00000000000E+00 -0.37320933593E+03  0.37320933593E+03  0.00000000000E+00 0. -1.
         23    2    1    2    0    0  0.13693361903E+02  0.21002427633E+02 -0.14606282617E+03  0.17392503822E+03  0.91032739187E+02 0.  0.
         24    2    1    2    0    0 -0.31118286141E+02  0.56157483132E+02 -0.10129622252E+03  0.14397931879E+03  0.79668744812E+02 0.  0.
        -11    1    4    4    0    0  0.23109783366E+02  0.31388964044E+02 -0.21955789034E+02  0.44736850840E+02  0.00000000000E+00 0.  1.
         12    1    4    4    0    0 -0.54228069506E+02  0.24768519088E+02 -0.79340433485E+02  0.99242467954E+02  0.00000000000E+00 0. -1.
        -11    1    3    3    0    0  0.44518240520E+02  0.18285332616E+02 -0.13089682954E+03  0.13946399933E+03  0.00000000000E+00 0. -1.
         11    1    3    3    0    0 -0.30824878617E+02  0.27170950171E+01 -0.15165996635E+02  0.34461038885E+02  0.00000000000E+00 0.  1.
          1    1    1    2  501    0  0.17424924238E+02 -0.77159910765E+02 -0.73307144768E+02  0.10784812139E+03  0.00000000000E+00 0. -1.
<scales pt_clust_5="13000.00000" pt_clust_6="13000.00000" pt_clust_7="13000.00000" pt_clust_8="13000.00000" pt_clust_9="79.10297"></scales>
<clustering>
<clus scale="   79.103">  1  9  2 -1</clus>
<clus scale="   79.669">  5  6 -1 -1</clus>
<clus scale="   82.826">  1  5  2 -1</clus>
<clus scale="   91.033">  7  8 -1 -1</clus>
<clus scale="   79.103">  1  5  2 -1</clus>
</clustering>
</event>
<event>
 9    2  0.3764910E-005  0.9646570E+02  0.7546771E-02  0.1294389E+00
         21   -1    0    0  501  502  0.00000000000E+00  0.00000000000E+00  0.30856400320E+02  0.30856400320E+02  0.00000000000E+00 0. -1.
          2   -1    0    0  502    0 -0.00000000000E+00 -0.00000000000E+00 -0.44072948844E+03  0.44072948844E+03  0.00000000000E+00 0. -1.
         23    2    1    2    0    0  0.34664633210E+02  0.73575114824E+01 -0.22720474943E+03  0.24735531817E+03  0.91142117007E+02 0.  0.
         24    2    1    2    0    0 -0.12381892455E+02 -0.34231126342E+02 -0.90984611551E+02  0.12612543549E+03  0.79399903442E+02 0.  0.
        -13    1    4    4    0    0  0.21181928051E+02  0.13838380797E+02 -0.44959705366E+02  0.51590211917E+02  0.00000000000E+00 0.  1.
         14    1    4    4    0    0 -0.33563820506E+02 -0.48069507139E+02 -0.46024906185E+02  0.74535223571E+02  0.00000000000E+00 0. -1.
        -13    1    3    3    0    0  0.58574837083E+02  0.13499957519E+02 -0.20670222829E+03  0.21526511927E+03  0.00000000000E+00 0. -1.
         13    1    3    3    0    0 -0.23910203873E+02 -0.61424460363E+01 -0.20502521139E+02  0.32090198903E+02  0.00000000000E+00 0.  1.
          1    1    1    2  501    0 -0.22282740755E+02  0.26873614860E+02 -0.91683727134E+02  0.98105135097E+02  0.00000000000E+00 0. -1.
<scales pt_clust_5="13000.00000" pt_clust_6="13000.00000" pt_clust_7="13000.00000" pt_clust_8="13000.00000" pt_clust_9="34.91007"></scales>
<clustering>
<clus scale="   34.910">  1  9  2 -1</clus>
<clus scale="   79.400">  5  6 -1 -1</clus>
<clus scale="   85.458">  1  5  2 -1</clus>
<clus scale="   91.142">  7  8 -1 -1</clus>
<clus scale="   34.910">  1  5  2 -1</clus>
</clustering>
</event>
<event>
 9    2  0.3764910E-005  0.3534595E+03  0.7546771E-02  0.1096531E+00
         21   -1    0    0  501  502  0.00000000000E+00  0.00000000000E+00  0.66759012495E+03  0.66759012495E+03  0.00000000000E+00 0. -1.
          2   -1    0    0  502    0 -0.00000000000E+00 -0.00000000000E+00 -0.30346339451E+03  0.30346339451E+03  0.00000000000E+00 0. -1.
         24    2    1    2    0    0 -0.75304114033E+02  0.80057336267E+02  0.20777573108E+03  0.24841559111E+03  0.80372039900E+02 0.  0.
         23    2    1    2    0    0 -0.30028142968E+03 -0.99899999218E+02  0.70237616223E+02  0.33679632009E+03  0.91375552753E+02 0.  0.
        -11    1    3    3    0    0 -0.24420173410E+02  0.17990871750E+02  0.55362265166E+01  0.30832874335E+02  0.00000000000E+00 0.  1.
         12    1    3    3    0    0 -0.50883940623E+02  0.62066464517E+02  0.20223950456E+03  0.21758271677E+03  0.00000000000E+00 0. -1.
        -11    1    4    4    0    0 -0.17210403993E+03 -0.84809682783E+02  0.44121169795E+01  0.19191651735E+03  0.00000000000E+00 0. -1.
         11    1    4    4    0    0 -0.12817738974E+03 -0.15090316435E+02  0.65825499243E+02  0.14487980274E+03  0.00000000000E+00 0.  1.
          1    1    1    2  501    0  0.37558554371E+03  0.19842662951E+02  0.86113383129E+02  0.38584160827E+03  0.00000000000E+00 0. -1.
<scales pt_clust_5="13000.00000" pt_clust_6="13000.00000" pt_clust_7="13000.00000" pt_clust_8="13000.00000" pt_clust_9="341.44440"></scales>
<clustering>
<clus scale="   80.372">  5  6 -1 -1</clus>
<clus scale="   91.376">  7  8 -1 -1</clus>
<clus scale="  136.160">  2  5  1 -1</clus>
<clus scale="  341.444">  1  9  2 -1</clus>
<clus scale="  341.444">  1  5  2 -1</clus>
</clustering>
</event>
<event>
 9    2  0.3764910E-005  0.1593793E+03  0.7546771E-02  0.1207532E+00
         21   -1    0    0  501  502  0.00000000000E+00  0.00000000000E+00  0.26194026151E+03  0.26194026151E+03  0.00000000000E+00 0.  1.
         -1   -1    0    0    0  501 -0.00000000000E+00 -0.00000000000E+00 -0.19285117989E+03  0.19285117989E+03  0.00000000000E+00 0.  1.
         23    2    1    2    0    0  0.35170156117E+02  0.41556111251E+02  0.22631286307E+01  0.10740617755E+03  0.92558710881E+02 0.  0.
         24    2    1    2    0    0 -0.90767244371E+02 -0.15323276328E+03 -0.18035926283E+02  0.19650700371E+03  0.81060073251E+02 0.  0.
        -11    1    4    4    0    0 -0.80226811022E+02 -0.79104871464E+02  0.16823275709E+02  0.11391639259E+03  0.00000000000E+00 0.  1.
         12    1    4    4    0    0 -0.10540433349E+02 -0.74127891817E+02 -0.34859201992E+02  0.82590611113E+02  0.00000000000E+00 0. -1.
        -11    1    3    3    0    0  0.28698675197E+02  0.20855685068E+02 -0.43875809126E+02  0.56423932726E+02  0.00000000000E+00 0. -1.
         11    1    3    3    0    0  0.64714809201E+01  0.20700426183E+02  0.46138937757E+02  0.50982244819E+02  0.00000000000E+00 0.  1.
         -2    1    1    2    0  502  0.55597088254E+02  0.11167665203E+03  0.84861879270E+02  0.15087826014E+03  0.00000000000E+00 0.  1.
<scales pt_clust_5="13000.00000" pt_clust_6="13000.00000" pt_clust_7="13000.00000" pt_clust_8="13000.00000" pt_clust_9="137.22617"></scales>
<clustering>
<clus scale="   81.060">  5  6 -1 -1</clus>
<clus scale="   92.559">  7  8 -1 -1</clus>
<clus scale="  107.382">  2  7  1 -1</clus>
<clus scale="  137.226">  1  9  2 -1</clus>
<clus scale="  137.226">  1  5  2 -1</clus>
</clustering>
</event>
<event>
 9    2  0.3764910E-005  0.1164059E+03  0.7546771E-02  0.1253747E+00
          2   -1    0    0  502    0 -0.00000000000E+00  0.00000000000E+00  0.17702081968E+03  0.17702081968E+03  0.00000000000E+00 0. -1.
         21   -1    0    0  501  502  0.00000000000E+00 -0.00000000000E+00 -0.16472139088E+03  0.16472139088E+03  0.00000000000E+00 0.  1.
         23    2    1    2    0    0 -0.56013841554E+02 -0.27609288818E+02  0.11714590357E+02  0.11152568790E+03  0.91656555459E+02 0.  0.
         24    2    1    2    0    0  0.51813018929E+02  0.85771056050E+02 -0.64699580077E+02  0.14268085349E+03  0.78297683892E+02 0.  0.
        -13    1    4    4    0    0  0.13548441508E+02  0.87463775768E+02 -0.40160392074E+02  0.97192229269E+02  0.00000000000E+00 0.  1.
         14    1    4    4    0    0  0.38264577421E+02 -0.16927197177E+01 -0.24539188003E+02  0.45488624216E+02  0.00000000000E+00 0. -1.
        -13    1    3    3    0    0 -0.11336929135E+02  0.30126679543E+02 -0.12618280311E+02  0.34574033327E+02  0.00000000000E+00 0. -1.
         13    1    3    3    0    0 -0.44676912419E+02 -0.57735968361E+02  0.24332870668E+02  0.76951654568E+02  0.00000000000E+00 0.  1.
          1    1    1    2  501    0  0.42008226250E+01 -0.58161767231E+02  0.65284418514E+02  0.87535669181E+02  0.00000000000E+00 0. -1.
<scales pt_clust_5="13000.00000" pt_clust_6="13000.00000" pt_clust_7="13000.00000" pt_clust_8="13000.00000" pt_clust_9="58.31330"></scales>
<clustering>
<clus scale="   58.313">  2  9  1 -1</clus>
<clus scale="   78.298">  5  6 -1 -1</clus>
<clus scale="   91.657">  7  8 -1 -1</clus>
<clus scale="  106.207">  2  5  1 -1</clus>
<clus scale="   58.313">  2  5  1 -1</clus>
</clustering>
</event>
<event>
 9    2  0.3764910E-005  0.1409482E+03  0.7546771E-02  0.1222984E+00
          2   -1    0    0  502    0 -0.00000000000E+00  0.00000000000E+00  0.10205049807E+04  0.10205049807E+04  0.00000000000E+00 0. -1.
         21   -1    0    0  501  502  0.00000000000E+00 -0.00000000000E+00 -0.45588690737E+02  0.45588690737E+02  0.00000000000E+00 0. -1.
         24    2    1    2    0    0  0.11828577615E+02 -0.77538601064E+02  0.59364466363E+03  0.60410810549E+03  0.79877822682E+02 0.  0.
         23    2    1    2    0    0  0.56634835659E+02 -0.41722427613E+02  0.23271809166E+03  0.25955388714E+03  0.90896889759E+02 0.  0.
        -13    1    3    3    0    0 -0.17875108836E+02 -0.79155944488E+02  0.39512150192E+03  0.40336854655E+03  0.00000000000E+00 0.  1.
         14    1    3    3    0    0  0.29703686451E+02  0.16173434245E+01  0.19852316171E+03  0.20073955894E+03  0.00000000000E+00 0. -1.
        -13    1    4    4    0    0  0.73885078308E+02 -0.14668617596E+02  0.11447898498E+03  0.13703872132E+03  0.00000000000E+00 0. -1.
         13    1    4    4    0    0 -0.17250242649E+02 -0.27053810017E+02  0.11823910668E+03  0.12251516582E+03  0.00000000000E+00 0.  1.
          1    1    1    2  501    0 -0.68463413274E+02  0.11926102868E+03  0.14855353465E+03  0.20243167878E+03  0.00000000000E+00 0. -1.
<scales pt_clust_5="13000.00000" pt_clust_6="13000.00000" pt_clust_7="13000.00000" pt_clust_8="13000.00000" pt_clust_9="107.72261"></scales>
<clustering>
<clus scale="   79.878">  5  6 -1 -1</clus>
<clus scale="   90.897">  7  8 -1 -1</clus>
<clus scale="  111.949">  1  5  2 -1</clus>
<clus scale="  107.723">  2  9  1 -1</clus>
<clus scale="  107.723">  2  5  1 -1</clus>
</clustering>
</event>
<event>
 9    2  0.3764910E-005  0.1279647E+03  0.7546771E-02  0.1234280E+00
          2   -1    0    0  502    0 -0.00000000000E+00  0.00000000000E+00  0.49538703512E+03  0.49538703512E+03  0.00000000000E+00 0. -1.
         21   -1    0    0  501  502  0.00000000000E+00 -0.00000000000E+00 -0.37020316335E+02  0.37020316335E+02  0.00000000000E+00 0. -1.
         23    2    1    2    0    0  0.71055543811E+02 -0.42804822157E+02  0.20153381728E+03  0.23731842921E+03  0.93930901362E+02 0.  0.
         24    2    1    2    0    0 -0.87021471187E+02  0.29087461885E+02  0.19770626734E+03  0.23232718487E+03  0.80432181365E+02 0.  0.
        -13    1    4    4    0    0 -0.90302708831E+02  0.12620366553E+01  0.17216512822E+03  0.19441451420E+03  0.00000000000E+00 0.  1.
         14    1    4    4    0    0  0.32812376440E+01  0.27825425230E+02  0.25541139125E+02  0.37912670672E+02  0.00000000000E+00 0. -1.
        -13    1    3    3    0    0  0.26250973612E+02  0.28194814736E+02  0.88464591975E+02  0.96488575628E+02  0.00000000000E+00 0.  1.
         13    1    3    3    0    0  0.44804570199E+02 -0.70999636893E+02  0.11306922530E+03  0.14082985358E+03  0.00000000000E+00 0. -1.
          1    1    1    2  501    0  0.15965927376E+02  0.13717360272E+02  0.59126634165E+02  0.62761737368E+02  0.00000000000E+00 0. -1.
<scales pt_clust_5="13000.00000" pt_clust_6="13000.00000" pt_clust_7="13000.00000" pt_clust_8="13000.00000" pt_clust_9="21.04940"></scales>
<clustering>
<clus scale="   21.049">  2  9  1 -1</clus>
<clus scale="   80.432">  5  6 -1 -1</clus>
<clus scale="   93.931">  7  8 -1 -1</clus>
<clus scale="  118.412">  2  5  1 -1</clus>
<clus scale="   21.049">  2  5  1 -1</clus>
</clustering>
</event>
<event>
 9    2  0.3764910E-005  0.1542895E+03  0.7546771E-02  0.1211489E+00
          2   -1    0    0  502    0 -0.00000000000E+00  0.00000000000E+00  0.12393523485E+04  0.12393523485E+04  0.00000000000E+00 0. -1.
         21   -1    0    0  501  502  0.00000000000E+00 -0.00000000000E+00 -0.44075801729E+02  0.44075801729E+02  0.00000000000E+00 0.  1.
         24    2    1    2    0    0 -0.55651585906E+02  0.45560605718E+02  0.96813911540E+02  0.14561304693E+03  0.81592635469E+02 0.  0.
         23    2    1    2    0    0 -0.57333339662E+02 -0.11417981727E+03  0.72891353985E+03  0.74533488277E+03  0.88797502202E+02 0.  0.
        -13    1    3    3    0    0 -0.35926875277E+02 -0.83761356219E+00 -0.58229451774E+00  0.35941355436E+02  0.00000000000E+00 0.  1.
         14    1    3    3    0    0 -0.19724710629E+02  0.46398219280E+02  0.97396206057E+02  0.10967169150E+03  0.00000000000E+00 0. -1.
        -11    1    4    4    0    0 -0.71323007227E+02 -0.86411268644E+02  0.66366361030E+03  0.67305517333E+03  0.00000000000E+00 0. -1.
         11    1    4    4    0    0  0.13989667565E+02 -0.27768548625E+02  0.65249929542E+02  0.72279709439E+02  0.00000000000E+00 0.  1.
          1    1    1    2  501    0  0.11298492557E+03  0.68619211551E+02  0.36954909534E+03  0.39248022048E+03  0.00000000000E+00 0. -1.
<scales pt_clust_5="13000.00000" pt_clust_6="13000.00000" pt_clust_7="13000.00000" pt_clust_8="13000.00000" pt_clust_9="126.17551"></scales>
<clustering>
<clus scale="   81.593">  5  6 -1 -1</clus>
<clus scale="   88.798">  7  8 -1 -1</clus>
<clus scale="  108.767">  1  5  2 -1</clus>
<clus scale="  126.176">  2  9  1 -1</clus>
<clus scale="  126.176">  2  5  1 -1</clus>
</clustering>
</event>
<event>
 9    2  0.3764910E-005  0.9845768E+02  0.7546771E-02  0.1293503E+00
         21   -1    0    0  501  502  0.00000000000E+00  0.00000000000E+00  0.35738961535E+02  0.35738961535E+02  0.00000000000E+00 0. -1.
          2   -1    0    0  502    0 -0.00000000000E+00 -0.00000000000E+00 -0.48666697284E+03  0.48666697284E+03  0.00000000000E+00 0. -1.
         23    2    1    2    0    0  0.18821793292E+02 -0.16604677234E+02 -0.37609716013E+03  0.38904324183E+03  0.96309890168E+02 0.  0.
         24    2    1    2    0    0  0.63578059083E+01  0.99116190416E+01 -0.38795603947E+02  0.88895308023E+02  0.79111408880E+02 0.  0.
        -13    1    4    4    0    0  0.37743604120E+02 -0.13951951603E+02 -0.15649532646E+02  0.43175739456E+02  0.00000000000E+00 0.  1.
         14    1    4    4    0    0 -0.31385798212E+02  0.23863570645E+02 -0.23146071302E+02  0.45719568568E+02  0.00000000000E+00 0. -1.
        -11    1    3    3    0    0  0.97325756361E+01  0.38692509289E+02 -0.20973684624E+03  0.21349795777E+03  0.00000000000E+00 0. -1.
         11    1    3    3    0    0  0.90892176557E+01 -0.55297186523E+02 -0.16636031389E+03  0.17554528405E+03  0.00000000000E+00 0.  1.
          1    1    1    2  501    0 -0.25179599200E+02  0.66930581928E+01 -0.36035247230E+02  0.44467384529E+02  0.00000000000E+00 0. -1.
<scales pt_clust_5="13000.00000" pt_clust_6="13000.00000" pt_clust_7="13000.00000" pt_clust_8="13000.00000" pt_clust_9="26.05397"></scales>
<clustering>
<clus scale="   26.054">  1  9  2 -1</clus>
<clus scale="   79.111">  5  6 -1 -1</clus>
<clus scale="   81.713">  1  5  2 -1</clus>
<clus scale="   96.310">  7  8 -1 -1</clus>
<clus scale="   26.054">  1  5  2 -1</clus>
</clustering>
</event>
<event>
 9    2  0.3764910E-005  0.9515291E+02  0.7546771E-02  0.1295635E+00
          2   -1    0    0  502    0 -0.00000000000E+00  0.00000000000E+00  0.35786962220E+03  0.35786962220E+03  0.00000000000E+00 0. -1.
         21   -1    0    0  501  502  0.00000000000E+00 -0.00000000000E+00 -0.27716420814E+03  0.27716420814E+03  0.00000000000E+00 0. -1.
         23    2    1    2    0    0  0.14951321028E+02 -0.32723934662E+02  0.23971643578E+03  0.25852205761E+03  0.89862599507E+02 0.  0.
         24    2    1    2    0    0  0.28941625187E+02  0.28322888543E+02  0.87523216515E+02  0.12606199622E+03  0.81188113521E+02 0.  0.
        -11    1    4    4    0    0  0.18916093570E+02  0.50766753750E+02  0.26574608917E+02  0.60343116603E+02  0.00000000000E+00 0.  1.
         12    1    4    4    0    0  0.10025531617E+02 -0.22443865207E+02  0.60948607597E+02  0.65718879613E+02  0.00000000000E+00 0. -1.
        -13    1    3    3    0    0 -0.26306055302E+02  0.17653647995E+02  0.78920941010E+02  0.85042194016E+02  0.00000000000E+00 0.  1.
         13    1    3    3    0    0  0.41257376331E+02 -0.50377582657E+02  0.16079549477E+03  0.17347986360E+03  0.00000000000E+00 0. -1.
          1    1    1    2  501    0 -0.43892946215E+02  0.44010461181E+01 -0.24653423823E+03  0.25044977651E+03  0.00000000000E+00 0. -1.
<scales pt_clust_5="13000.00000" pt_clust_6="13000.00000" pt_clust_7="13000.00000" pt_clust_8="13000.00000" pt_clust_9="44.11304"></scales>
<clustering>
<clus scale="   44.113">  2  9  1 -1</clus>
<clus scale="   81.188">  5  6 -1 -1</clus>
<clus scale="   87.007">  2  5  1 -1</clus>
<clus scale="   89.863">  7  8 -1 -1</clus>
<clus scale="   44.113">  2  5  1 -1</clus>
</clustering>
</event>
<event>
 9    2  0.3764910E-005  0.1769428E+03  0.7546771E-02  0.1171097E+00
         21   -1    0    0  501  502  0.00000000000E+00  0.00000000000E+00  0.15896745617E+03  0.15896745617E+03  0.00000000000E+00 0. -1.
          2   -1    0    0  502    0 -0.00000000000E+00 -0.00000000000E+00 -0.50133295407E+03  0.50133295407E+03  0.00000000000E+00 0. -1.
         23    2    1    2    0    0  0.12627021987E+03 -0.12167277724E+03 -0.30377404335E+03  0.36046349251E+03  0.83107321443E+02 0.  0.
         24    2    1    2    0    0 -0.66089856681E+01  0.14554960730E+03 -0.58034891985E+02  0.17627737239E+03  0.80481652895E+02 0.  0.
        -13    1    4    4    0    0 -0.24282561298E+02  0.14430243326E+03 -0.60584888623E+02  0.15837728296E+03  0.00000000000E+00 0.  1.
         14    1    4    4    0    0  0.17673575630E+02  0.12471740329E+01  0.25499966379E+01  0.17900089426E+02  0.00000000000E+00 0. -1.
        -13    1    3    3    0    0  0.82665568666E+01 -0.35077520114E+02 -0.12129593397E+03  0.12653644525E+03  0.00000000000E+00 0.  1.
         13    1    3    3    0    0  0.11800366300E+03 -0.86595257121E+02 -0.18247810938E+03  0.23392704726E+03  0.00000000000E+00 0. -1.
          1    1    1    2  501    0 -0.11966123420E+03 -0.23876830062E+02  0.19443437432E+02  0.12355954534E+03  0.00000000000E+00 0. -1.
<scales pt_clust_5="13000.00000" pt_clust_6="13000.00000" pt_clust_7="13000.00000" pt_clust_8="13000.00000" pt_clust_9="122.02014"></scales>
<clustering>
<clus scale="   80.482">  5  6 -1 -1</clus>
<clus scale="   83.107">  7  8 -1 -1</clus>
<clus scale="  122.020">  1  9  2 -1</clus>
<clus scale="  175.725">  1  5  2 -1</clus>
<clus scale="  122.020">  1  5  2 -1</clus>
</clustering>
</event>
<event>
 9    2  0.3764910E-005  0.1541903E+03  0.7546771E-02  0.1201660E+00
         -1   -1    0    0    0  501 -0.00000000000E+00  0.00000000000E+00  0.39388143217E+03  0.39388143217E+03  0.00000000000E+00 0.  1.
         21   -1    0    0  501  502  0.00000000000E+00 -0.00000000000E+00 -0.13902357985E+03  0.13902357985E+03  0.00000000000E+00 0.  1.
         23    2    1    2    0    0  0.53011048491E+02 -0.82296244138E+02  0.24189229072E+02  0.13674790269E+03  0.92368972206E+02 0.  0.
         24    2    1    2    0    0 -0.13869182833E+03 -0.25569681318E+02  0.19516804947E+03  0.25390189976E+03  0.80538036470E+02 0.  0.
        -13    1    4    4    0    0 -0.90767427345E+02 -0.51586301326E+02  0.10205964157E+03  0.14600014654E+03  0.00000000000E+00 0.  1.
         14    1    4    4    0    0 -0.47924400987E+02  0.26016620008E+02  0.93108407903E+02  0.10790175322E+03  0.00000000000E+00 0. -1.
        -13    1    3    3    0    0  0.32786381510E+02 -0.13019329485E+02 -0.30152947251E+02  0.46407434541E+02  0.00000000000E+00 0.  1.
         13    1    3    3    0    0  0.20224666982E+02 -0.69276914652E+02  0.54342176323E+02  0.90340468152E+02  0.00000000000E+00 0. -1.
         -2    1    1    2    0  502  0.85680779841E+02  0.10786592546E+03  0.35500573777E+02  0.14225520956E+03  0.00000000000E+00 0.  1.
<scales pt_clust_5="13000.00000" pt_clust_6="13000.00000" pt_clust_7="13000.00000" pt_clust_8="13000.00000" pt_clust_9="131.48490"></scales>
<clustering>
<clus scale="   80.538">  5  6 -1 -1</clus>
<clus scale="   92.369">  7  8 -1 -1</clus>
<clus scale="  134.592">  1  7  2 -1</clus>
<clus scale="  131.485">  2  9  1 -1</clus>
<clus scale="  131.485">  2  5  1 -1</clus>
</clustering>
</event>
<event>
 9    2  0.3764910E-005  0.9674903E+02  0.7546771E-02  0.1293984E+00
         -1   -1    0    0    0  501 -0.00000000000E+00  0.00000000000E+00  0.37456464526E+02  0.37456464526E+02  0.00000000000E+00 0.  1.
         21   -1    0    0  501  502  0.00000000000E+00 -0.00000000000E+00 -0.37451792733E+03  0.37451792733E+03  0.00000000000E+00 0. -1.
         23    2    1    2    0    0 -0.85257699522E+01 -0.36589395374E+02 -0.64664482027E+02  0.11759274307E+03  0.90747371199E+02 0.  0.
         24    2    1    2    0    0  0.26505374433E+02  0.16609361024E+02 -0.19770433782E+03  0.21499992003E+03  0.78482830407E+02 0.  0.
        -13    1    4    4    0    0  0.37706558465E+02  0.12935741499E+02 -0.38699480601E+02  0.55558687513E+02  0.00000000000E+00 0.  1.
         14    1    4    4    0    0 -0.11201184032E+02  0.36736195253E+01 -0.15900485722E+03  0.15944123251E+03  0.00000000000E+00 0. -1.
        -11    1    3    3    0    0 -0.54251316007E+01 -0.62438931165E+02 -0.19810626077E+02  0.65730609943E+02  0.00000000000E+00 0.  1.
         11    1    3    3    0    0 -0.31006383515E+01  0.25849535791E+02 -0.44853855950E+02  0.51862133126E+02  0.00000000000E+00 0. -1.
         -2    1    1    2    0  502 -0.17979604481E+02  0.19980034350E+02 -0.74692642948E+02  0.79381728757E+02  0.00000000000E+00 0.  1.
<scales pt_clust_5="13000.00000" pt_clust_6="13000.00000" pt_clust_7="13000.00000" pt_clust_8="13000.00000" pt_clust_9="26.87876"></scales>
<clustering>
<clus scale="   26.879">  2  9  1 -1</clus>
<clus scale="   78.483">  5  6 -1 -1</clus>
<clus scale="   85.351">  2  5  1 -1</clus>
<clus scale="   90.747">  7  8 -1 -1</clus>
<clus scale="   26.879">  2  5  1 -1</clus>
</clustering>
</event>
<event>
 9    2  0.3764910E-005  0.1836171E+03  0.7546771E-02  0.1166622E+00
          2   -1    0    0  502    0 -0.00000000000E+00  0.00000000000E+00  0.10107010231E+04  0.10107010231E+04  0.00000000000E+00 0. -1.
         21   -1    0    0  501  502  0.00000000000E+00 -0.00000000000E+00 -0.39308796715E+02  0.39308796715E+02  0.00000000000E+00 0. -1.
         24    2    1    2    0    0  0.59401008385E+02  0.15907958285E+03  0.57358959466E+03  0.60342091547E+03  0.79227423591E+02 0.  0.
         23    2    1    2    0    0 -0.42732687278E+02 -0.12944623184E+03  0.34609882737E+03  0.38470795569E+03  0.98149902530E+02 0.  0.
        -11    1    3    3    0    0 -0.11681427344E+02  0.73473403648E+02  0.19094766984E+03  0.20492879106E+03  0.00000000000E+00 0.  1.
         12    1    3    3    0    0  0.71082435729E+02  0.85606179201E+02  0.38264192482E+03  0.39849212441E+03  0.00000000000E+00 0. -1.
        -11    1    4    4    0    0 -0.22429927085E+01 -0.12717659396E+03  0.25364407645E+03  0.28375030324E+03  0.00000000000E+00 0.  1.
         11    1    4    4    0    0 -0.40489694569E+02 -0.22696378832E+01  0.92454750913E+02  0.10095765245E+03  0.00000000000E+00 0. -1.
          1    1    1    2  501    0 -0.16668321107E+02 -0.29633351009E+02  0.51703804318E+02  0.61880948615E+02  0.00000000000E+00 0. -1.
<scales pt_clust_5="13000.00000" pt_clust_6="13000.00000" pt_clust_7="13000.00000" pt_clust_8="13000.00000" pt_clust_9="33.99954"></scales>
<clustering>
<clus scale="   34.000">  2  9  1 -1</clus>
<clus scale="   79.227">  5  6 -1 -1</clus>
<clus scale="   98.150">  7  8 -1 -1</clus>
<clus scale="  174.238">  1  5  2 -1</clus>
<clus scale="   34.000">  2  5  1 -1</clus>
</clustering>
</event>
<event>
 9    2  0.3764910E-005  0.1205603E+03  0.7546771E-02  0.1245243E+00
         21   -1    0    0  501  502  0.00000000000E+00  0.00000000000E+00  0.93346838338E+02  0.93346838338E+02  0.00000000000E+00 0.  1.
          2   -1    0    0  502    0 -0.00000000000E+00 -0.00000000000E+00 -0.22588434340E+03  0.22588434340E+03  0.00000000000E+00 0. -1.
         23    2    1    2    0    0  0.86224145609E+02  0.35609318697E+02 -0.66514534930E+02  0.14623696761E+03  0.90875962025E+02 0.  0.
         24    2    1    2    0    0 -0.41218642668E+02 -0.59080930032E+02 -0.37211288252E+02  0.11462877191E+03  0.81028035755E+02 0.  0.
        -11    1    4    4    0    0 -0.53246009690E+02 -0.65739576972E+02 -0.11370678640E+02  0.85358783151E+02  0.00000000000E+00 0.  1.
         12    1    4    4    0    0  0.12027367022E+02  0.66586469395E+01 -0.25840609612E+02  0.29269988754E+02  0.00000000000E+00 0. -1.
        -13    1    3    3    0    0  0.92024809710E+02  0.11757394763E+02 -0.75992523619E+02  0.11992358225E+03  0.00000000000E+00 0. -1.
         13    1    3    3    0    0 -0.58006641008E+01  0.23851923934E+02  0.94779886888E+01  0.26313385357E+02  0.00000000000E+00 0.  1.
          1    1    1    2  501    0 -0.45005502941E+02  0.23471611335E+02 -0.28811681885E+02  0.58365442230E+02  0.00000000000E+00 0. -1.
<scales pt_clust_5="13000.00000" pt_clust_6="13000.00000" pt_clust_7="13000.00000" pt_clust_8="13000.00000" pt_clust_9="50.75839"></scales>
<clustering>
<clus scale="   50.758">  1  9  2 -1</clus>
<clus scale="   81.028">  5  6 -1 -1</clus>
<clus scale="   90.876">  7  8 -1 -1</clus>
<clus scale="  113.322">  1  5  2 -1</clus>
<clus scale="   50.758">  1  5  2 -1</clus>
</clustering>
</event>
<event>
 9    2  0.3764910E-005  0.1058435E+03  0.7546771E-02  0.1272552E+00
          2   -1    0    0  502    0 -0.00000000000E+00  0.00000000000E+00  0.13996905403E+03  0.13996905403E+03  0.00000000000E+00 0. -1.
         21   -1    0    0  501  502  0.00000000000E+00 -0.00000000000E+00 -0.12708486225E+03  0.12708486225E+03  0.00000000000E+00 0.  1.
         23    2    1    2    0    0  0.15052445459E+02  0.29163099048E+02  0.31969782982E+02  0.10258881310E+03  0.91789624084E+02 0.  0.
         24    2    1    2    0    0  0.31280014166E+02 -0.40782046492E+02  0.83207152198E+00  0.11271174538E+03  0.10030767967E+03 0.  0.
        -11    1    4    4    0    0 -0.10249536500E+02 -0.39397041602E+02 -0.38110078251E+02  0.55763410492E+02  0.00000000000E+00 0.  1.
         12    1    4    4    0    0  0.41529550666E+02 -0.13850048903E+01  0.38942149773E+02  0.56948334884E+02  0.00000000000E+00 0. -1.
        -13    1    3    3    0    0  0.44683864298E+02  0.43763803117E+01 -0.95226793165E+01  0.45896425292E+02  0.00000000000E+00 0. -1.
         13    1    3    3    0    0 -0.29631418839E+02  0.24786718736E+02  0.41492462298E+02  0.56692387811E+02  0.00000000000E+00 0.  1.
          1    1    1    2  501    0 -0.46332459625E+02  0.11618947444E+02 -0.19917662722E+02  0.51753357794E+02  0.00000000000E+00 0. -1.
<scales pt_clust_5="13000.00000" pt_clust_6="13000.00000" pt_clust_7="13000.00000" pt_clust_8="13000.00000" pt_clust_9="47.76711"></scales>
<clustering>
<clus scale="   47.767">  2  9  1 -1</clus>
<clus scale="   91.790">  7  8 -1 -1</clus>
<clus scale="   97.809">  1  7  2 -1</clus>
<clus scale="  100.308">  5  6 -1 -1</clus>
<clus scale="   47.767">  2  5  1 -1</clus>
</clustering>
</event>
<event>
 9    2  0.3764910E-005  0.9285800E+02  0.7546771E-02  0.1300066E+00
         21   -1    0    0  501  502  0.00000000000E+00  0.00000000000E+00  0.46478284940E+02  0.46478284940E+02  0.00000000000E+00 0. -1.
          2   -1    0    0  502    0 -0.00000000000E+00 -0.00000000000E+00 -0.70002156358E+03  0.70002156358E+03  0.00000000000E+00 0. -1.
         24    2    1    2    0    0 -0.47807815127E+02  0.17770774528E+02 -0.44871752362E+03  0.45875963440E+03  0.80694476482E+02 0.  0.
         23    2    1    2    0    0 -0.73319948752E+01  0.31722326346E+02 -0.19054926575E+03  0.21228304860E+03  0.87721182786E+02 0.  0.
        -11    1    3    3    0    0 -0.70006841161E+01 -0.30908087986E+02 -0.13409304956E+03  0.13778702922E+03  0.00000000000E+00 0.  1.
         12    1    3    3    0    0 -0.40807131011E+02  0.48678862514E+02 -0.31462447406E+03  0.32097260518E+03  0.00000000000E+00 0. -1.
        -13    1    4    4    0    0 -0.21470867314E+02 -0.22636364089E+02 -0.34915135692E+02  0.46823816833E+02  0.00000000000E+00 0.  1.
         13    1    4    4    0    0  0.14138872439E+02  0.54358690435E+02 -0.15563413006E+03  0.16545923177E+03  0.00000000000E+00 0. -1.
          1    1    1    2  501    0  0.55139810002E+02 -0.49493100874E+02 -0.14276489262E+02  0.75457165511E+02  0.00000000000E+00 0. -1.
<scales pt_clust_5="13000.00000" pt_clust_6="13000.00000" pt_clust_7="13000.00000" pt_clust_8="13000.00000" pt_clust_9="74.09430"></scales>
<clustering>
<clus scale="   74.094">  1  9  2 -1</clus>
<clus scale="   80.694">  5  6 -1 -1</clus>
<clus scale="   86.251">  2  5  1 -1</clus>
<clus scale="   87.721">  7  8 -1 -1</clus>
<clus scale="   74.094">  1  5  2 -1</clus>
</clustering>
</event>
<event>
 9    2  0.3764910E-005  0.2500997E+03  0.7546771E-02  0.1158050E+00
          2   -1    0    0  502    0 -0.00000000000E+00  0.00000000000E+00  0.14814590522E+03  0.14814590522E+03  0.00000000000E+00 0. -1.
         21   -1    0    0  501  502  0.00000000000E+00 -0.00000000000E+00 -0.10964369833E+04  0.10964369833E+04  0.00000000000E+00 0. -1.
         24    2    1    2    0    0 -0.23258386432E+02 -0.10536621452E+02  0.24665924328E+02  0.87651211733E+02  0.80139591740E+02 0.  0.
         23    2    1    2    0    0 -0.81330899635E+02  0.21831281046E+03 -0.86496506173E+03  0.90047091425E+03  0.91695752060E+02 0.  0.
        -13    1    3    3    0    0  0.75804364023E+01  0.19478897688E+02 -0.17605488028E+02  0.27328440861E+02  0.00000000000E+00 0.  1.
         14    1    3    3    0    0 -0.30838822834E+02 -0.30015519140E+02  0.42271412356E+02  0.60322770872E+02  0.00000000000E+00 0. -1.
        -13    1    4    4    0    0 -0.44311132810E+02  0.19231464344E+03 -0.77551993290E+03  0.80023719290E+03  0.00000000000E+00 0. -1.
         13    1    4    4    0    0 -0.37019766825E+02  0.25998167015E+02 -0.89445128832E+02  0.10023372135E+03  0.00000000000E+00 0.  1.
          1    1    1    2  501    0  0.10458928607E+03 -0.20777618901E+03 -0.10799194069E+03  0.25646076256E+03  0.00000000000E+00 0. -1.
<scales pt_clust_5="13000.00000" pt_clust_6="13000.00000" pt_clust_7="13000.00000" pt_clust_8="13000.00000" pt_clust_9="232.68391"></scales>
<clustering>
<clus scale="   80.140">  5  6 -1 -1</clus>
<clus scale="   84.109">  1  5  2 -1</clus>
<clus scale="   91.696">  7  8 -1 -1</clus>
<clus scale="  232.684">  2  9  1 -1</clus>
<clus scale="  232.684">  2  5  1 -1</clus>
</clustering>
</event>
<event>
 9    2  0.3764910E-005  0.1182673E+03  0.7546771E-02  0.1248777E+00
         -1   -1    0    0    0  501 -0.00000000000E+00  0.00000000000E+00  0.19054638148E+03  0.19054638148E+03  0.00000000000E+00 0.  1.
         21   -1    0    0  501  502  0.00000000000E+00 -0.00000000000E+00 -0.13388334825E+03  0.13388334825E+03  0.00000000000E+00 0. -1.
         24    2    1    2    0    0  0.53398271862E+02  0.63065002644E+02  0.11493462500E+03  0.16429337646E+03  0.83389301053E+02 0.  0.
         23    2    1    2    0    0 -0.19142774909E+02 -0.41955632882E+02 -0.61489703390E+02  0.11977051615E+03  0.91854624026E+02 0.  0.
        -11    1    3    3    0    0  0.14978646628E+02  0.55488716048E+02  0.11092281828E+03  0.12492889609E+03  0.00000000000E+00 0.  1.
         12    1    3    3    0    0  0.38419625233E+02  0.75762865962E+01  0.40118067149E+01  0.39364480370E+02  0.00000000000E+00 0. -1.
        -11    1    4    4    0    0 -0.54875192837E+02 -0.35680188223E+02 -0.47558312442E+02  0.80908316648E+02  0.00000000000E+00 0. -1.
         11    1    4    4    0    0  0.35732417928E+02 -0.62754446587E+01 -0.13931390949E+02  0.38862199506E+02  0.00000000000E+00 0.  1.
         -2    1    1    2    0  502 -0.34255496953E+02 -0.21109369762E+02  0.32181116276E+01  0.40365837111E+02  0.00000000000E+00 0.  1.
<scales pt_clust_5="13000.00000" pt_clust_6="13000.00000" pt_clust_7="13000.00000" pt_clust_8="13000.00000" pt_clust_9="40.23735"></scales>
<clustering>
<clus scale="   40.237">  2  9  1 -1</clus>
<clus scale="   83.389">  5  6 -1 -1</clus>
<clus scale="   91.855">  7  8 -1 -1</clus>
<clus scale="  111.820">  1  5  2 -1</clus>
<clus scale="   40.237">  2  5  1 -1</clus>
</clustering>
</event>
<event>
 9    2  0.3764910E-005  0.1182309E+03  0.7546771E-02  0.1250101E+00
         21   -1    0    0  501  502  0.00000000000E+00  0.00000000000E+00  0.92655891827E+03  0.92655891827E+03  0.00000000000E+00 0. -1.
         -1   -1    0    0    0  501 -0.00000000000E+00 -0.00000000000E+00 -0.49256689365E+02  0.49256689365E+02  0.00000000000E+00 0.  1.
         23    2    1    2    0    0 -0.57403762570E+01 -0.72088746189E+02  0.38252153063E+02  0.12315724072E+03  0.92058348247E+02 0.  0.
         24    2    1    2    0    0 -0.55348673798E+01  0.92779987803E+02  0.77021040615E+03  0.77989739714E+03  0.79856868414E+02 0.  0.
        -13    1    4    4    0    0  0.30627705299E+02  0.64501783106E+02  0.35158819213E+03  0.35876565220E+03  0.00000000000E+00 0.  1.
         14    1    4    4    0    0 -0.36162572679E+02  0.28278204697E+02  0.41862221402E+03  0.42113174494E+03  0.00000000000E+00 0. -1.
        -11    1    3    3    0    0  0.33659003674E+02  0.39552914279E+00  0.18152323633E+02  0.38243846889E+02  0.00000000000E+00 0. -1.
         11    1    3    3    0    0 -0.39399379931E+02 -0.72484275332E+02  0.20099829430E+02  0.84913393834E+02  0.00000000000E+00 0.  1.
         -2    1    1    2    0  502  0.11275243637E+02 -0.20691241614E+02  0.68839669698E+02  0.72760969776E+02  0.00000000000E+00 0.  1.
<scales pt_clust_5="13000.00000" pt_clust_6="13000.00000" pt_clust_7="13000.00000" pt_clust_8="13000.00000" pt_clust_9="23.56393"></scales>
<clustering>
<clus scale="   23.564">  1  9  2 -1</clus>
<clus scale="   79.857">  5  6 -1 -1</clus>
<clus scale="   92.058">  7  8 -1 -1</clus>
<clus scale="  109.000">  1  5  2 -1</clus>
<clus scale="   23.564">  1  5  2 -1</clus>
</clustering>
</event>
<event>
 9    2  0.4256378E-005  0.9964957E+02  0.7546771E-02  0.1287083E+00
         21   -1    0    0  501  502  0.00000000000E+00  0.00000000000E+00  0.11490201024E+03  0.11490201024E+03  0.00000000000E+00 0.  1.
          2   -1    0    0  502    0 -0.00000000000E+00 -0.00000000000E+00 -0.68567089080E+03  0.68567089080E+03  0.00000000000E+00 0. -1.
         24    2    1    2    0    0 -0.28448237750E+02  0.28161838476E+02 -0.58897087969E+03  0.59585776829E+03  0.80977722438E+02 0.  0.
         23    2    1    2    0    0  0.57939601877E+01 -0.12468034741E+02 -0.66993951848E+02  0.11517261866E+03  0.92668876328E+02 0.  0.
        -11    1    3    3    0    0  0.49981569343E+01  0.46559186872E+02 -0.22064928844E+03  0.22556340116E+03  0.00000000000E+00 0.  1.
         12    1    3    3    0    0 -0.33446394685E+02 -0.18397348396E+02 -0.36832159125E+03  0.37029436712E+03  0.00000000000E+00 0. -1.
        -13    1    4    4    0    0  0.40924473045E+02 -0.24237564091E+02 -0.12329030187E+02  0.49135292738E+02  0.00000000000E+00 0.  1.
         13    1    4    4    0    0 -0.35130512857E+02  0.11769529350E+02 -0.54664921661E+02  0.66037325922E+02  0.00000000000E+00 0. -1.
          1    1    1    2  501    0  0.22654277563E+02 -0.15693803735E+02  0.85195950979E+02  0.89542514097E+02  0.00000000000E+00 0. -1.
<scales pt_clust_5="13000.00000" pt_clust_6="13000.00000" pt_clust_7="13000.00000" pt_clust_8="13000.00000" pt_clust_9="27.55924"></scales>
<clustering>
<clus scale="   27.559">  1  9  2 -1</clus>
<clus scale="   80.978">  5  6 -1 -1</clus>
<clus scale="   88.881">  2  5  1 -1</clus>
<clus scale="   92.669">  7  8 -1 -1</clus>
<clus scale="   27.559">  1  5  2 -1</clus>
</clustering>
</event>
<event>
 9    2  0.3764910E-005  0.9539322E+02  0.7546771E-02  0.1297255E+00
          2   -1    0    0  502    0 -0.00000000000E+00  0.00000000000E+00  0.73225936423E+02  0.73225936423E+02  0.00000000000E+00 0. -1.
         21   -1    0    0  501  502  0.00000000000E+00 -0.00000000000E+00 -0.27436418386E+03  0.27436418386E+03  0.00000000000E+00 0. -1.
         23    2    1    2    0    0  0.10221410954E+02  0.10398457239E+02 -0.94168275298E+02  0.13252105561E+03  0.92095390510E+02 0.  0.
         24    2    1    2    0    0  0.29512857568E+02  0.55988343180E+02 -0.89575724114E+02  0.13576850206E+03  0.80022324813E+02 0.  0.
        -13    1    4    4    0    0 -0.11369865682E+02  0.23437629465E+02 -0.78011373426E+02  0.82245794448E+02  0.00000000000E+00 0.  1.
         14    1    4    4    0    0  0.40882723250E+02  0.32550713716E+02 -0.11564350687E+02  0.53522707616E+02  0.00000000000E+00 0. -1.
        -13    1    3    3    0    0  0.15659373001E+02 -0.35107132464E+02 -0.15441980345E+02  0.41426820655E+02  0.00000000000E+00 0.  1.
         13    1    3    3    0    0 -0.54379620467E+01  0.45505589703E+02 -0.78726294953E+02  0.91094234957E+02  0.00000000000E+00 0. -1.
          1    1    1    2  501    0 -0.39734268522E+02 -0.66386800419E+02 -0.17394248023E+02  0.79300562603E+02  0.00000000000E+00 0. -1.
<scales pt_clust_5="13000.00000" pt_clust_6="13000.00000" pt_clust_7="13000.00000" pt_clust_8="13000.00000" pt_clust_9="77.36941"></scales>
<clustering>
<clus scale="   77.369">  2  9  1 -1</clus>
<clus scale="   80.022">  5  6 -1 -1</clus>
<clus scale="   83.797">  2  5  1 -1</clus>
<clus scale="   92.095">  7  8 -1 -1</clus>
<clus scale="   77.369">  2  5  1 -1</clus>
</clustering>
</event>
<event>
 9    2  0.3764910E-005  0.9223312E+02  0.7546771E-02  0.1304878E+00
         21   -1    0    0  501  502  0.00000000000E+00  0.00000000000E+00  0.71266537525E+02  0.71266537525E+02  0.00000000000E+00 0. -1.
          2   -1    0    0  502    0 -0.00000000000E+00 -0.00000000000E+00 -0.49012672282E+03  0.49012672282E+03  0.00000000000E+00 0. -1.
         23    2    1    2    0    0 -0.22548337989E+02  0.56645276325E+01 -0.34422287970E+03  0.35695302408E+03  0.91572681931E+02 0.  0.
         24    2    1    2    0    0 -0.11596703974E+02  0.57414150717E+01 -0.12113096999E+03  0.14563853350E+03  0.79814930682E+02 0.  0.
        -13    1    4    4    0    0  0.64081014788E+01  0.34955677249E+02 -0.98024051089E+02  0.10426733778E+03  0.00000000000E+00 0.  1.
         14    1    4    4    0    0 -0.18004805452E+02 -0.29214262178E+02 -0.23106918897E+02  0.41371195715E+02  0.00000000000E+00 0. -1.
        -11    1    3    3    0    0 -0.15264274458E+02 -0.41861329087E+02 -0.13079397688E+03  0.13817537167E+03  0.00000000000E+00 0.  1.
         11    1    3    3    0    0 -0.72840635312E+01  0.47525856720E+02 -0.21342890282E+03  0.21877765241E+03  0.00000000000E+00 0. -1.
          1    1    1    2  501    0  0.34145041963E+02 -0.11405942704E+02  0.46493664388E+02  0.58801702763E+02  0.00000000000E+00 0. -1.
<scales pt_clust_5="13000.00000" pt_clust_6="13000.00000" pt_clust_7="13000.00000" pt_clust_8="13000.00000" pt_clust_9="35.99971"></scales>
<clustering>
<clus scale="   36.000">  1  9  2 -1</clus>
<clus scale="   79.815">  5  6 -1 -1</clus>
<clus scale="   80.572">  1  5  2 -1</clus>
<clus scale="   91.573">  7  8 -1 -1</clus>
<clus scale="   36.000">  1  5  2 -1</clus>
</clustering>
</event>
<event>
 9    2  0.3764910E-005  0.9251664E+02  0.7546771E-02  0.1304336E+00
          2   -1    0    0  502    0 -0.00000000000E+00  0.00000000000E+00  0.46506892155E+03  0.46506892155E+03  0.00000000000E+00 0. -1.
         21   -1    0    0  501  502  0.00000000000E+00 -0.00000000000E+00 -0.86703658180E+02  0.86703658180E+02  0.00000000000E+00 0. -1.
         23    2    1    2    0    0  0.10126956661E+02 -0.93841772793E+01  0.40082354493E+03  0.41130418572E+03  0.91219520873E+02 0.  0.
         24    2    1    2    0    0 -0.42111628059E+02 -0.11633148035E+02  0.91128363422E+01  0.90855062602E+02  0.79138355196E+02 0.  0.
        -11    1    4    4    0    0 -0.20888154201E+02  0.33961584201E+02  0.72737676446E+01  0.40529148562E+02  0.00000000000E+00 0.  1.
         12    1    4    4    0    0 -0.21223473858E+02 -0.45594732236E+02  0.18390686976E+01  0.50325914040E+02  0.00000000000E+00 0. -1.
        -11    1    3    3    0    0  0.12402878299E+02 -0.49590634965E+02  0.25172552665E+03  0.25686339411E+03  0.00000000000E+00 0. -1.
         11    1    3    3    0    0 -0.22759216377E+01  0.40206457686E+02  0.14909801828E+03  0.15444079161E+03  0.00000000000E+00 0.  1.
          1    1    1    2  501    0  0.31984671398E+02  0.21017325314E+02 -0.31571117900E+02  0.49613331407E+02  0.00000000000E+00 0. -1.
<scales pt_clust_5="13000.00000" pt_clust_6="13000.00000" pt_clust_7="13000.00000" pt_clust_8="13000.00000" pt_clust_9="38.27202"></scales>
<clustering>
<clus scale="   38.272">  2  9  1 -1</clus>
<clus scale="   79.138">  5  6 -1 -1</clus>
<clus scale="   80.630">  2  5  1 -1</clus>
<clus scale="   91.220">  7  8 -1 -1</clus>
<clus scale="   38.272">  2  5  1 -1</clus>
</clustering>
</event>
<event>
 9    2  0.3764910E-005  0.9344537E+02  0.7546771E-02  0.1302713E+00
         -1   -1    0    0    0  501 -0.00000000000E+00  0.00000000000E+00  0.36698451542E+03  0.36698451542E+03  0.00000000000E+00 0.  1.
         21   -1    0    0  501  502  0.00000000000E+00 -0.00000000000E+00 -0.46272166565E+02  0.46272166565E+02  0.00000000000E+00 0.  1.
         24    2    1    2    0    0  0.82920969852E+00 -0.16359165444E+02  0.96453676156E+02  0.12568330351E+03  0.78896585818E+02 0.  0.
         23    2    1    2    0    0  0.35875588289E+02 -0.43974173424E+02  0.11823766135E+03  0.16018496134E+03  0.91968970383E+02 0.  0.
        -13    1    3    3    0    0  0.78210961587E+01 -0.47704568985E+02  0.61307143198E+02  0.78073435010E+02  0.00000000000E+00 0.  1.
         14    1    3    3    0    0 -0.69918864602E+01  0.31345403541E+02  0.35146532958E+02  0.47609868497E+02  0.00000000000E+00 0. -1.
        -11    1    4    4    0    0  0.46236459746E+02 -0.18204599486E+02  0.13027632306E+02  0.51370583564E+02  0.00000000000E+00 0.  1.
         11    1    4    4    0    0 -0.10360871457E+02 -0.25769573938E+02  0.10521002905E+03  0.10881437777E+03  0.00000000000E+00 0. -1.
         -2    1    1    2    0  502 -0.36704797987E+02  0.60333338868E+02  0.10602101135E+03  0.12738841714E+03  0.00000000000E+00 0.  1.
<scales pt_clust_5="13000.00000" pt_clust_6="13000.00000" pt_clust_7="13000.00000" pt_clust_8="13000.00000" pt_clust_9="70.62124"></scales>
<clustering>
<clus scale="   70.621">  2  9  1 -1</clus>
<clus scale="   78.897">  5  6 -1 -1</clus>
<clus scale="   80.613">  1  5  2 -1</clus>
<clus scale="   91.969">  7  8 -1 -1</clus>
<clus scale="   70.621">  2  5  1 -1</clus>
</clustering>
</event>
<event>
 9    2  0.3764910E-005  0.1272388E+03  0.7546771E-02  0.1252716E+00
         21   -1    0    0  501  502  0.00000000000E+00  0.00000000000E+00  0.68222818841E+03  0.68222818841E+03  0.00000000000E+00 0. -1.
          4   -1    0    0  502    0 -0.00000000000E+00 -0.00000000000E+00 -0.71519564779E+02  0.71519564779E+02  0.00000000000E+00 0. -1.
         24    2    1    2    0    0  0.55449418567E+01  0.27746687907E+02 -0.96998252341E+01  0.83572914236E+02  0.78036660067E+02 0.  0.
         23    2    1    2    0    0  0.63302477557E+02  0.37525710099E+02  0.14578921564E+03  0.18616670922E+03  0.89376538540E+02 0.  0.
        -13    1    3    3    0    0 -0.15391321505E+02 -0.19912614032E+02  0.11112186165E+02  0.27511554966E+02  0.00000000000E+00 0.  1.
         14    1    3    3    0    0  0.20936263362E+02  0.47659301939E+02 -0.20812011399E+02  0.56061359271E+02  0.00000000000E+00 0. -1.
        -11    1    4    4    0    0  0.47624637889E+02 -0.19972694951E+02  0.93813410872E+02  0.10708861161E+03  0.00000000000E+00 0.  1.
         11    1    4    4    0    0  0.15677839668E+02  0.57498405050E+02  0.51975804773E+02  0.79078097611E+02  0.00000000000E+00 0. -1.
          3    1    1    2  501    0 -0.68847419413E+02 -0.65272398006E+02  0.47461923322E+03  0.48400812973E+03  0.00000000000E+00 0. -1.
<scales pt_clust_5="13000.00000" pt_clust_6="13000.00000" pt_clust_7="13000.00000" pt_clust_8="13000.00000" pt_clust_9="90.56239"></scales>
<clustering>
<clus scale="   78.037">  5  6 -1 -1</clus>
<clus scale="   83.008">  2  5  1 -1</clus>
<clus scale="   89.377">  7  8 -1 -1</clus>
<clus scale="   90.562">  1  9  2 -1</clus>
<clus scale="   90.562">  1  5  2 -1</clus>
</clustering>
</event>
<event>
 9    2  0.3764910E-005  0.1241434E+03  0.7546771E-02  0.1237774E+00
          2   -1    0    0  502    0 -0.00000000000E+00  0.00000000000E+00  0.55570907690E+03  0.55570907690E+03  0.00000000000E+00 0. -1.
         21   -1    0    0  501  502  0.00000000000E+00 -0.00000000000E+00 -0.81668736802E+02  0.81668736802E+02  0.00000000000E+00 0.  1.
         23    2    1    2    0    0  0.65542286111E+02  0.59921210565E+02  0.45152483348E+03  0.46776952940E+03  0.83948285532E+02 0.  0.
         24    2    1    2    0    0 -0.88237374374E+02 -0.62769438511E+02  0.41130890503E+02  0.14011740519E+03  0.78837176743E+02 0.  0.
        -13    1    4    4    0    0 -0.93050750803E+02 -0.75787076848E+02  0.35610433128E+02  0.12518077404E+03  0.00000000000E+00 0.  1.
         14    1    4    4    0    0  0.48133764290E+01  0.13017638336E+02  0.55204573748E+01  0.14936631151E+02  0.00000000000E+00 0. -1.
        -11    1    3    3    0    0  0.31122174361E+02  0.77517924481E+02  0.31193541011E+03  0.32292618109E+03  0.00000000000E+00 0. -1.
         11    1    3    3    0    0  0.34420111750E+02 -0.17596713916E+02  0.13958942337E+03  0.14484334831E+03  0.00000000000E+00 0.  1.
          1    1    1    2  501    0  0.22695088262E+02  0.28482279467E+01 -0.18615383882E+02  0.29490879111E+02  0.00000000000E+00 0. -1.
<scales pt_clust_5="13000.00000" pt_clust_6="13000.00000" pt_clust_7="13000.00000" pt_clust_8="13000.00000" pt_clust_9="22.87312"></scales>
<clustering>
<clus scale="   22.873">  2  9  1 -1</clus>
<clus scale="   78.837">  5  6 -1 -1</clus>
<clus scale="   83.948">  7  8 -1 -1</clus>
<clus scale="  120.746">  2  5  1 -1</clus>
<clus scale="   22.873">  2  5  1 -1</clus>
</clustering>
</event>
<event>
 9    2  0.3764910E-005  0.1309519E+03  0.7546771E-02  0.1228671E+00
         21   -1    0    0  501  502  0.00000000000E+00  0.00000000000E+00  0.14052930429E+03  0.14052930429E+03  0.00000000000E+00 0.  1.
         -1   -1    0    0    0  501 -0.00000000000E+00 -0.00000000000E+00 -0.32508660365E+03  0.32508660365E+03  0.00000000000E+00 0.  1.
         23    2    1    2    0    0 -0.10397293448E+03  0.23514139926E+00 -0.16006672104E+03  0.21151430765E+03  0.91140116080E+02 0.  0.
         24    2    1    2    0    0  0.51158940506E+02 -0.89407111223E+02  0.33723011924E+02  0.13523284809E+03  0.80869109916E+02 0.  0.
        -13    1    4    4    0    0  0.73159492452E+02 -0.72186982716E+02  0.23091045681E+02  0.10533977501E+03  0.00000000000E+00 0.  1.
         14    1    4    4    0    0 -0.22000551946E+02 -0.17220128507E+02  0.10631966243E+02  0.29893073076E+02  0.00000000000E+00 0. -1.
        -13    1    3    3    0    0 -0.54483336149E+02  0.41966942199E+02 -0.10977555484E+03  0.12953891537E+03  0.00000000000E+00 0.  1.
         13    1    3    3    0    0 -0.49489598332E+02 -0.41731800799E+02 -0.50291166204E+02  0.81975392278E+02  0.00000000000E+00 0. -1.
         -2    1    1    2    0  502  0.52813993975E+02  0.89171969823E+02 -0.58213590243E+02  0.11886875220E+03  0.00000000000E+00 0.  1.
<scales pt_clust_5="13000.00000" pt_clust_6="13000.00000" pt_clust_7="13000.00000" pt_clust_8="13000.00000" pt_clust_9="103.63865"></scales>
<clustering>
<clus scale="   80.869">  5  6 -1 -1</clus>
<clus scale="   91.140">  7  8 -1 -1</clus>
<clus scale="  103.639">  1  9  2 -1</clus>
<clus scale="  124.023">  1  5  2 -1</clus>
<clus scale="  103.639">  1  5  2 -1</clus>
</clustering>
</event>
<event>
 9    2  0.3764910E-005  0.1597993E+03  0.7546771E-02  0.1190398E+00
         21   -1    0    0  501  502  0.00000000000E+00  0.00000000000E+00  0.14097688106E+03  0.14097688106E+03  0.00000000000E+00 0.  1.
          2   -1    0    0  502    0 -0.00000000000E+00 -0.00000000000E+00 -0.33192186038E+03  0.33192186038E+03  0.00000000000E+00 0. -1.
         24    2    1    2    0    0 -0.36649743421E+02 -0.14309931484E+03 -0.14358603176E+03  0.22184888413E+03  0.82336876750E+02 0.  0.
         23    2    1    2    0    0  0.38621824844E+01  0.92543709004E+02  0.47510054975E+02  0.13866204180E+03  0.91600775006E+02 0.  0.
        -13    1    3    3    0    0 -0.17834238491E+02 -0.72565051115E+02 -0.18437861799E+02  0.76965586164E+02  0.00000000000E+00 0.  1.
         14    1    3    3    0    0 -0.18815504930E+02 -0.70534263722E+02 -0.12514816996E+03  0.14488329796E+03  0.00000000000E+00 0. -1.
        -11    1    4    4    0    0  0.17785428959E+02  0.77486382101E+02 -0.75962057145E+01  0.79863403607E+02  0.00000000000E+00 0. -1.
         11    1    4    4    0    0 -0.13923246474E+02  0.15057326902E+02  0.55106260689E+02  0.58798638190E+02  0.00000000000E+00 0.  1.
          1    1    1    2  501    0  0.32787560937E+02  0.50555605833E+02 -0.94869002539E+02  0.11238781551E+03  0.00000000000E+00 0. -1.
<scales pt_clust_5="13000.00000" pt_clust_6="13000.00000" pt_clust_7="13000.00000" pt_clust_8="13000.00000" pt_clust_9="60.25693"></scales>
<clustering>
<clus scale="   60.257">  1  9  2 -1</clus>
<clus scale="   82.337">  5  6 -1 -1</clus>
<clus scale="   91.601">  7  8 -1 -1</clus>
<clus scale="  154.675">  2  5  1 -1</clus>
<clus scale="   60.257">  1  5  2 -1</clus>
</clustering>
</event>
<event>
 9    2  0.3764910E-005  0.1009640E+03  0.7546771E-02  0.1287860E+00
         21   -1    0    0  501  502  0.00000000000E+00  0.00000000000E+00  0.10524580158E+03  0.10524580158E+03  0.00000000000E+00 0.  1.
          4   -1    0    0  502    0 -0.00000000000E+00 -0.00000000000E+00 -0.14970708823E+03  0.14970708823E+03  0.00000000000E+00 0. -1.
         23    2    1    2    0    0  0.99026199214E+01 -0.17775213822E+02 -0.81719201686E+02  0.12853216517E+03  0.97100306134E+02 0.  0.
         24    2    1    2    0    0 -0.11831137690E+02  0.44111297117E+02  0.17342153896E+02  0.93345870055E+02  0.79541931095E+02 0.  0.
        -13    1    4    4    0    0 -0.39225034444E+02  0.43854497614E+02  0.26404924594E+02  0.64490622039E+02  0.00000000000E+00 0.  1.
         14    1    4    4    0    0  0.27393896754E+02  0.25679950245E+00 -0.90627706986E+01  0.28855248016E+02  0.00000000000E+00 0. -1.
        -11    1    3    3    0    0  0.53553905593E+02 -0.53418914434E+01 -0.43907218591E+02  0.69457904178E+02  0.00000000000E+00 0. -1.
         11    1    3    3    0    0 -0.43651285671E+02 -0.12433322379E+02 -0.37811983095E+02  0.59074260992E+02  0.00000000000E+00 0.  1.
          3    1    1    2  501    0  0.19285177686E+01 -0.26336083295E+02  0.19915761134E+02  0.33074854583E+02  0.00000000000E+00 0. -1.
<scales pt_clust_5="13000.00000" pt_clust_6="13000.00000" pt_clust_7="13000.00000" pt_clust_8="13000.00000" pt_clust_9="26.40660"></scales>
<clustering>
<clus scale="   26.407">  1  9  2 -1</clus>
<clus scale="   79.542">  5  6 -1 -1</clus>
<clus scale="   84.215">  1  5  2 -1</clus>
<clus scale="   97.100">  7  8 -1 -1</clus>
<clus scale="   26.407">  1  5  2 -1</clus>
</clustering>
</event>
<event>
 9    2  0.3764910E-005  0.1620311E+03  0.7546771E-02  0.1187826E+00
         21   -1    0    0  501  502  0.00000000000E+00  0.00000000000E+00  0.52099447270E+03  0.52099447270E+03  0.00000000000E+00 0.  1.
          2   -1    0    0  502    0 -0.00000000000E+00 -0.00000000000E+00 -0.66420143092E+02  0.66420143092E+02  0.00000000000E+00 0. -1.
         24    2    1    2    0    0  0.44189399320E+02  0.13189379090E+03  0.13081397566E+03  0.20735661143E+03  0.80844251414E+02 0.  0.
         23    2    1    2    0    0 -0.59175725861E+02 -0.11518745711E+03  0.20234131356E+03  0.25658219726E+03  0.90124913140E+02 0.  0.
        -11    1    3    3    0    0  0.39595128380E+02  0.14297075527E+03  0.12516994073E+03  0.19410287251E+03  0.00000000000E+00 0.  1.
         12    1    3    3    0    0  0.45942709402E+01 -0.11076964370E+02  0.56440349246E+01  0.13253738920E+02  0.00000000000E+00 0. -1.
        -13    1    4    4    0    0 -0.24439997076E+02  0.10989067263E+02  0.38011927867E+02  0.46507845753E+02  0.00000000000E+00 0.  1.
         13    1    4    4    0    0 -0.34735728785E+02 -0.12617652437E+03  0.16432938570E+03  0.21007435150E+03  0.00000000000E+00 0. -1.
          1    1    1    2  501    0  0.14986326541E+02 -0.16706333791E+02  0.12141904038E+03  0.12347580710E+03  0.00000000000E+00 0. -1.
<scales pt_clust_5="13000.00000" pt_clust_6="13000.00000" pt_clust_7="13000.00000" pt_clust_8="13000.00000" pt_clust_9="22.44307"></scales>
<clustering>
<clus scale="   22.443">  1  9  2 -1</clus>
<clus scale="   80.844">  5  6 -1 -1</clus>
<clus scale="   90.125">  7  8 -1 -1</clus>
<clus scale="  157.059">  2  5  1 -1</clus>
<clus scale="   22.443">  1  5  2 -1</clus>
</clustering>
</event>
<event>
 9    2  0.3764910E-005  0.2296454E+03  0.7546771E-02  0.1128399E+00
         21   -1    0    0  501  502  0.00000000000E+00  0.00000000000E+00  0.17968825244E+03  0.17968825244E+03  0.00000000000E+00 0. -1.
          4   -1    0    0  502    0 -0.00000000000E+00 -0.00000000000E+00 -0.51536597348E+03  0.51536597348E+03  0.00000000000E+00 0. -1.
         23    2    1    2    0    0  0.21778510245E+03 -0.55808472237E+02 -0.11908299101E+03  0.27054484566E+03  0.92026182909E+02 0.  0.
         24    2    1    2    0    0 -0.18290245844E+03  0.54896911995E+02  0.22810098059E+01  0.20286953889E+03  0.68438779608E+02 0.  0.
        -13    1    4    4    0    0 -0.88104122483E+02 -0.20915407560E+01 -0.19193881387E+02  0.90194878036E+02  0.00000000000E+00 0.  1.
         14    1    4    4    0    0 -0.94798335959E+02  0.56988452751E+02  0.21474891193E+02  0.11267466086E+03  0.00000000000E+00 0. -1.
        -11    1    3    3    0    0  0.86625297782E+02 -0.18300800594E+02 -0.98735785111E+02  0.13261831238E+03  0.00000000000E+00 0.  1.
         11    1    3    3    0    0  0.13115980467E+03 -0.37507671643E+02 -0.20347205900E+02  0.13792653327E+03  0.00000000000E+00 0. -1.
          3    1    1    2  501    0 -0.34882644009E+02  0.91156024212E+00 -0.21887573984E+03  0.22163984137E+03  0.00000000000E+00 0. -1.
<scales pt_clust_5="13000.00000" pt_clust_6="13000.00000" pt_clust_7="13000.00000" pt_clust_8="13000.00000" pt_clust_9="34.89457"></scales>
<clustering>
<clus scale="   34.895">  1  9  2 -1</clus>
<clus scale="   68.439">  5  6 -1 -1</clus>
<clus scale="   92.026">  7  8 -1 -1</clus>
<clus scale="  221.251">  1  5  2 -1</clus>
<clus scale="   34.895">  1  5  2 -1</clus>
</clustering>
</event>
<event>
 9    2  0.3764910E-005  0.9759437E+02  0.7546771E-02  0.1291562E+00
         -1   -1    0    0    0  501 -0.00000000000E+00  0.00000000000E+00  0.36943709517E+03  0.36943709517E+03  0.00000000000E+00 0.  1.
         21   -1    0    0  501  502  0.00000000000E+00 -0.00000000000E+00 -0.14490042482E+03  0.14490042482E+03  0.00000000000E+00 0.  1.
         23    2    1    2    0    0 -0.45951259100E+02  0.94186329953E+01  0.31563138390E+03  0.33105297606E+03  0.88162767638E+02 0.  0.
         24    2    1    2    0    0  0.17218714748E+02 -0.93795967204E+01  0.88991659777E+01  0.79244471975E+02  0.76262901934E+02 0.  0.
        -11    1    4    4    0    0  0.19471530562E+02 -0.39510683233E+02 -0.77822987137E+01  0.44730289126E+02  0.00000000000E+00 0.  1.
         12    1    4    4    0    0 -0.22528158141E+01  0.30131086513E+02  0.16681464691E+02  0.34514182850E+02  0.00000000000E+00 0. -1.
        -13    1    3    3    0    0 -0.69397720994E+02  0.18959607238E+02  0.19632904385E+03  0.20909472458E+03  0.00000000000E+00 0. -1.
         13    1    3    3    0    0  0.23446461895E+02 -0.95409742425E+01  0.11930234004E+03  0.12195825148E+03  0.00000000000E+00 0.  1.
         -2    1    1    2    0  502  0.28732544352E+02 -0.39036274924E-01 -0.99993879527E+02  0.10404007195E+03  0.00000000000E+00 0.  1.
<scales pt_clust_5="13000.00000" pt_clust_6="13000.00000" pt_clust_7="13000.00000" pt_clust_8="13000.00000" pt_clust_9="28.73257"></scales>
<clustering>
<clus scale="   28.733">  2  9  1 -1</clus>
<clus scale="   76.263">  5  6 -1 -1</clus>
<clus scale="   86.994">  2  5  1 -1</clus>
<clus scale="   88.163">  7  8 -1 -1</clus>
<clus scale="   28.733">  2  5  1 -1</clus>
</clustering>
</event>
<event>
 9    2  0.3764910E-005  0.9819097E+02  0.7546771E-02  0.1287865E+00
          2   -1    0    0  502    0 -0.00000000000E+00  0.00000000000E+00  0.25105347285E+03  0.25105347285E+03  0.00000000000E+00 0. -1.
         21   -1    0    0  501  502  0.00000000000E+00 -0.00000000000E+00 -0.90164135827E+02  0.90164135827E+02  0.00000000000E+00 0.  1.
         24    2    1    2    0    0 -0.23967172756E+02 -0.56591757527E+02  0.14964372101E+03  0.18054427606E+03  0.80161960991E+02 0.  0.
         23    2    1    2    0    0  0.23418187559E+02 -0.11264823111E+02  0.15195787448E+02  0.92699655547E+02  0.87675574900E+02 0.  0.
        -11    1    3    3    0    0 -0.14758880028E+02 -0.28351030749E+02  0.43641487734E+01  0.32259127061E+02  0.00000000000E+00 0.  1.
         12    1    3    3    0    0 -0.92082927285E+01 -0.28240726778E+02  0.14527957224E+03  0.14828514900E+03  0.00000000000E+00 0. -1.
        -11    1    4    4    0    0 -0.88159143007E+01 -0.30993683057E+02 -0.22515854160E+02  0.39310207617E+02  0.00000000000E+00 0.  1.
         11    1    4    4    0    0  0.32234101860E+02  0.19728859946E+02  0.37711641608E+02  0.53389447930E+02  0.00000000000E+00 0. -1.
          1    1    1    2  501    0  0.54898519742E+00  0.67856580638E+02 -0.39501714328E+01  0.67973677074E+02  0.00000000000E+00 0. -1.
<scales pt_clust_5="13000.00000" pt_clust_6="13000.00000" pt_clust_7="13000.00000" pt_clust_8="13000.00000" pt_clust_9="67.85880"></scales>
<clustering>
<clus scale="   67.859">  2  9  1 -1</clus>
<clus scale="   80.162">  5  6 -1 -1</clus>
<clus scale="   87.676">  7  8 -1 -1</clus>
<clus scale="   91.545">  1  5  2 -1</clus>
<clus scale="   67.859">  2  5  1 -1</clus>
</clustering>
</event>
<event>
 9    2  0.3764910E-005  0.1381460E+03  0.7546771E-02  0.1219575E+00
         21   -1    0    0  501  502  0.00000000000E+00  0.00000000000E+00  0.90683046871E+03  0.90683046871E+03  0.00000000000E+00 0.  1.
         -3   -1    0    0    0  501 -0.00000000000E+00 -0.00000000000E+00 -0.67368805911E+02  0.67368805911E+02  0.00000000000E+00 0.  1.
         24    2    1    2    0    0  0.64707368373E+02 -0.78591090486E+02  0.75166533737E+02  0.15009245528E+03  0.80710187166E+02 0.  0.
         23    2    1    2    0    0  0.28234087906E+02  0.12256924930E+03  0.22563418335E+03  0.27572027029E+03  0.96387230268E+02 0.  0.
        -11    1    3    3    0    0  0.51230899574E+02 -0.26228287614E+01  0.19184954324E+02  0.54768118229E+02  0.00000000000E+00 0.  1.
         12    1    3    3    0    0  0.13476468799E+02 -0.75968261724E+02  0.55981579413E+02  0.95324337051E+02  0.00000000000E+00 0. -1.
        -11    1    4    4    0    0 -0.32432236984E+02  0.67312022414E+02  0.12768554026E+03  0.14794037836E+03  0.00000000000E+00 0. -1.
         11    1    4    4    0    0  0.60666324891E+02  0.55257226882E+02  0.97948643095E+02  0.12777989193E+03  0.00000000000E+00 0.  1.
         -4    1    1    2    0  502 -0.92941456279E+02 -0.43978158810E+02  0.53866094570E+03  0.54838654905E+03  0.00000000000E+00 0.  1.
<scales pt_clust_5="13000.00000" pt_clust_6="13000.00000" pt_clust_7="13000.00000" pt_clust_8="13000.00000" pt_clust_9="102.82117"></scales>
<clustering>
<clus scale="   80.710">  5  6 -1 -1</clus>
<clus scale="   96.387">  7  8 -1 -1</clus>
<clus scale="  102.821">  1  9  2 -1</clus>
<clus scale="  127.703">  2  5  1 -1</clus>
<clus scale="  102.821">  1  5  2 -1</clus>
</clustering>
</event>
<event>
 9    2  0.3764910E-005  0.9223414E+02  0.7546771E-02  0.1304494E+00
         -1   -1    0    0    0  501 -0.00000000000E+00  0.00000000000E+00  0.25014891292E+03  0.25014891292E+03  0.00000000000E+00 0.  1.
         21   -1    0    0  501  502  0.00000000000E+00 -0.00000000000E+00 -0.78082645861E+02  0.78082645861E+02  0.00000000000E+00 0.  1.
         23    2    1    2    0    0 -0.50968793509E+01 -0.10236150708E+02  0.17480945042E+03  0.19742250101E+03  0.91030450896E+02 0.  0.
         24    2    1    2    0    0 -0.97912347997E+01  0.26804858933E+02  0.31139693833E+02  0.90259983765E+02  0.79767257668E+02 0.  0.
        -13    1    4    4    0    0 -0.37135256357E+02  0.11488913220E+02  0.41870269867E+02  0.57132669204E+02  0.00000000000E+00 0.  1.
         14    1    4    4    0    0  0.27344021557E+02  0.15315945712E+02 -0.10730576034E+02  0.33127314561E+02  0.00000000000E+00 0. -1.
        -13    1    3    3    0    0 -0.29175456112E+02  0.19269325223E+02  0.14472811310E+03  0.14889170848E+03  0.00000000000E+00 0.  1.
         13    1    3    3    0    0  0.24078576761E+02 -0.29505475931E+02  0.30081337324E+02  0.48530792534E+02  0.00000000000E+00 0. -1.
         -2    1    1    2    0  502  0.14888114151E+02 -0.16568708225E+02 -0.33882877196E+02  0.40549074000E+02  0.00000000000E+00 0.  1.
<scales pt_clust_5="13000.00000" pt_clust_6="13000.00000" pt_clust_7="13000.00000" pt_clust_8="13000.00000" pt_clust_9="22.27505"></scales>
<clustering>
<clus scale="   22.275">  2  9  1 -1</clus>
<clus scale="   79.767">  5  6 -1 -1</clus>
<clus scale="   81.138">  2  5  1 -1</clus>
<clus scale="   91.030">  7  8 -1 -1</clus>
<clus scale="   22.275">  2  5  1 -1</clus>
</clustering>
</event>
<event>
 9    2  0.3764910E-005  0.9832756E+02  0.7546771E-02  0.1288676E+00
          2   -1    0    0  502    0 -0.00000000000E+00  0.00000000000E+00  0.60979405482E+03  0.60979405482E+03  0.00000000000E+00 0. -1.
         21   -1    0    0  501  502  0.00000000000E+00 -0.00000000000E+00 -0.12151949336E+03  0.12151949336E+03  0.00000000000E+00 0. -1.
         23    2    1    2    0    0 -0.32983923921E+02  0.31919423191E+02  0.43272154939E+03  0.44443894864E+03  0.90394971928E+02 0.  0.
         24    2    1    2    0    0  0.29586067817E+02 -0.34678867474E+01  0.15824554645E+03  0.18025944128E+03  0.81021303060E+02 0.  0.
        -13    1    4    4    0    0  0.47374262122E+02 -0.15225705181E+01  0.44170499624E+02  0.64789443350E+02  0.00000000000E+00 0.  1.
         14    1    4    4    0    0 -0.17788194305E+02 -0.19453162293E+01  0.11407504683E+03  0.11546999793E+03  0.00000000000E+00 0. -1.
        -13    1    3    3    0    0 -0.60226525445E+02  0.36457078740E+01  0.21997942414E+03  0.22810408282E+03  0.00000000000E+00 0. -1.
         13    1    3    3    0    0  0.27242601524E+02  0.28273715317E+02  0.21274212525E+03  0.21633486582E+03  0.00000000000E+00 0.  1.
          1    1    1    2  501    0  0.33978561034E+01 -0.28451536443E+02 -0.10269253438E+03  0.10661515826E+03  0.00000000000E+00 0. -1.
<scales pt_clust_5="13000.00000" pt_clust_6="13000.00000" pt_clust_7="13000.00000" pt_clust_8="13000.00000" pt_clust_9="28.65371"></scales>
<clustering>
<clus scale="   28.654">  2  9  1 -1</clus>
<clus scale="   81.021">  5  6 -1 -1</clus>
<clus scale="   89.786">  2  5  1 -1</clus>
<clus scale="   90.395">  7  8 -1 -1</clus>
<clus scale="   28.654">  2  5  1 -1</clus>
</clustering>
</event>
<event>
 9    2  0.3764910E-005  0.9529779E+02  0.7546771E-02  0.1295272E+00
         21   -1    0    0  501  502  0.00000000000E+00  0.00000000000E+00  0.24441983534E+03  0.24441983534E+03  0.00000000000E+00 0. -1.
          4   -1    0    0  502    0 -0.00000000000E+00 -0.00000000000E+00 -0.50671280586E+02  0.50671280586E+02  0.00000000000E+00 0. -1.
         24    2    1    2    0    0  0.16090407749E+02  0.30336659106E+02  0.61699272698E+02  0.10734069626E+03  0.80845597989E+02 0.  0.
         23    2    1    2    0    0  0.17469297507E+02 -0.35905155329E+02  0.10934498276E+03  0.14685118772E+03  0.89524239995E+02 0.  0.
        -11    1    3    3    0    0  0.26890567897E+02  0.13418127158E+02 -0.10938102688E+02  0.31981101743E+02  0.00000000000E+00 0.  1.
         12    1    3    3    0    0 -0.10800160148E+02  0.16918531947E+02  0.72637375385E+02  0.75359594514E+02  0.00000000000E+00 0. -1.
        -11    1    4    4    0    0 -0.30994540428E+02 -0.13820782151E+02  0.12195921593E+02  0.36061281995E+02  0.00000000000E+00 0.  1.
         11    1    4    4    0    0  0.48463837935E+02 -0.22084373178E+02  0.97149061164E+02  0.11078990573E+03  0.00000000000E+00 0. -1.
          3    1    1    2  501    0 -0.33559705256E+02  0.55684962235E+01  0.22704299299E+02  0.40899231946E+02  0.00000000000E+00 0. -1.
<scales pt_clust_5="13000.00000" pt_clust_6="13000.00000" pt_clust_7="13000.00000" pt_clust_8="13000.00000" pt_clust_9="34.01857"></scales>
<clustering>
<clus scale="   34.019">  1  9  2 -1</clus>
<clus scale="   80.846">  5  6 -1 -1</clus>
<clus scale="   87.196">  2  5  1 -1</clus>
<clus scale="   89.524">  7  8 -1 -1</clus>
<clus scale="   34.019">  1  5  2 -1</clus>
</clustering>
</event>
<event>
 9    2  0.3764910E-005  0.9492541E+02  0.7546771E-02  0.1300747E+00
         -3   -1    0    0    0  501 -0.00000000000E+00  0.00000000000E+00  0.33031030280E+03  0.33031030280E+03  0.00000000000E+00 0.  1.
         21   -1    0    0  501  502  0.00000000000E+00 -0.00000000000E+00 -0.10144221854E+03  0.10144221854E+03  0.00000000000E+00 0.  1.
         24    2    1    2    0    0 -0.12010035963E+01 -0.22067957578E+01  0.25904989650E+03  0.27097547714E+03  0.79464130136E+02 0.  0.
         23    2    1    2    0    0  0.48076847524E+02  0.16391263649E+02 -0.10428614388E+02  0.10796859129E+03  0.94701657407E+02 0.  0.
        -13    1    3    3    0    0 -0.17460074651E+02 -0.37025502325E+02  0.14164122177E+03  0.14743804710E+03  0.00000000000E+00 0.  1.
         14    1    3    3    0    0  0.16259071054E+02  0.34818706567E+02  0.11740867473E+03  0.12353743004E+03  0.00000000000E+00 0. -1.
        -11    1    4    4    0    0 -0.12741898063E+02  0.36864113919E+02  0.10635000538E+02  0.40427986566E+02  0.00000000000E+00 0. -1.
         11    1    4    4    0    0  0.60818745587E+02 -0.20472850270E+02 -0.21063614926E+02  0.67540604726E+02  0.00000000000E+00 0.  1.
         -4    1    1    2    0  502 -0.46875843927E+02 -0.14184467891E+02 -0.19753197846E+02  0.52808452907E+02  0.00000000000E+00 0.  1.
<scales pt_clust_5="13000.00000" pt_clust_6="13000.00000" pt_clust_7="13000.00000" pt_clust_8="13000.00000" pt_clust_9="48.97493"></scales>
<clustering>
<clus scale="   48.975">  2  9  1 -1</clus>
<clus scale="   79.464">  5  6 -1 -1</clus>
<clus scale="   79.731">  1  5  2 -1</clus>
<clus scale="   94.702">  7  8 -1 -1</clus>
<clus scale="   48.975">  2  5  1 -1</clus>
</clustering>
</event>
<event>
 9    2  0.3764910E-005  0.1089861E+03  0.7546771E-02  0.1268545E+00
         -1   -1    0    0    0  501 -0.00000000000E+00  0.00000000000E+00  0.12827381067E+03  0.12827381067E+03  0.00000000000E+00 0.  1.
         21   -1    0    0  501  502  0.00000000000E+00 -0.00000000000E+00 -0.45467000852E+03  0.45467000852E+03  0.00000000000E+00 0.  1.
         23    2    1    2    0    0  0.58949872471E+02  0.84504739012E+01  0.87499194592E+02  0.14174830692E+03  0.94286666532E+02 0.  0.
         24    2    1    2    0    0 -0.16145195478E+02  0.37374324784E+02 -0.22737372936E+03  0.24441522020E+03  0.79890422287E+02 0.  0.
        -11    1    4    4    0    0  0.95132592502E+01  0.54064790967E+02 -0.10762814118E+03  0.12081937136E+03  0.00000000000E+00 0.  1.
         12    1    4    4    0    0 -0.25658454728E+02 -0.16690466183E+02 -0.11974558818E+03  0.12359584883E+03  0.00000000000E+00 0. -1.
        -11    1    3    3    0    0  0.69894310084E+02 -0.13208220511E+02  0.92784126510E+02  0.11691264176E+03  0.00000000000E+00 0.  1.
         11    1    3    3    0    0 -0.10944437613E+02  0.21658694412E+02 -0.52849319184E+01  0.24835665155E+02  0.00000000000E+00 0. -1.
         -2    1    1    2    0  502 -0.42804676993E+02 -0.45824798685E+02 -0.18652166309E+03  0.19678029207E+03  0.00000000000E+00 0.  1.
<scales pt_clust_5="13000.00000" pt_clust_6="13000.00000" pt_clust_7="13000.00000" pt_clust_8="13000.00000" pt_clust_9="62.70688"></scales>
<clustering>
<clus scale="   62.707">  2  9  1 -1</clus>
<clus scale="   79.890">  5  6 -1 -1</clus>
<clus scale="   94.287">  7  8 -1 -1</clus>
<clus scale="   96.801">  2  5  1 -1</clus>
<clus scale="   62.707">  2  5  1 -1</clus>
</clustering>
</event>
<event>
 9    2  0.3764910E-005  0.1207093E+03  0.7546771E-02  0.1245339E+00
         21   -1    0    0  501  502  0.00000000000E+00  0.00000000000E+00  0.27683961785E+03  0.27683961785E+03  0.00000000000E+00 0. -1.
          2   -1    0    0  502    0 -0.00000000000E+00 -0.00000000000E+00 -0.36630094612E+03  0.36630094612E+03  0.00000000000E+00 0. -1.
         24    2    1    2    0    0  0.58688598496E+02  0.51895214753E+02 -0.16112692548E+03  0.19643371222E+03  0.80540997479E+02 0.  0.
         23    2    1    2    0    0 -0.33175884060E+02 -0.76658814937E+02 -0.16560346566E+03  0.20678865176E+03  0.91432081186E+02 0.  0.
        -13    1    3    3    0    0  0.61201512078E+02  0.67953504717E+02 -0.11146475669E+03  0.14417938780E+03  0.00000000000E+00 0.  1.
         14    1    3    3    0    0 -0.25129135812E+01 -0.16058289964E+02 -0.49662168795E+02  0.52254324421E+02  0.00000000000E+00 0. -1.
        -13    1    4    4    0    0 -0.45951691090E+02 -0.26901136604E+02 -0.13918409021E+03  0.14902160928E+03  0.00000000000E+00 0.  1.
         13    1    4    4    0    0  0.12775807030E+02 -0.49757678333E+02 -0.26419375446E+02  0.57767042484E+02  0.00000000000E+00 0. -1.
          1    1    1    2  501    0 -0.25512714437E+02  0.24763600183E+02  0.23726906287E+03  0.23991819999E+03  0.00000000000E+00 0. -1.
<scales pt_clust_5="13000.00000" pt_clust_6="13000.00000" pt_clust_7="13000.00000" pt_clust_8="13000.00000" pt_clust_9="35.55467"></scales>
<clustering>
<clus scale="   35.555">  1  9  2 -1</clus>
<clus scale="   80.541">  5  6 -1 -1</clus>
<clus scale="   91.432">  7  8 -1 -1</clus>
<clus scale="  112.684">  2  5  1 -1</clus>
<clus scale="   35.555">  1  5  2 -1</clus>
</clustering>
</event>
<event>
 9    2  0.3764910E-005  0.9303221E+02  0.7546771E-02  0.1301894E+00
          2   -1    0    0  502    0 -0.00000000000E+00  0.00000000000E+00  0.47373318034E+03  0.47373318034E+03  0.00000000000E+00 0. -1.
         21   -1    0    0  501  502  0.00000000000E+00 -0.00000000000E+00 -0.45538526718E+02  0.45538526718E+02  0.00000000000E+00 0.  1.
         23    2    1    2    0    0 -0.71890513459E+01 -0.14916490835E+02  0.30685948669E+03  0.32046364428E+03  0.90884644334E+02 0.  0.
         24    2    1    2    0    0  0.39438566924E+02 -0.37773336300E+01  0.13238381920E+03  0.15992923763E+03  0.80512214317E+02 0.  0.
        -11    1    4    4    0    0  0.34665781878E+02 -0.10475116716E+02  0.10412688564E+02  0.37681143647E+02  0.00000000000E+00 0.  1.
         12    1    4    4    0    0  0.47727850462E+01  0.66977830860E+01  0.12197113063E+03  0.12224809398E+03  0.00000000000E+00 0. -1.
        -13    1    3    3    0    0  0.27407444148E+02  0.26392251269E+02  0.14281060033E+03  0.14779237629E+03  0.00000000000E+00 0.  1.
         13    1    3    3    0    0 -0.34596495494E+02 -0.41308742104E+02  0.16404888635E+03  0.17267126799E+03  0.00000000000E+00 0. -1.
          1    1    1    2  501    0 -0.32249515578E+02  0.18693824465E+02 -0.11048652261E+02  0.38878825149E+02  0.00000000000E+00 0. -1.
<scales pt_clust_5="13000.00000" pt_clust_6="13000.00000" pt_clust_7="13000.00000" pt_clust_8="13000.00000" pt_clust_9="37.27587"></scales>
<clustering>
<clus scale="   37.276">  2  9  1 -1</clus>
<clus scale="   80.512">  5  6 -1 -1</clus>
<clus scale="   82.929">  2  5  1 -1</clus>
<clus scale="   90.885">  7  8 -1 -1</clus>
<clus scale="   37.276">  2  5  1 -1</clus>
</clustering>
</event>
<event>
 9    2  0.3764910E-005  0.1078004E+03  0.7546771E-02  0.1271460E+00
         21   -1    0    0  501  502  0.00000000000E+00  0.00000000000E+00  0.16020150409E+04  0.16020150409E+04  0.00000000000E+00 0. -1.
          2   -1    0    0  502    0 -0.00000000000E+00 -0.00000000000E+00 -0.26301477188E+02  0.26301477188E+02  0.00000000000E+00 0. -1.
         23    2    1    2    0    0 -0.66249241825E+01 -0.10524541596E+02  0.11014122658E+03  0.14566255738E+03  0.94508387098E+02 0.  0.
         24    2    1    2    0    0 -0.53681959314E+02 -0.56255699617E+02  0.95704004376E+03  0.96622234451E+03  0.10776602980E+03 0.  0.
        -13    1    4    4    0    0 -0.32216772756E+02  0.13281585587E+02  0.96295418064E+02  0.10240668192E+03  0.00000000000E+00 0.  1.
         14    1    4    4    0    0 -0.21465186559E+02 -0.69537285204E+02  0.86074462569E+03  0.86381566258E+03  0.00000000000E+00 0. -1.
        -11    1    3    3    0    0  0.21742687379E+02  0.34519710498E+02  0.36125907187E+02  0.54492531942E+02  0.00000000000E+00 0.  1.
         11    1    3    3    0    0 -0.28367611561E+02 -0.45044252094E+02  0.74015319396E+02  0.91170025434E+02  0.00000000000E+00 0. -1.
          1    1    1    2  501    0  0.60306883497E+02  0.66780241213E+02  0.50853229342E+03  0.51643161625E+03  0.00000000000E+00 0. -1.
<scales pt_clust_5="13000.00000" pt_clust_6="13000.00000" pt_clust_7="13000.00000" pt_clust_8="13000.00000" pt_clust_9="89.98067"></scales>
<clustering>
<clus scale="   89.981">  1  9  2 -1</clus>
<clus scale="   94.508">  7  8 -1 -1</clus>
<clus scale="   94.548">  2  7  1 -1</clus>
<clus scale="  107.766">  5  6 -1 -1</clus>
<clus scale="   89.981">  1  5  2 -1</clus>
</clustering>
</event>
<event>
 9    2  0.3764910E-005  0.9805604E+02  0.7546771E-02  0.1291897E+00
          2   -1    0    0  502    0 -0.00000000000E+00  0.00000000000E+00  0.50777051391E+03  0.50777051391E+03  0.00000000000E+00 0. -1.
         21   -1    0    0  501  502  0.00000000000E+00 -0.00000000000E+00 -0.18480467196E+03  0.18480467196E+03  0.00000000000E+00 0. -1.
         24    2    1    2    0    0  0.26095001464E+02 -0.52739536475E+02  0.30668774620E+03  0.32115463381E+03  0.74970109640E+02 0.  0.
         23    2    1    2    0    0 -0.43168868769E+02 -0.30721121094E+02  0.16795922791E+03  0.19745399160E+03  0.89277309808E+02 0.  0.
        -11    1    3    3    0    0  0.28600995398E+02 -0.27524167494E+02  0.53060578330E+02  0.66264784816E+02  0.00000000000E+00 0.  1.
         12    1    3    3    0    0 -0.25059939344E+01 -0.25215368981E+02  0.25362716787E+03  0.25488984899E+03  0.00000000000E+00 0. -1.
        -13    1    4    4    0    0  0.20369241174E+02  0.11595436355E+02  0.66311086236E+02  0.70331502813E+02  0.00000000000E+00 0.  1.
         13    1    4    4    0    0 -0.63538109942E+02 -0.42316557448E+02  0.10164814167E+03  0.12712248878E+03  0.00000000000E+00 0. -1.
          1    1    1    2  501    0  0.17073867305E+02  0.83460657568E+02 -0.15168113215E+03  0.17396656046E+03  0.00000000000E+00 0. -1.
<scales pt_clust_5="13000.00000" pt_clust_6="13000.00000" pt_clust_7="13000.00000" pt_clust_8="13000.00000" pt_clust_9="85.18919"></scales>
<clustering>
<clus scale="   74.970">  5  6 -1 -1</clus>
<clus scale="   85.189">  2  9  1 -1</clus>
<clus scale="   85.235">  1  5  2 -1</clus>
<clus scale="   89.277">  7  8 -1 -1</clus>
<clus scale="   85.189">  2  5  1 -1</clus>
</clustering>
</event>
<event>
 9    2  0.3764910E-005  0.1333637E+03  0.7546771E-02  0.1238278E+00
         21   -1    0    0  501  502  0.00000000000E+00  0.00000000000E+00  0.82972903005E+02  0.82972903005E+02  0.00000000000E+00 0.  1.
          2   -1    0    0  502    0 -0.00000000000E+00 -0.00000000000E+00 -0.54080109068E+03  0.54080109068E+03  0.00000000000E+00 0. -1.
         24    2    1    2    0    0 -0.38026445180E+02  0.36270831209E+02 -0.30732193799E+03  0.32208580249E+03  0.80814026431E+02 0.  0.
         23    2    1    2    0    0 -0.48578407111E+02  0.11008046130E+02 -0.16825373292E+03  0.20143518204E+03  0.98923077213E+02 0.  0.
        -13    1    3    3    0    0 -0.63425767812E+02  0.23475073265E+02 -0.22801922705E+03  0.23783749702E+03  0.00000000000E+00 0.  1.
         14    1    3    3    0    0  0.25399322633E+02  0.12795757943E+02 -0.79302710945E+02  0.84248305471E+02  0.00000000000E+00 0. -1.
        -11    1    4    4    0    0 -0.68642102933E+02  0.35341293259E+02 -0.10077627769E+03  0.12695118530E+03  0.00000000000E+00 0.  1.
         11    1    4    4    0    0  0.20063695823E+02 -0.24333247129E+02 -0.67477455234E+02  0.74483996743E+02  0.00000000000E+00 0. -1.
          1    1    1    2  501    0  0.86604852290E+02 -0.47278877339E+02  0.17747483236E+02  0.10025300915E+03  0.00000000000E+00 0. -1.
<scales pt_clust_5="13000.00000" pt_clust_6="13000.00000" pt_clust_7="13000.00000" pt_clust_8="13000.00000" pt_clust_9="89.44331"></scales>
<clustering>
<clus scale="   80.814">  5  6 -1 -1</clus>
<clus scale="   96.398">  2  5  1 -1</clus>
<clus scale="   89.443">  1  9  2 -1</clus>
<clus scale="   98.923">  7  8 -1 -1</clus>
<clus scale="   89.443">  1  5  2 -1</clus>
</clustering>
</event>
<event>
 9    2  0.3764910E-005  0.1051455E+03  0.7546771E-02  0.1281308E+00
         -3   -1    0    0    0  501 -0.00000000000E+00  0.00000000000E+00  0.99033287038E+02  0.99033287038E+02  0.00000000000E+00 0.  1.
         21   -1    0    0  501  502  0.00000000000E+00 -0.00000000000E+00 -0.56993319050E+03  0.56993319050E+03  0.00000000000E+00 0.  1.
         23    2    1    2    0    0 -0.60515609872E+01 -0.52839714198E+02  0.44427319701E+02  0.11396327890E+03  0.90472014538E+02 0.  0.
         24    2    1    2    0    0 -0.77926310040E+02  0.61129896177E+02 -0.35532337348E+03  0.37411029703E+03  0.62405453285E+02 0.  0.
        -11    1    4    4    0    0 -0.86408893157E+02  0.57345737175E+02 -0.34487485845E+03  0.36013011313E+03  0.00000000000E+00 0.  1.
         12    1    4    4    0    0  0.84825831174E+01  0.37841590018E+01 -0.10448515033E+02  0.13980183907E+02  0.00000000000E+00 0. -1.
        -13    1    3    3    0    0  0.21212573752E+02 -0.66881011092E+02  0.15607847355E+02  0.71879397806E+02  0.00000000000E+00 0.  1.
         13    1    3    3    0    0 -0.27264134739E+02  0.14041296894E+02  0.28819472346E+02  0.42083881093E+02  0.00000000000E+00 0. -1.
         -4    1    1    2    0  502  0.83977871027E+02 -0.82901819789E+01 -0.16000384968E+03  0.18089290161E+03  0.00000000000E+00 0.  1.
<scales pt_clust_5="13000.00000" pt_clust_6="13000.00000" pt_clust_7="13000.00000" pt_clust_8="13000.00000" pt_clust_9="84.38608"></scales>
<clustering>
<clus scale="   62.405">  5  6 -1 -1</clus>
<clus scale="   84.386">  2  9  1 -1</clus>
<clus scale="   84.386">  2  5  1 -1</clus>
<clus scale="   90.472">  7  8 -1 -1</clus>
<clus scale="   84.386">  2  5  1 -1</clus>
</clustering>
</event>
<event>
 9    2  0.3764910E-005  0.9609012E+02  0.7546771E-02  0.1290022E+00
          2   -1    0    0  502    0 -0.00000000000E+00  0.00000000000E+00  0.48240759540E+02  0.48240759540E+02  0.00000000000E+00 0. -1.
         21   -1    0    0  501  502  0.00000000000E+00 -0.00000000000E+00 -0.24086436950E+03  0.24086436950E+03  0.00000000000E+00 0.  1.
         24    2    1    2    0    0 -0.18988436766E+02  0.14420738440E+02 -0.74421851297E+02  0.11762742171E+03  0.87915186172E+02 0.  0.
         23    2    1    2    0    0  0.31562268586E+02 -0.31706377759E+02 -0.10816457481E+03  0.14786331272E+03  0.90346625918E+02 0.  0.
        -13    1    3    3    0    0 -0.18729334851E+02 -0.35882218767E+02 -0.28379951367E+02  0.49434231532E+02  0.00000000000E+00 0.  1.
         14    1    3    3    0    0 -0.25910191539E+00  0.50302957206E+02 -0.46041899930E+02  0.68193190178E+02  0.00000000000E+00 0. -1.
        -11    1    4    4    0    0  0.25412776216E+02  0.28203033124E+02 -0.58811545512E+02  0.70000129699E+02  0.00000000000E+00 0.  1.
         11    1    4    4    0    0  0.61494923700E+01 -0.59909410883E+02 -0.49353029301E+02  0.77863183019E+02  0.00000000000E+00 0. -1.
          1    1    1    2  501    0 -0.12573831820E+02  0.17285639319E+02 -0.10037183856E+02  0.23614394616E+02  0.00000000000E+00 0. -1.
<scales pt_clust_5="13000.00000" pt_clust_6="13000.00000" pt_clust_7="13000.00000" pt_clust_8="13000.00000" pt_clust_9="21.37510"></scales>
<clustering>
<clus scale="   21.375">  2  9  1 -1</clus>
<clus scale="   87.915">  5  6 -1 -1</clus>
<clus scale="   90.347">  7  8 -1 -1</clus>
<clus scale="   93.808">  1  5  2 -1</clus>
<clus scale="   21.375">  2  5  1 -1</clus>
</clustering>
</event>
<event>
 9    2  0.3764910E-005  0.9534933E+02  0.7546771E-02  0.1296640E+00
          2   -1    0    0  502    0 -0.00000000000E+00  0.00000000000E+00  0.37434641554E+03  0.37434641554E+03  0.00000000000E+00 0. -1.
         21   -1    0    0  501  502  0.00000000000E+00 -0.00000000000E+00 -0.50677611998E+02  0.50677611998E+02  0.00000000000E+00 0.  1.
         23    2    1    2    0    0  0.37729520536E+02 -0.17424138139E+02  0.98074046773E+02  0.14014777179E+03  0.91081073650E+02 0.  0.
         24    2    1    2    0    0 -0.14213124730E+02 -0.39023303580E+02  0.59909493667E+02  0.10826668365E+03  0.80048086921E+02 0.  0.
        -11    1    4    4    0    0  0.11579715074E+01 -0.31723129831E+02 -0.12326477660E+02  0.34053486103E+02  0.00000000000E+00 0.  1.
         12    1    4    4    0    0 -0.15371096238E+02 -0.73001737496E+01  0.72235971327E+02  0.74213197545E+02  0.00000000000E+00 0. -1.
        -11    1    3    3    0    0 -0.24854194045E+02  0.13269253659E+02  0.15752653215E+02  0.32279252432E+02  0.00000000000E+00 0. -1.
         11    1    3    3    0    0  0.62583714581E+02 -0.30693391798E+02  0.82321393558E+02  0.10786851936E+03  0.00000000000E+00 0.  1.
          1    1    1    2  501    0 -0.23516395806E+02  0.56447441719E+02  0.16568526310E+03  0.17660957210E+03  0.00000000000E+00 0. -1.
<scales pt_clust_5="13000.00000" pt_clust_6="13000.00000" pt_clust_7="13000.00000" pt_clust_8="13000.00000" pt_clust_9="61.15013"></scales>
<clustering>
<clus scale="   61.150">  2  9  1 -1</clus>
<clus scale="   80.048">  5  6 -1 -1</clus>
<clus scale="   84.873">  2  5  1 -1</clus>
<clus scale="   91.081">  7  8 -1 -1</clus>
<clus scale="   61.150">  2  5  1 -1</clus>
</clustering>
</event>
<event>
 9    2  0.3764910E-005  0.9082069E+02  0.7546771E-02  0.1305677E+00
         21   -1    0    0  501  502  0.00000000000E+00  0.00000000000E+00  0.27632799344E+03  0.27632799344E+03  0.00000000000E+00 0.  1.
         -1   -1    0    0    0  501 -0.00000000000E+00 -0.00000000000E+00 -0.48105006862E+02  0.48105006862E+02  0.00000000000E+00 0.  1.
         23    2    1    2    0    0 -0.22871185763E+02  0.84319799000E+01  0.79014309647E+02  0.12176019125E+03  0.89376135628E+02 0.  0.
         24    2    1    2    0    0 -0.23115978600E+02 -0.24410819935E+02  0.90396967347E+02  0.12632518434E+03  0.81585561819E+02 0.  0.
        -13    1    4    4    0    0 -0.46396509148E+00 -0.51791765577E+02  0.44543967580E+02  0.68313741611E+02  0.00000000000E+00 0.  1.
         14    1    4    4    0    0 -0.22652013508E+02  0.27380945642E+02  0.45852999767E+02  0.58011442732E+02  0.00000000000E+00 0. -1.
        -13    1    3    3    0    0 -0.40279203299E+02  0.36211551074E+02  0.68511384106E+02  0.87335562067E+02  0.00000000000E+00 0.  1.
         13    1    3    3    0    0  0.17408017536E+02 -0.27779571174E+02  0.10502925541E+02  0.34424629178E+02  0.00000000000E+00 0. -1.
         -2    1    1    2    0  502  0.45987164362E+02  0.15978840035E+02  0.58811709580E+02  0.76347624708E+02  0.00000000000E+00 0.  1.
<scales pt_clust_5="13000.00000" pt_clust_6="13000.00000" pt_clust_7="13000.00000" pt_clust_8="13000.00000" pt_clust_9="48.68411"></scales>
<clustering>
<clus scale="   48.684">  1  9  2 -1</clus>
<clus scale="   81.586">  5  6 -1 -1</clus>
<clus scale="   83.166">  1  5  2 -1</clus>
<clus scale="   89.376">  7  8 -1 -1</clus>
<clus scale="   48.684">  1  5  2 -1</clus>
</clustering>
</event>
<event>
 9    2  0.3764910E-005  0.1025982E+03  0.7546771E-02  0.1279873E+00
          4   -1    0    0  502    0 -0.00000000000E+00  0.00000000000E+00  0.27917208474E+03  0.27917208474E+03  0.00000000000E+00 0. -1.
         21   -1    0    0  501  502  0.00000000000E+00 -0.00000000000E+00 -0.10697891234E+03  0.10697891234E+03  0.00000000000E+00 0.  1.
         24    2    1    2    0    0 -0.58543224771E+02  0.18309073287E+02  0.18533175172E+03  0.21084145960E+03  0.79647545850E+02 0.  0.
         23    2    1    2    0    0  0.10107740916E+01 -0.33612797306E+02  0.30956329893E+02  0.10122480310E+03  0.90317908494E+02 0.  0.
        -11    1    3    3    0    0 -0.72366593925E+02 -0.52527616308E+01  0.14482734917E+03  0.16198603794E+03  0.00000000000E+00 0.  1.
         12    1    3    3    0    0  0.13823369154E+02  0.23561834917E+02  0.40504402556E+02  0.48855421663E+02  0.00000000000E+00 0. -1.
        -11    1    4    4    0    0 -0.42835427159E+02 -0.30102773223E+02  0.18153365722E+02  0.55412953924E+02  0.00000000000E+00 0.  1.
         11    1    4    4    0    0  0.43846201250E+02 -0.35100240836E+01  0.12802964170E+02  0.45811849173E+02  0.00000000000E+00 0. -1.
          3    1    1    2  501    0  0.57532450679E+02  0.15303724019E+02 -0.44094909216E+02  0.74084734384E+02  0.00000000000E+00 0. -1.
<scales pt_clust_5="13000.00000" pt_clust_6="13000.00000" pt_clust_7="13000.00000" pt_clust_8="13000.00000" pt_clust_9="59.53307"></scales>
<clustering>
<clus scale="   59.533">  2  9  1 -1</clus>
<clus scale="   79.648">  5  6 -1 -1</clus>
<clus scale="   90.318">  7  8 -1 -1</clus>
<clus scale="   93.342">  1  5  2 -1</clus>
<clus scale="   59.533">  2  5  1 -1</clus>
</clustering>
</event>
<event>
 9    2  0.3764910E-005  0.9509934E+02  0.7546771E-02  0.1293023E+00
         21   -1    0    0  501  502  0.00000000000E+00  0.00000000000E+00  0.53726427288E+02  0.53726427288E+02  0.00000000000E+00 0. -1.
         -1   -1    0    0    0  501 -0.00000000000E+00 -0.00000000000E+00 -0.71125968536E+03  0.71125968536E+03  0.00000000000E+00 0.  1.
         24    2    1    2    0    0 -0.34746711740E+02  0.24260389193E+02 -0.62888922015E+03  0.63549198390E+03  0.80947575172E+02 0.  0.
         23    2    1    2    0    0  0.51948222601E+02 -0.50109259487E+01 -0.17039641877E+02  0.10119049261E+03  0.85002583423E+02 0.  0.
        -11    1    3    3    0    0  0.20242153069E+02  0.28773727225E+02 -0.20031133744E+03  0.20337724564E+03  0.00000000000E+00 0.  1.
         12    1    3    3    0    0 -0.54988864809E+02 -0.45133380319E+01 -0.42857788271E+03  0.43211473826E+03  0.00000000000E+00 0. -1.
        -13    1    4    4    0    0  0.41978846706E+02  0.34421476704E+02 -0.24965528189E+02  0.59752315663E+02  0.00000000000E+00 0.  1.
         13    1    4    4    0    0  0.99693758942E+01 -0.39432402653E+02  0.79258863124E+01  0.41438176945E+02  0.00000000000E+00 0. -1.
         -2    1    1    2    0  502 -0.17201510861E+02 -0.19249463244E+02 -0.11604396050E+02  0.28303636140E+02  0.00000000000E+00 0.  1.
<scales pt_clust_5="13000.00000" pt_clust_6="13000.00000" pt_clust_7="13000.00000" pt_clust_8="13000.00000" pt_clust_9="25.81538"></scales>
<clustering>
<clus scale="   25.815">  1  9  2 -1</clus>
<clus scale="   80.948">  5  6 -1 -1</clus>
<clus scale="   85.003">  7  8 -1 -1</clus>
<clus scale="   91.493">  2  5  1 -1</clus>
<clus scale="   25.815">  1  5  2 -1</clus>
</clustering>
</event>
<event>
 9    2  0.3764910E-005  0.5955712E+03  0.7546771E-02  0.9914637E-01
         21   -1    0    0  501  502  0.00000000000E+00  0.00000000000E+00  0.38150908887E+03  0.38150908887E+03  0.00000000000E+00 0.  1.
         -1   -1    0    0    0  501 -0.00000000000E+00 -0.00000000000E+00 -0.11484098922E+04  0.11484098922E+04  0.00000000000E+00 0.  1.
         24    2    1    2    0    0  0.33227709229E+02  0.34523480398E+03 -0.54721030517E+03  0.65263916452E+03  0.78788390273E+02 0.  0.
         23    2    1    2    0    0  0.25526201943E+02  0.21149892901E+03 -0.21854041389E+03  0.31745324143E+03  0.87368552873E+02 0.  0.
        -11    1    3    3    0    0 -0.18485849424E+02  0.21088895781E+03 -0.32854105553E+03  0.39083897493E+03  0.00000000000E+00 0.  1.
         12    1    3    3    0    0  0.51713558653E+02  0.13434584617E+03 -0.21866924964E+03  0.26180018959E+03  0.00000000000E+00 0. -1.
        -11    1    4    4    0    0 -0.31254578959E+01  0.12740128888E+03 -0.72799787876E+02  0.14676738742E+03  0.00000000000E+00 0. -1.
         11    1    4    4    0    0  0.28651659839E+02  0.84097640130E+02 -0.14574062601E+03  0.17068585401E+03  0.00000000000E+00 0.  1.
         -2    1    1    2    0  502 -0.58753911172E+02 -0.55673373299E+03 -0.11500842766E+01  0.55982657513E+03  0.00000000000E+00 0.  1.
<scales pt_clust_5="13000.00000" pt_clust_6="13000.00000" pt_clust_7="13000.00000" pt_clust_8="13000.00000" pt_clust_9="559.82539"></scales>
<clustering>
<clus scale="   78.788">  5  6 -1 -1</clus>
<clus scale="   87.369">  7  8 -1 -1</clus>
<clus scale="  117.036">  5  7 -1 -1</clus>
<clus scale="  559.825">  1  9  2 -1</clus>
<clus scale="  559.825">  1  5  2 -1</clus>
</clustering>
</event>
<event>
 9    2  0.3764910E-005  0.9127788E+02  0.7546771E-02  0.1307830E+00
         -1   -1    0    0    0  501 -0.00000000000E+00  0.00000000000E+00  0.14945494599E+03  0.14945494599E+03  0.00000000000E+00 0.  1.
         21   -1    0    0  501  502  0.00000000000E+00 -0.00000000000E+00 -0.33314355310E+03  0.33314355310E+03  0.00000000000E+00 0. -1.
         23    2    1    2    0    0  0.10273837372E+02 -0.31369309641E+01  0.11944714846E+03  0.15014236457E+03  0.90331147969E+02 0.  0.
         24    2    1    2    0    0 -0.36490058183E+02 -0.62761060253E+01 -0.12257846703E+03  0.14976286713E+03  0.77669311431E+02 0.  0.
        -13    1    4    4    0    0 -0.18320809038E+02  0.35761346246E+02 -0.60221345487E+02  0.72395693114E+02  0.00000000000E+00 0.  1.
         14    1    4    4    0    0 -0.18169249145E+02 -0.42037452271E+02 -0.62357121541E+02  0.77367174014E+02  0.00000000000E+00 0. -1.
        -13    1    3    3    0    0 -0.18984057623E+02 -0.31346080353E+02  0.17941847864E+02  0.40802954576E+02  0.00000000000E+00 0. -1.
         13    1    3    3    0    0  0.29257894994E+02  0.28209149389E+02  0.10150530060E+03  0.10933941000E+03  0.00000000000E+00 0.  1.
         -2    1    1    2    0  502  0.26216220811E+02  0.94130369894E+01 -0.18055728855E+03  0.18269326738E+03  0.00000000000E+00 0.  1.
<scales pt_clust_5="13000.00000" pt_clust_6="13000.00000" pt_clust_7="13000.00000" pt_clust_8="13000.00000" pt_clust_9="27.85490"></scales>
<clustering>
<clus scale="   27.855">  2  9  1 -1</clus>
<clus scale="   77.669">  5  6 -1 -1</clus>
<clus scale="   78.768">  2  5  1 -1</clus>
<clus scale="   90.331">  7  8 -1 -1</clus>
<clus scale="   27.855">  2  5  1 -1</clus>
</clustering>
</event>
<event>
 9    2  0.3764910E-005  0.1123927E+03  0.7546771E-02  0.1262156E+00
          2   -1    0    0  502    0 -0.00000000000E+00  0.00000000000E+00  0.37860252600E+03  0.37860252600E+03  0.00000000000E+00 0. -1.
         21   -1    0    0  501  502  0.00000000000E+00 -0.00000000000E+00 -0.42937947106E+02  0.42937947106E+02  0.00000000000E+00 0.  1.
         23    2    1    2    0    0  0.59754427336E+02 -0.35413785331E+02  0.22286464299E+03  0.25226036031E+03  0.95613349019E+02 0.  0.
         24    2    1    2    0    0 -0.36090831847E+02  0.30789323204E+02  0.11090196671E+03  0.14509429695E+03  0.80638565333E+02 0.  0.
        -11    1    4    4    0    0 -0.60547679030E+02  0.30972838021E+02  0.90738564181E+02  0.11339675992E+03  0.00000000000E+00 0.  1.
         12    1    4    4    0    0  0.24456847183E+02 -0.18351481714E+00  0.20163402530E+02  0.31697537024E+02  0.00000000000E+00 0. -1.
        -11    1    3    3    0    0  0.19325238068E+02 -0.42749594937E+02  0.31439763851E+02  0.56475228594E+02  0.00000000000E+00 0. -1.
         11    1    3    3    0    0  0.40429189268E+02  0.73358096067E+01  0.19142487914E+03  0.19578513172E+03  0.00000000000E+00 0.  1.
          1    1    1    2  501    0 -0.23663595489E+02  0.46244621270E+01  0.18979691942E+01  0.24185815853E+02  0.00000000000E+00 0. -1.
<scales pt_clust_5="13000.00000" pt_clust_6="13000.00000" pt_clust_7="13000.00000" pt_clust_8="13000.00000" pt_clust_9="24.11123"></scales>
<clustering>
<clus scale="   24.111">  2  9  1 -1</clus>
<clus scale="   80.639">  5  6 -1 -1</clus>
<clus scale="   95.613">  7  8 -1 -1</clus>
<clus scale="   99.964">  2  5  1 -1</clus>
<clus scale="   24.111">  2  5  1 -1</clus>
</clustering>
</event>
<event>
 9    2  0.3764910E-005  0.9288290E+02  0.7546771E-02  0.1302879E+00
         21   -1    0    0  501  502  0.00000000000E+00  0.00000000000E+00  0.91719275451E+02  0.91719275451E+02  0.00000000000E+00 0.  1.
          2   -1    0    0  502    0 -0.00000000000E+00 -0.00000000000E+00 -0.22415551968E+03  0.22415551968E+03  0.00000000000E+00 0. -1.
         23    2    1    2    0    0  0.11185731910E+02  0.77252202985E+01 -0.17280202433E+03  0.19605010730E+03  0.91598609884E+02 0.  0.
         24    2    1    2    0    0 -0.32036570269E+02  0.76278346976E+01  0.32818168897E+02  0.92853588618E+02  0.80375562286E+02 0.  0.
        -13    1    4    4    0    0 -0.58451956038E+02  0.39266493689E-01  0.15884382975E+02  0.60571827850E+02  0.00000000000E+00 0.  1.
         14    1    4    4    0    0  0.26415385769E+02  0.75885682039E+01  0.16933785921E+02  0.32281760769E+02  0.00000000000E+00 0. -1.
        -13    1    3    3    0    0  0.49446688836E+02 -0.93239314583E+01 -0.85213696635E+02  0.98961026818E+02  0.00000000000E+00 0. -1.
         13    1    3    3    0    0 -0.38260956925E+02  0.17049151757E+02 -0.87588327692E+02  0.97089080479E+02  0.00000000000E+00 0.  1.
          1    1    1    2  501    0  0.20850838359E+02 -0.15353054996E+02  0.75476112018E+01  0.26971099215E+02  0.00000000000E+00 0. -1.
<scales pt_clust_5="13000.00000" pt_clust_6="13000.00000" pt_clust_7="13000.00000" pt_clust_8="13000.00000" pt_clust_9="25.89351"></scales>
<clustering>
<clus scale="   25.894">  1  9  2 -1</clus>
<clus scale="   80.376">  5  6 -1 -1</clus>
<clus scale="   81.836">  1  5  2 -1</clus>
<clus scale="   91.599">  7  8 -1 -1</clus>
<clus scale="   25.894">  1  5  2 -1</clus>
</clustering>
</event>
<event>
 9    2  0.3764910E-005  0.9551690E+02  0.7546771E-02  0.1298578E+00
          2   -1    0    0  502    0 -0.00000000000E+00  0.00000000000E+00  0.43004336673E+03  0.43004336673E+03  0.00000000000E+00 0. -1.
         21   -1    0    0  501  502  0.00000000000E+00 -0.00000000000E+00 -0.60829408320E+02  0.60829408320E+02  0.00000000000E+00 0.  1.
         23    2    1    2    0    0 -0.11017864727E+02  0.20042859308E+02  0.33542240236E+03  0.34845565921E+03  0.91597209985E+02 0.  0.
         24    2    1    2    0    0 -0.16696792506E+01 -0.48239709955E+02  0.53904881714E+02  0.10553104764E+03  0.76819322421E+02 0.  0.
        -11    1    4    4    0    0  0.20351267038E+02 -0.55162350501E+02  0.15637688092E+02  0.60840745161E+02  0.00000000000E+00 0.  1.
         12    1    4    4    0    0 -0.22020946289E+02  0.69226405459E+01  0.38267193623E+02  0.44690302475E+02  0.00000000000E+00 0. -1.
        -11    1    3    3    0    0 -0.95546634039E+01 -0.36535900920E+02  0.13967407074E+03  0.14468935582E+03  0.00000000000E+00 0.  1.
         11    1    3    3    0    0 -0.14632013230E+01  0.56578760228E+02  0.19574833162E+03  0.20376630339E+03  0.00000000000E+00 0. -1.
          1    1    1    2  501    0  0.12687543977E+02  0.28196850647E+02 -0.20113325662E+02  0.36886068208E+02  0.00000000000E+00 0. -1.
<scales pt_clust_5="13000.00000" pt_clust_6="13000.00000" pt_clust_7="13000.00000" pt_clust_8="13000.00000" pt_clust_9="30.91983"></scales>
<clustering>
<clus scale="   30.920">  2  9  1 -1</clus>
<clus scale="   76.819">  5  6 -1 -1</clus>
<clus scale="   81.453">  2  5  1 -1</clus>
<clus scale="   91.597">  7  8 -1 -1</clus>
<clus scale="   30.920">  2  5  1 -1</clus>
</clustering>
</event>
<event>
 9    2  0.3764910E-005  0.1040194E+03  0.7546771E-02  0.1277759E+00
         -3   -1    0    0    0  501 -0.00000000000E+00  0.00000000000E+00  0.90601523518E+02  0.90601523518E+02  0.00000000000E+00 0.  1.
         21   -1    0    0  501  502  0.00000000000E+00 -0.00000000000E+00 -0.33098644094E+03  0.33098644094E+03  0.00000000000E+00 0. -1.
         23    2    1    2    0    0 -0.83491398369E+01 -0.27957687655E+02 -0.12859235327E+02  0.97264765664E+02  0.91889794163E+02 0.  0.
         24    2    1    2    0    0  0.10638777941E+02  0.11594292682E+03 -0.16095529539E+03  0.21396803970E+03  0.79496974912E+02 0.  0.
        -11    1    4    4    0    0  0.32271779878E+02  0.11872170896E+02 -0.33520413634E+02  0.48021186455E+02  0.00000000000E+00 0.  1.
         12    1    4    4    0    0 -0.21633001938E+02  0.10407075593E+03 -0.12743488176E+03  0.16594685324E+03  0.00000000000E+00 0. -1.
        -13    1    3    3    0    0 -0.23168053563E+02  0.28059813807E+02 -0.14811790895E+02  0.39287415368E+02  0.00000000000E+00 0.  1.
         13    1    3    3    0    0  0.14818913726E+02 -0.56017501462E+02  0.19525555676E+01  0.57977350296E+02  0.00000000000E+00 0. -1.
         -4    1    1    2    0  502 -0.22896381037E+01 -0.87985239168E+02 -0.66570386703E+02  0.11035515910E+03  0.00000000000E+00 0.  1.
<scales pt_clust_5="13000.00000" pt_clust_6="13000.00000" pt_clust_7="13000.00000" pt_clust_8="13000.00000" pt_clust_9="88.01503"></scales>
<clustering>
<clus scale="   79.497">  5  6 -1 -1</clus>
<clus scale="   88.015">  2  9  1 -1</clus>
<clus scale="   91.890">  7  8 -1 -1</clus>
<clus scale="   93.253">  2  5  1 -1</clus>
<clus scale="   88.015">  2  5  1 -1</clus>
</clustering>
</event>
<event>
 9    2  0.3764910E-005  0.1342103E+03  0.7546771E-02  0.1223414E+00
          2   -1    0    0  502    0 -0.00000000000E+00  0.00000000000E+00  0.90438608169E+03  0.90438608169E+03  0.00000000000E+00 0. -1.
         21   -1    0    0  501  502  0.00000000000E+00 -0.00000000000E+00 -0.29879377117E+02  0.29879377117E+02  0.00000000000E+00 0.  1.
         23    2    1    2    0    0  0.14214950131E+02  0.91057672719E+02  0.47933667753E+03  0.49657677181E+03  0.91275819949E+02 0.  0.
         24    2    1    2    0    0  0.12123187349E+02 -0.11420765020E+03  0.24004917645E+03  0.27865379387E+03  0.82667833457E+02 0.  0.
        -13    1    4    4    0    0  0.12208526319E+02 -0.12479215799E+03  0.23614892583E+03  0.26737323348E+03  0.00000000000E+00 0.  1.
         14    1    4    4    0    0 -0.85338970145E-01  0.10584507788E+02  0.39002506202E+01  0.11280560392E+02  0.00000000000E+00 0. -1.
        -13    1    3    3    0    0 -0.24720959374E+02  0.53452333262E+01  0.40445928578E+02  0.47702940059E+02  0.00000000000E+00 0.  1.
         13    1    3    3    0    0  0.38935909505E+02  0.85712439393E+02  0.43889074895E+03  0.44887383175E+03  0.00000000000E+00 0. -1.
          1    1    1    2  501    0 -0.26338137480E+02  0.23149977481E+02  0.15512085059E+03  0.15903489313E+03  0.00000000000E+00 0. -1.
<scales pt_clust_5="13000.00000" pt_clust_6="13000.00000" pt_clust_7="13000.00000" pt_clust_8="13000.00000" pt_clust_9="35.06594"></scales>
<clustering>
<clus scale="   35.066">  2  9  1 -1</clus>
<clus scale="   82.668">  5  6 -1 -1</clus>
<clus scale="   91.276">  7  8 -1 -1</clus>
<clus scale="  128.511">  2  5  1 -1</clus>
<clus scale="   35.066">  2  5  1 -1</clus>
</clustering>
</event>
<event>
 9    2  0.3764910E-005  0.1025560E+03  0.7546771E-02  0.1282338E+00
         -3   -1    0    0    0  501 -0.00000000000E+00  0.00000000000E+00  0.38375712175E+03  0.38375712175E+03  0.00000000000E+00 0.  1.
         21   -1    0    0  501  502  0.00000000000E+00 -0.00000000000E+00 -0.66591418457E+02  0.66591418457E+02  0.00000000000E+00 0. -1.
         23    2    1    2    0    0  0.14915555818E+02 -0.48161764660E+02  0.31381584442E+03  0.33105622769E+03  0.92605681832E+02 0.  0.
         24    2    1    2    0    0 -0.16727989166E+02  0.16085569424E+02  0.19626357041E+02  0.83277154479E+02  0.77532698923E+02 0.  0.
        -11    1    4    4    0    0 -0.28774874957E+02 -0.79677335722E+01  0.39726526208E+02  0.49695825696E+02  0.00000000000E+00 0.  1.
         12    1    4    4    0    0  0.12046885791E+02  0.24053302996E+02 -0.20100169167E+02  0.33581328783E+02  0.00000000000E+00 0. -1.
        -11    1    3    3    0    0 -0.20773820450E+02 -0.60094178090E+02  0.23894725644E+03  0.24726231662E+03  0.00000000000E+00 0.  1.
         11    1    3    3    0    0  0.35689376268E+02  0.11932413430E+02  0.74868587971E+02  0.83793911076E+02  0.00000000000E+00 0. -1.
         -4    1    1    2    0  502  0.18124333478E+01  0.32076195236E+02 -0.16276498167E+02  0.36015158031E+02  0.00000000000E+00 0.  1.
<scales pt_clust_5="13000.00000" pt_clust_6="13000.00000" pt_clust_7="13000.00000" pt_clust_8="13000.00000" pt_clust_9="32.12736"></scales>
<clustering>
<clus scale="   32.127">  2  9  1 -1</clus>
<clus scale="   77.533">  5  6 -1 -1</clus>
<clus scale="   89.181">  2  5  1 -1</clus>
<clus scale="   92.606">  7  8 -1 -1</clus>
<clus scale="   32.127">  2  5  1 -1</clus>
</clustering>
</event>
<event>
 9    2  0.3764910E-005  0.1485243E+03  0.7546771E-02  0.1218349E+00
          4   -1    0    0  502    0 -0.00000000000E+00  0.00000000000E+00  0.17881241220E+03  0.17881241220E+03  0.00000000000E+00 0. -1.
         21   -1    0    0  501  502  0.00000000000E+00 -0.00000000000E+00 -0.46287001372E+03  0.46287001372E+03  0.00000000000E+00 0.  1.
         23    2    1    2    0    0  0.48746562764E+02 -0.25889147735E+02 -0.88032877348E+01  0.10580976394E+03  0.89842823405E+02 0.  0.
         24    2    1    2    0    0 -0.22532532481E+02 -0.12219897571E+03 -0.34137659471E+03  0.37158808048E+03  0.78098767305E+02 0.  0.
        -11    1    4    4    0    0 -0.13054135986E+02 -0.12501915109E+03 -0.33880367866E+03  0.36136979852E+03  0.00000000000E+00 0.  1.
         12    1    4    4    0    0 -0.94783964949E+01  0.28201753796E+01 -0.25729160483E+01  0.10218281963E+02  0.00000000000E+00 0. -1.
        -11    1    3    3    0    0 -0.50469863669E+01 -0.33088436192E+02 -0.32440893785E+02  0.46612533407E+02  0.00000000000E+00 0. -1.
         11    1    3    3    0    0  0.53793549131E+02  0.71992884578E+01  0.23637606051E+02  0.59197230528E+02  0.00000000000E+00 0.  1.
          3    1    1    2  501    0 -0.26214030282E+02  0.14808812344E+03  0.66122280920E+02  0.16428458151E+03  0.00000000000E+00 0. -1.
<scales pt_clust_5="13000.00000" pt_clust_6="13000.00000" pt_clust_7="13000.00000" pt_clust_8="13000.00000" pt_clust_9="126.33319"></scales>
<clustering>
<clus scale="   78.099">  5  6 -1 -1</clus>
<clus scale="   89.843">  7  8 -1 -1</clus>
<clus scale="  105.443">  1  7  2 -1</clus>
<clus scale="  126.333">  2  9  1 -1</clus>
<clus scale="  126.333">  2  5  1 -1</clus>
</clustering>
</event>
<event>
 9    2  0.3764910E-005  0.9718242E+02  0.7546771E-02  0.1292835E+00
         -1   -1    0    0    0  501 -0.00000000000E+00  0.00000000000E+00  0.22354586190E+03  0.22354586190E+03  0.00000000000E+00 0.  1.
         21   -1    0    0  501  502  0.00000000000E+00 -0.00000000000E+00 -0.70683013097E+02  0.70683013097E+02  0.00000000000E+00 0.  1.
         24    2    1    2    0    0  0.13987257923E+02  0.29379925162E+02  0.10077438481E+03  0.13379706930E+03  0.81776254079E+02 0.  0.
         23    2    1    2    0    0  0.33300356447E+02 -0.21360873046E+02  0.48147226908E+02  0.11230741459E+03  0.93432324583E+02 0.  0.
        -11    1    3    3    0    0  0.75335473387E+01  0.33035427327E+02  0.11383857332E+03  0.11877421678E+03  0.00000000000E+00 0.  1.
         12    1    3    3    0    0  0.64537105844E+01 -0.36555021650E+01 -0.13064188512E+02  0.15022852521E+02  0.00000000000E+00 0. -1.
        -13    1    4    4    0    0 -0.13121809676E+02 -0.19488077648E+02 -0.19301553072E+02  0.30405871318E+02  0.00000000000E+00 0.  1.
         13    1    4    4    0    0  0.46422166123E+02 -0.18727953979E+01  0.67448779980E+02  0.81901543276E+02  0.00000000000E+00 0. -1.
         -2    1    1    2    0  502 -0.47287614370E+02 -0.80190521167E+01  0.39412370823E+01  0.48124391107E+02  0.00000000000E+00 0.  1.
<scales pt_clust_5="13000.00000" pt_clust_6="13000.00000" pt_clust_7="13000.00000" pt_clust_8="13000.00000" pt_clust_9="47.96273"></scales>
<clustering>
<clus scale="   47.963">  2  9  1 -1</clus>
<clus scale="   81.776">  5  6 -1 -1</clus>
<clus scale="   86.036">  1  5  2 -1</clus>
<clus scale="   93.432">  7  8 -1 -1</clus>
<clus scale="   47.963">  2  5  1 -1</clus>
</clustering>
</event>
<event>
 9    2  0.3764910E-005  0.2617124E+03  0.7546771E-02  0.1106119E+00
         21   -1    0    0  501  502  0.00000000000E+00  0.00000000000E+00  0.67837711203E+02  0.67837711203E+02  0.00000000000E+00 0.  1.
         -1   -1    0    0    0  501 -0.00000000000E+00 -0.00000000000E+00 -0.10329937090E+04  0.10329937090E+04  0.00000000000E+00 0.  1.
         24    2    1    2    0    0  0.93979167598E+02  0.58888156110E+02 -0.35605481406E+03  0.38145425989E+03  0.80202387109E+02 0.  0.
         23    2    1    2    0    0  0.52475201128E+02  0.57030773620E+02 -0.47393993406E+03  0.48882425140E+03  0.91235583985E+02 0.  0.
        -11    1    3    3    0    0  0.48776407774E+02  0.67461853131E+02 -0.16342982380E+03  0.18341086906E+03  0.00000000000E+00 0.  1.
         12    1    3    3    0    0  0.45202759824E+02 -0.85736970206E+01 -0.19262499026E+03  0.19804339082E+03  0.00000000000E+00 0. -1.
        -13    1    4    4    0    0  0.17368263836E+02  0.69066168377E+02 -0.39775895584E+03  0.40408412386E+03  0.00000000000E+00 0.  1.
         13    1    4    4    0    0  0.35106937293E+02 -0.12035394757E+02 -0.76180978222E+02  0.84740127542E+02  0.00000000000E+00 0. -1.
         -2    1    1    2    0  502 -0.14645436873E+03 -0.11591892973E+03 -0.13516124964E+03  0.23055290888E+03  0.00000000000E+00 0.  1.
<scales pt_clust_5="13000.00000" pt_clust_6="13000.00000" pt_clust_7="13000.00000" pt_clust_8="13000.00000" pt_clust_9="186.77816"></scales>
<clustering>
<clus scale="   80.202">  5  6 -1 -1</clus>
<clus scale="   91.236">  7  8 -1 -1</clus>
<clus scale="  105.971">  5  7 -1 -1</clus>
<clus scale="  186.778">  1  9  2 -1</clus>
<clus scale="  186.778">  1  5  2 -1</clus>
</clustering>
</event>
<event>
 9    2  0.3764910E-005  0.1025507E+03  0.7546771E-02  0.1277477E+00
          4   -1    0    0  502    0 -0.00000000000E+00  0.00000000000E+00  0.23411852374E+03  0.23411852374E+03  0.00000000000E+00 0. -1.
         21   -1    0    0  501  502  0.00000000000E+00 -0.00000000000E+00 -0.85352446629E+02  0.85352446629E+02  0.00000000000E+00 0. -1.
         24    2    1    2    0    0 -0.74963605770E+02  0.19337237151E+01  0.10058692385E+03  0.14899243030E+03  0.80360024637E+02 0.  0.
         23    2    1    2    0    0  0.17316309267E+02 -0.30599228757E+02  0.52259992949E+01  0.93084125483E+02  0.86030087651E+02 0.  0.
        -11    1    3    3    0    0 -0.20618622549E+02 -0.14777817996E+02 -0.78495227024E+01  0.26554218257E+02  0.00000000000E+00 0.  1.
         12    1    3    3    0    0 -0.54344983221E+02  0.16711541711E+02  0.10843644655E+03  0.12243821204E+03  0.00000000000E+00 0. -1.
        -13    1    4    4    0    0  0.14754049718E+02 -0.54713839770E+02  0.24860580881E+02  0.61881618654E+02  0.00000000000E+00 0. -1.
         13    1    4    4    0    0  0.25622595486E+01  0.24114611014E+02 -0.19634581586E+02  0.31202506829E+02  0.00000000000E+00 0.  1.
          3    1    1    2  501    0  0.57647296504E+02  0.28665505042E+02  0.42953153969E+02  0.77394414588E+02  0.00000000000E+00 0. -1.
<scales pt_clust_5="13000.00000" pt_clust_6="13000.00000" pt_clust_7="13000.00000" pt_clust_8="13000.00000" pt_clust_9="64.38110"></scales>
<clustering>
<clus scale="   64.381">  2  9  1 -1</clus>
<clus scale="   80.360">  5  6 -1 -1</clus>
<clus scale="   86.030">  7  8 -1 -1</clus>
<clus scale="   97.843">  1  5  2 -1</clus>
<clus scale="   64.381">  2  5  1 -1</clus>
</clustering>
</event>
<event>
 9    2  0.3764910E-005  0.9444033E+02  0.7546771E-02  0.1298502E+00
          2   -1    0    0  502    0 -0.00000000000E+00  0.00000000000E+00  0.21604928945E+03  0.21604928945E+03  0.00000000000E+00 0. -1.
         21   -1    0    0  501  502  0.00000000000E+00 -0.00000000000E+00 -0.16215338429E+03  0.16215338429E+03  0.00000000000E+00 0. -1.
         24    2    1    2    0    0 -0.20963153817E+01 -0.19097028009E+02  0.14957177237E+03  0.17117873073E+03  0.81002171245E+02 0.  0.
         23    2    1    2    0    0  0.21621908207E+02  0.40583759254E+02  0.47860806877E+01  0.10245085197E+03  0.91426047006E+02 0.  0.
        -11    1    3    3    0    0 -0.20808099007E+02  0.22218552170E+02  0.27762531709E+02  0.41199504993E+02  0.00000000000E+00 0.  1.
         12    1    3    3    0    0  0.18711783625E+02 -0.41315580179E+02  0.12180924066E+03  0.12997922573E+03  0.00000000000E+00 0. -1.
        -11    1    4    4    0    0  0.78718680711E+01 -0.29344328249E+02 -0.40006884701E+01  0.30644108986E+02  0.00000000000E+00 0. -1.
         11    1    4    4    0    0  0.13750040136E+02  0.69928087503E+02  0.87867691577E+01  0.71806742983E+02  0.00000000000E+00 0.  1.
          1    1    1    2  501    0 -0.19525592826E+02 -0.21486731245E+02 -0.10046194790E+03  0.10457309104E+03  0.00000000000E+00 0. -1.
<scales pt_clust_5="13000.00000" pt_clust_6="13000.00000" pt_clust_7="13000.00000" pt_clust_8="13000.00000" pt_clust_9="29.03323"></scales>
<clustering>
<clus scale="   29.033">  2  9  1 -1</clus>
<clus scale="   81.002">  5  6 -1 -1</clus>
<clus scale="   84.390">  1  5  2 -1</clus>
<clus scale="   91.426">  7  8 -1 -1</clus>
<clus scale="   29.033">  2  5  1 -1</clus>
</clustering>
</event>
<event>
 9    2  0.3764910E-005  0.1324850E+03  0.7546771E-02  0.1235553E+00
          2   -1    0    0  502    0 -0.00000000000E+00  0.00000000000E+00  0.11873723497E+04  0.11873723497E+04  0.00000000000E+00 0. -1.
         21   -1    0    0  501  502  0.00000000000E+00 -0.00000000000E+00 -0.27953194533E+02  0.27953194533E+02  0.00000000000E+00 0. -1.
         24    2    1    2    0    0  0.68517365414E+02 -0.17541153484E+02  0.62486234495E+03  0.63345045000E+03  0.76185307258E+02 0.  0.
         23    2    1    2    0    0  0.17248804096E+02 -0.50297324870E+02  0.34134501290E+03  0.35986452330E+03  0.10079045179E+03 0.  0.
        -13    1    3    3    0    0  0.36152485594E+02  0.11818634894E+02  0.10362943233E+03  0.11038904652E+03  0.00000000000E+00 0.  1.
         14    1    3    3    0    0  0.32364879820E+02 -0.29359788378E+02  0.52123291262E+03  0.52306140348E+03  0.00000000000E+00 0. -1.
        -13    1    4    4    0    0  0.55591002133E+02 -0.38098581336E+02  0.26650557386E+03  0.27489467495E+03  0.00000000000E+00 0. -1.
         13    1    4    4    0    0 -0.38342198037E+02 -0.12198743535E+02  0.74839439037E+02  0.84969848355E+02  0.00000000000E+00 0.  1.
          1    1    1    2  501    0 -0.85766169511E+02  0.67838478354E+02  0.19321179730E+03  0.22201057091E+03  0.00000000000E+00 0. -1.
<scales pt_clust_5="13000.00000" pt_clust_6="13000.00000" pt_clust_7="13000.00000" pt_clust_8="13000.00000" pt_clust_9="85.98575"></scales>
<clustering>
<clus scale="   76.185">  5  6 -1 -1</clus>
<clus scale="  100.790">  7  8 -1 -1</clus>
<clus scale="  103.954">  1  5  2 -1</clus>
<clus scale="   85.986">  2  9  1 -1</clus>
<clus scale="   85.986">  2  5  1 -1</clus>
</clustering>
</event>
<event>
 9    2  0.3764910E-005  0.1105680E+03  0.7546771E-02  0.1270912E+00
         -3   -1    0    0    0  501 -0.00000000000E+00  0.00000000000E+00  0.57282881566E+02  0.57282881566E+02  0.00000000000E+00 0.  1.
         21   -1    0    0  501  502  0.00000000000E+00 -0.00000000000E+00 -0.39184597834E+03  0.39184597834E+03  0.00000000000E+00 0.  1.
         24    2    1    2    0    0 -0.12548430352E+02  0.30695544897E+02 -0.29893729612E+02  0.92054940788E+02  0.80503400379E+02 0.  0.
         23    2    1    2    0    0 -0.37697290640E+02 -0.55705986920E+02 -0.16407603025E+03  0.20569148595E+03  0.10422955909E+03 0.  0.
        -11    1    3    3    0    0 -0.17564417162E+02  0.25528241826E+02  0.23052334107E+02  0.38621366997E+02  0.00000000000E+00 0.  1.
         12    1    3    3    0    0  0.50159868094E+01  0.51673030714E+01 -0.52946063719E+02  0.53433573790E+02  0.00000000000E+00 0. -1.
        -11    1    4    4    0    0  0.55635124116E+01 -0.30500598662E+02 -0.15071564823E+03  0.15387152372E+03  0.00000000000E+00 0. -1.
         11    1    4    4    0    0 -0.43260803052E+02 -0.25205388258E+02 -0.13360382016E+02  0.51819962230E+02  0.00000000000E+00 0.  1.
         -4    1    1    2    0  502  0.50245720992E+02  0.25010442022E+02 -0.14059333691E+03  0.15138243317E+03  0.00000000000E+00 0.  1.
<scales pt_clust_5="13000.00000" pt_clust_6="13000.00000" pt_clust_7="13000.00000" pt_clust_8="13000.00000" pt_clust_9="56.12624"></scales>
<clustering>
<clus scale="   56.126">  2  9  1 -1</clus>
<clus scale="   80.503">  5  6 -1 -1</clus>
<clus scale="   88.557">  1  5  2 -1</clus>
<clus scale="  104.230">  7  8 -1 -1</clus>
<clus scale="   56.126">  2  5  1 -1</clus>
</clustering>
</event>
<event>
 9    2  0.3764910E-005  0.9327056E+02  0.7546771E-02  0.1301404E+00
         21   -1    0    0  501  502  0.00000000000E+00  0.00000000000E+00  0.35456150777E+02  0.35456150777E+02  0.00000000000E+00 0. -1.
          2   -1    0    0  502    0 -0.00000000000E+00 -0.00000000000E+00 -0.50518378778E+03  0.50518378778E+03  0.00000000000E+00 0. -1.
         24    2    1    2    0    0 -0.25067377124E+01  0.41210429402E+02 -0.26225683075E+03  0.27738289630E+03  0.80361947821E+02 0.  0.
         23    2    1    2    0    0  0.12049675857E+02  0.11108004175E+02 -0.18242506595E+03  0.20447290096E+03  0.90893784691E+02 0.  0.
        -11    1    3    3    0    0  0.19749226655E+02 -0.15312059745E+02 -0.12205082238E+03  0.12458288153E+03  0.00000000000E+00 0.  1.
         12    1    3    3    0    0 -0.22255964367E+02  0.56522489147E+02 -0.14020600837E+03  0.15280001477E+03  0.00000000000E+00 0. -1.
        -13    1    4    4    0    0  0.11494840563E+02 -0.34155038978E+02 -0.34928942306E+02  0.50186941108E+02  0.00000000000E+00 0. -1.
         13    1    4    4    0    0  0.55483529396E+00  0.45263043153E+02 -0.14749612365E+03  0.15428595985E+03  0.00000000000E+00 0.  1.
          1    1    1    2  501    0 -0.95429381446E+01 -0.52318433577E+02 -0.25045740296E+02  0.58784141292E+02  0.00000000000E+00 0. -1.
<scales pt_clust_5="13000.00000" pt_clust_6="13000.00000" pt_clust_7="13000.00000" pt_clust_8="13000.00000" pt_clust_9="53.18163"></scales>
<clustering>
<clus scale="   53.182">  1  9  2 -1</clus>
<clus scale="   80.362">  5  6 -1 -1</clus>
<clus scale="   83.041">  2  5  1 -1</clus>
<clus scale="   90.894">  7  8 -1 -1</clus>
<clus scale="   53.182">  1  5  2 -1</clus>
</clustering>
</event>
<event>
 9    2  0.3764910E-005  0.1407533E+03  0.7546771E-02  0.1231234E+00
         21   -1    0    0  501  502  0.00000000000E+00  0.00000000000E+00  0.16070390725E+03  0.16070390725E+03  0.00000000000E+00 0. -1.
         -1   -1    0    0    0  501 -0.00000000000E+00 -0.00000000000E+00 -0.29288518738E+03  0.29288518738E+03  0.00000000000E+00 0.  1.
         24    2    1    2    0    0  0.39655084487E+02  0.32978737270E+02 -0.39220185547E+02  0.10252641887E+03  0.79456408011E+02 0.  0.
         23    2    1    2    0    0 -0.24560192894E+02  0.99190789349E+02  0.58945809764E+02  0.14914103970E+03  0.91249249141E+02 0.  0.
        -11    1    3    3    0    0 -0.22295015722E+02  0.29247515784E+01  0.14921185798E+01  0.22535490137E+02  0.00000000000E+00 0.  1.
         12    1    3    3    0    0  0.61950100210E+02  0.30053985692E+02 -0.40712304126E+02  0.79990928731E+02  0.00000000000E+00 0. -1.
        -11    1    4    4    0    0 -0.17615802970E+02  0.30319729046E+02 -0.22951745500E+02  0.41909248445E+02  0.00000000000E+00 0.  1.
         11    1    4    4    0    0 -0.69443899240E+01  0.68871060303E+02  0.81897555263E+02  0.10723179126E+03  0.00000000000E+00 0. -1.
         -2    1    1    2    0  502 -0.15094891593E+02 -0.13216952662E+03 -0.15190690435E+03  0.20192163606E+03  0.00000000000E+00 0.  1.
<scales pt_clust_5="13000.00000" pt_clust_6="13000.00000" pt_clust_7="13000.00000" pt_clust_8="13000.00000" pt_clust_9="107.16846"></scales>
<clustering>
<clus scale="   79.456">  5  6 -1 -1</clus>
<clus scale="   91.249">  7  8 -1 -1</clus>
<clus scale="   94.728">  2  5  1 -1</clus>
<clus scale="  107.168">  1  9  2 -1</clus>
<clus scale="  107.168">  1  5  2 -1</clus>
</clustering>
</event>
<event>
 9    2  0.3764910E-005  0.1074286E+03  0.7546771E-02  0.1269805E+00
          2   -1    0    0  502    0 -0.00000000000E+00  0.00000000000E+00  0.41293716650E+03  0.41293716650E+03  0.00000000000E+00 0. -1.
         21   -1    0    0  501  502  0.00000000000E+00 -0.00000000000E+00 -0.51248945358E+02  0.51248945358E+02  0.00000000000E+00 0.  1.
         24    2    1    2    0    0 -0.58223008160E+02  0.41839738612E+02  0.26057078142E+03  0.28215249428E+03  0.81070435369E+02 0.  0.
         23    2    1    2    0    0  0.24848959274E+02  0.35745900078E+01  0.60916297940E+02  0.11280630950E+03  0.91565384497E+02 0.  0.
        -13    1    3    3    0    0 -0.44661454679E+02  0.65096339442E+02  0.16585096190E+03  0.18368102925E+03  0.00000000000E+00 0.  1.
         14    1    3    3    0    0 -0.13561553481E+02 -0.23256600830E+02  0.94719819521E+02  0.98471465030E+02  0.00000000000E+00 0. -1.
        -11    1    4    4    0    0  0.50320199316E+02  0.81963822802E+01  0.68903826027E+02  0.85714878421E+02  0.00000000000E+00 0. -1.
         11    1    4    4    0    0 -0.25471240042E+02 -0.46217922724E+01 -0.79875280861E+01  0.27091431081E+02  0.00000000000E+00 0.  1.
          1    1    1    2  501    0  0.33374048886E+02 -0.45414328620E+02  0.40201141776E+02  0.69227308073E+02  0.00000000000E+00 0. -1.
<scales pt_clust_5="13000.00000" pt_clust_6="13000.00000" pt_clust_7="13000.00000" pt_clust_8="13000.00000" pt_clust_9="56.35857"></scales>
<clustering>
<clus scale="   56.359">  2  9  1 -1</clus>
<clus scale="   81.070">  5  6 -1 -1</clus>
<clus scale="   91.565">  7  8 -1 -1</clus>
<clus scale="   98.636">  1  5  2 -1</clus>
<clus scale="   56.359">  2  5  1 -1</clus>
</clustering>
</event>
<event>
 9    2  0.3764910E-005  0.1035494E+03  0.7546771E-02  0.1278584E+00
          4   -1    0    0  502    0 -0.00000000000E+00  0.00000000000E+00  0.36731665843E+03  0.36731665843E+03  0.00000000000E+00 0. -1.
         21   -1    0    0  501  502  0.00000000000E+00 -0.00000000000E+00 -0.14638888156E+03  0.14638888156E+03  0.00000000000E+00 0. -1.
         24    2    1    2    0    0  0.41928369845E+02 -0.37838132120E+00  0.26839215579E+03  0.28322061785E+03  0.80133873709E+02 0.  0.
         23    2    1    2    0    0 -0.93222459955E+02  0.51467989570E+02  0.52998588208E+01  0.14090090271E+03  0.92117288774E+02 0.  0.
        -11    1    3    3    0    0  0.10570728989E+02 -0.18412526589E+02  0.12198993849E+02  0.24486259365E+02  0.00000000000E+00 0.  1.
         12    1    3    3    0    0  0.31357640856E+02  0.18034145268E+02  0.25619316194E+03  0.25873435848E+03  0.00000000000E+00 0. -1.
        -13    1    4    4    0    0 -0.73732427231E+02 -0.10680929003E+02  0.11851935644E+02  0.75438859007E+02  0.00000000000E+00 0.  1.
         13    1    4    4    0    0 -0.19490032724E+02  0.62148918573E+02 -0.65520768228E+01  0.65462043705E+02  0.00000000000E+00 0. -1.
          3    1    1    2  501    0  0.51294090111E+02 -0.51089608249E+02 -0.52764237739E+02  0.89584019420E+02  0.00000000000E+00 0. -1.
<scales pt_clust_5="13000.00000" pt_clust_6="13000.00000" pt_clust_7="13000.00000" pt_clust_8="13000.00000" pt_clust_9="72.39635"></scales>
<clustering>
<clus scale="   72.396">  2  9  1 -1</clus>
<clus scale="   80.134">  5  6 -1 -1</clus>
<clus scale="   92.117">  7  8 -1 -1</clus>
<clus scale="   93.050">  1  5  2 -1</clus>
<clus scale="   72.396">  2  5  1 -1</clus>
</clustering>
</event>
<event>
 9    2  0.3764910E-005  0.9821910E+02  0.7546771E-02  0.1290242E+00
          2   -1    0    0  502    0 -0.00000000000E+00  0.00000000000E+00  0.41587174832E+03  0.41587174832E+03  0.00000000000E+00 0. -1.
         21   -1    0    0  501  502  0.00000000000E+00 -0.00000000000E+00 -0.19516000907E+03  0.19516000907E+03  0.00000000000E+00 0. -1.
         24    2    1    2    0    0  0.19561332198E+02 -0.29046925327E+02  0.36775861986E+03  0.37836727037E+03  0.81786424416E+02 0.  0.
         23    2    1    2    0    0  0.25954132261E+02 -0.37089025519E+01 -0.27526025482E+02  0.10064238063E+03  0.93187090101E+02 0.  0.
        -11    1    3    3    0    0  0.38230892975E+02 -0.38406070686E+02  0.14783281638E+03  0.15745211667E+03  0.00000000000E+00 0.  1.
         12    1    3    3    0    0 -0.18669560777E+02  0.93591453584E+01  0.21992580347E+03  0.22091515370E+03  0.00000000000E+00 0. -1.
        -13    1    4    4    0    0  0.20268767029E+02 -0.29072776233E+02 -0.53319358246E+02  0.64023458190E+02  0.00000000000E+00 0. -1.
         13    1    4    4    0    0  0.56853652326E+01  0.25363873681E+02  0.25793332764E+02  0.36618922445E+02  0.00000000000E+00 0.  1.
          1    1    1    2  501    0 -0.45515464460E+02  0.32755827879E+02 -0.11952085512E+03  0.13202210638E+03  0.00000000000E+00 0. -1.
<scales pt_clust_5="13000.00000" pt_clust_6="13000.00000" pt_clust_7="13000.00000" pt_clust_8="13000.00000" pt_clust_9="56.07675"></scales>
<clustering>
<clus scale="   56.077">  2  9  1 -1</clus>
<clus scale="   81.786">  5  6 -1 -1</clus>
<clus scale="   87.477">  1  5  2 -1</clus>
<clus scale="   93.187">  7  8 -1 -1</clus>
<clus scale="   56.077">  2  5  1 -1</clus>
</clustering>
</event>
<event>
 9    2  0.3764910E-005  0.9262931E+02  0.7546771E-02  0.1302836E+00
         -1   -1    0    0    0  501 -0.00000000000E+00  0.00000000000E+00  0.44998456803E+03  0.44998456803E+03  0.00000000000E+00 0.  1.
         21   -1    0    0  501  502  0.00000000000E+00 -0.00000000000E+00 -0.43649252951E+02  0.43649252951E+02  0.00000000000E+00 0.  1.
         24    2    1    2    0    0 -0.24368176628E+02 -0.75938746941E+01  0.13658224430E+03  0.16069963283E+03  0.80735293210E+02 0.  0.
         23    2    1    2    0    0 -0.14996774805E+02  0.21000956335E+02  0.45680891898E+02  0.10503576650E+03  0.90993543391E+02 0.  0.
        -13    1    3    3    0    0  0.19193293480E+02 -0.28265319796E+02  0.75570378667E+02  0.82934871735E+02  0.00000000000E+00 0.  1.
         14    1    3    3    0    0 -0.43561470109E+02  0.20671445102E+02  0.61011865629E+02  0.77764761095E+02  0.00000000000E+00 0. -1.
        -13    1    4    4    0    0  0.31804482895E+02  0.26899870268E+02  0.35792302931E+01  0.41808360912E+02  0.00000000000E+00 0. -1.
         13    1    4    4    0    0 -0.46801257700E+02 -0.58989139329E+01  0.42101661605E+02  0.63227405591E+02  0.00000000000E+00 0.  1.
         -2    1    1    2    0  502  0.39364951433E+02 -0.13407081641E+02  0.22407217888E+03  0.22789842164E+03  0.00000000000E+00 0.  1.
<scales pt_clust_5="13000.00000" pt_clust_6="13000.00000" pt_clust_7="13000.00000" pt_clust_8="13000.00000" pt_clust_9="41.58547"></scales>
<clustering>
<clus scale="   41.585">  2  9  1 -1</clus>
<clus scale="   80.735">  5  6 -1 -1</clus>
<clus scale="   82.575">  1  5  2 -1</clus>
<clus scale="   90.994">  7  8 -1 -1</clus>
<clus scale="   41.585">  2  5  1 -1</clus>
</clustering>
</event>
<event>
 9    2  0.3764910E-005  0.1348316E+03  0.7546771E-02  0.1222676E+00
         21   -1    0    0  501  502  0.00000000000E+00  0.00000000000E+00  0.23071053891E+03  0.23071053891E+03  0.00000000000E+00 0.  1.
         -1   -1    0    0    0  501 -0.00000000000E+00 -0.00000000000E+00 -0.22306031421E+03  0.22306031421E+03  0.00000000000E+00 0.  1.
         24    2    1    2    0    0  0.31337468246E+01 -0.10180682918E+03 -0.20719368431E+02  0.13132174595E+03  0.80259939535E+02 0.  0.
         23    2    1    2    0    0  0.83386218049E+02  0.90037963337E+02  0.12162350713E+03  0.19469738309E+03  0.89747965400E+02 0.  0.
        -11    1    3    3    0    0 -0.30164185117E+02 -0.75318672388E+02  0.55386478541E+01  0.81323164560E+02  0.00000000000E+00 0.  1.
         12    1    3    3    0    0  0.33297931941E+02 -0.26488156797E+02 -0.26258016285E+02  0.49998581393E+02  0.00000000000E+00 0. -1.
        -11    1    4    4    0    0  0.53389325978E+02  0.77816483085E+02  0.13056071860E+03  0.16109601612E+03  0.00000000000E+00 0.  1.
         11    1    4    4    0    0  0.29996892072E+02  0.12221480252E+02 -0.89372114696E+01  0.33601366972E+02  0.00000000000E+00 0. -1.
         -2    1    1    2    0  502 -0.86519964874E+02  0.11768865847E+02 -0.93253914010E+02  0.12775172407E+03  0.00000000000E+00 0.  1.
<scales pt_clust_5="13000.00000" pt_clust_6="13000.00000" pt_clust_7="13000.00000" pt_clust_8="13000.00000" pt_clust_9="87.31677"></scales>
<clustering>
<clus scale="   80.260">  5  6 -1 -1</clus>
<clus scale="   87.317">  1  9  2 -1</clus>
<clus scale="   89.748">  7  8 -1 -1</clus>
<clus scale="  128.711">  2  5  1 -1</clus>
<clus scale="   87.317">  1  5  2 -1</clus>
</clustering>
</event>
<event>
 9    2  0.3764910E-005  0.1017205E+03  0.7546771E-02  0.1280339E+00
         -1   -1    0    0    0  501 -0.00000000000E+00  0.00000000000E+00  0.49813078811E+03  0.49813078811E+03  0.00000000000E+00 0.  1.
         21   -1    0    0  501  502  0.00000000000E+00 -0.00000000000E+00 -0.53390996596E+02  0.53390996596E+02  0.00000000000E+00 0.  1.
         23    2    1    2    0    0  0.32266065653E+02 -0.54378508335E+02  0.33523775276E+03  0.35239578358E+03  0.88319399033E+02 0.  0.
         24    2    1    2    0    0 -0.16315918978E+02  0.26971331186E+02  0.13374664547E+03  0.15920906872E+03  0.80409579477E+02 0.  0.
        -11    1    4    4    0    0  0.23405358166E+02 -0.15535409686E+02  0.40046507088E+02  0.48917097982E+02  0.00000000000E+00 0.  1.
         12    1    4    4    0    0 -0.39721277144E+02  0.42506740872E+02  0.93700138379E+02  0.11029197074E+03  0.00000000000E+00 0. -1.
        -11    1    3    3    0    0  0.39239267324E+01 -0.73886488983E+02  0.21806741365E+03  0.23027810871E+03  0.00000000000E+00 0.  1.
         11    1    3    3    0    0  0.28342138920E+02  0.19507980648E+02  0.11717033911E+03  0.12211767487E+03  0.00000000000E+00 0. -1.
         -2    1    1    2    0  502 -0.15950146675E+02  0.27407177148E+02 -0.24244606713E+02  0.39916932408E+02  0.00000000000E+00 0.  1.
<scales pt_clust_5="13000.00000" pt_clust_6="13000.00000" pt_clust_7="13000.00000" pt_clust_8="13000.00000" pt_clust_9="31.71057"></scales>
<clustering>
<clus scale="   31.711">  2  9  1 -1</clus>
<clus scale="   80.410">  5  6 -1 -1</clus>
<clus scale="   88.319">  7  8 -1 -1</clus>
<clus scale="   94.934">  2  5  1 -1</clus>
<clus scale="   31.711">  2  5  1 -1</clus>
</clustering>
</event>
<event>
 9    2  0.3764910E-005  0.1152079E+03  0.7546771E-02  0.1255949E+00
         21   -1    0    0  501  502  0.00000000000E+00  0.00000000000E+00  0.34111800535E+02  0.34111800535E+02  0.00000000000E+00 0.  1.
          2   -1    0    0  502    0 -0.00000000000E+00 -0.00000000000E+00 -0.73418888775E+03  0.73418888775E+03  0.00000000000E+00 0. -1.
         24    2    1    2    0    0  0.67648031102E+02  0.38760327688E+02 -0.48289662836E+03  0.49530590038E+03  0.77847043336E+02 0.  0.
         23    2    1    2    0    0 -0.57141304222E+02 -0.73752504185E+01 -0.21407441595E+03  0.23975231677E+03  0.91289620789E+02 0.  0.
        -13    1    3    3    0    0  0.55570057411E+02 -0.12478198576E+02 -0.22549787291E+03  0.23257907775E+03  0.00000000000E+00 0.  1.
         14    1    3    3    0    0  0.12077973691E+02  0.51238526264E+02 -0.25739875545E+03  0.26272682263E+03  0.00000000000E+00 0. -1.
        -11    1    4    4    0    0  0.33702558548E+01  0.28358374435E+02 -0.24694727763E+02  0.37754279286E+02  0.00000000000E+00 0.  1.
         11    1    4    4    0    0 -0.60511560077E+02 -0.35733624854E+02 -0.18937968819E+03  0.20199803748E+03  0.00000000000E+00 0. -1.
          1    1    1    2  501    0 -0.10506726879E+02 -0.31385077269E+02 -0.31060429058E+01  0.33242471139E+02  0.00000000000E+00 0. -1.
<scales pt_clust_5="13000.00000" pt_clust_6="13000.00000" pt_clust_7="13000.00000" pt_clust_8="13000.00000" pt_clust_9="33.09704"></scales>
<clustering>
<clus scale="   33.097">  1  9  2 -1</clus>
<clus scale="   77.847">  5  6 -1 -1</clus>
<clus scale="   91.290">  7  8 -1 -1</clus>
<clus scale="  104.877">  2  5  1 -1</clus>
<clus scale="   33.097">  1  5  2 -1</clus>
</clustering>
</event>
<event>
 9    2  0.3764910E-005  0.1707235E+03  0.7546771E-02  0.1178540E+00
         21   -1    0    0  501  502  0.00000000000E+00  0.00000000000E+00  0.42836390463E+02  0.42836390463E+02  0.00000000000E+00 0.  1.
          2   -1    0    0  502    0 -0.00000000000E+00 -0.00000000000E+00 -0.13387760153E+04  0.13387760153E+04  0.00000000000E+00 0. -1.
         23    2    1    2    0    0  0.12636917617E+03 -0.58250793666E+02 -0.64475399616E+03  0.66599519630E+03  0.92084538784E+02 0.  0.
         24    2    1    2    0    0 -0.84824497999E+02  0.15282969072E+03 -0.40188303889E+03  0.44576000773E+03  0.81485567549E+02 0.  0.
        -11    1    4    4    0    0 -0.95014089776E+02  0.13919850120E+03 -0.31526171115E+03  0.35748265204E+03  0.00000000000E+00 0.  1.
         12    1    4    4    0    0  0.10189591777E+02  0.13631189517E+02 -0.86621327738E+02  0.88277355688E+02  0.00000000000E+00 0. -1.
        -11    1    3    3    0    0 -0.52276265774E+01 -0.20151689556E+02 -0.32468751026E+02  0.38569916577E+02  0.00000000000E+00 0. -1.
         11    1    3    3    0    0  0.13159680275E+03 -0.38099104110E+02 -0.61228524513E+03  0.62742527972E+03  0.00000000000E+00 0.  1.
          1    1    1    2  501    0 -0.41544678173E+02 -0.94578897049E+02 -0.24930258977E+03  0.26985720172E+03  0.00000000000E+00 0. -1.
<scales pt_clust_5="13000.00000" pt_clust_6="13000.00000" pt_clust_7="13000.00000" pt_clust_8="13000.00000" pt_clust_9="103.30115"></scales>
<clustering>
<clus scale="   81.486">  5  6 -1 -1</clus>
<clus scale="   92.085">  7  8 -1 -1</clus>
<clus scale="  103.301">  1  9  2 -1</clus>
<clus scale="  165.248">  1  5  2 -1</clus>
<clus scale="  103.301">  1  5  2 -1</clus>
</clustering>
</event>
<event>
 9    2  0.3764910E-005  0.1177105E+03  0.7546771E-02  0.1251607E+00
         21   -1    0    0  501  502  0.00000000000E+00  0.00000000000E+00  0.42883671240E+02  0.42883671240E+02  0.00000000000E+00 0. -1.
         -1   -1    0    0    0  501 -0.00000000000E+00 -0.00000000000E+00 -0.50065876775E+03  0.50065876775E+03  0.00000000000E+00 0.  1.
         23    2    1    2    0    0  0.17108296391E+02  0.68579484795E+02 -0.32091678978E+03  0.34178802024E+03  0.93998006799E+02 0.  0.
         24    2    1    2    0    0  0.10044401106E+02 -0.74561337344E+02 -0.73055320411E+02  0.13215648340E+03  0.80423710703E+02 0.  0.
        -13    1    4    4    0    0 -0.22589144674E+02 -0.13989397837E+02 -0.54909891605E+02  0.61000564793E+02  0.00000000000E+00 0.  1.
         14    1    4    4    0    0  0.32633545780E+02 -0.60571939506E+02 -0.18145428806E+02  0.71155918604E+02  0.00000000000E+00 0. -1.
        -11    1    3    3    0    0  0.37378704249E+02  0.78824905747E+02 -0.19205487804E+03  0.21093982430E+03  0.00000000000E+00 0. -1.
         11    1    3    3    0    0 -0.20270407858E+02 -0.10245420952E+02 -0.12886191174E+03  0.13084819595E+03  0.00000000000E+00 0.  1.
         -2    1    1    2    0  502 -0.27152697497E+02  0.59818525484E+01 -0.63802986325E+02  0.69597935352E+02  0.00000000000E+00 0.  1.
<scales pt_clust_5="13000.00000" pt_clust_6="13000.00000" pt_clust_7="13000.00000" pt_clust_8="13000.00000" pt_clust_9="27.80382"></scales>
<clustering>
<clus scale="   27.804">  1  9  2 -1</clus>
<clus scale="   80.424">  5  6 -1 -1</clus>
<clus scale="   93.998">  7  8 -1 -1</clus>
<clus scale="  107.183">  1  5  2 -1</clus>
<clus scale="   27.804">  1  5  2 -1</clus>
</clustering>
</event>
<event>
 9    2  0.3764910E-005  0.5129965E+03  0.7546771E-02  0.1010569E+00
          2   -1    0    0  502    0 -0.00000000000E+00  0.00000000000E+00  0.25544900359E+04  0.25544900359E+04  0.00000000000E+00 0. -1.
         21   -1    0    0  501  502  0.00000000000E+00 -0.00000000000E+00 -0.24831640107E+03  0.24831640107E+03  0.00000000000E+00 0.  1.
         24    2    1    2    0    0  0.23789728742E+03 -0.44125696313E+03  0.20479625806E+04  0.21099291671E+04  0.79671397585E+02 0.  0.
         23    2    1    2    0    0 -0.22108295480E+03  0.47275339746E+03  0.32179504666E+03  0.61995490536E+03  0.91752846926E+02 0.  0.
        -11    1    3    3    0    0  0.18592072088E+03 -0.26457444160E+03  0.13199156369E+04  0.13589493876E+04  0.00000000000E+00 0.  1.
         12    1    3    3    0    0  0.51976566543E+02 -0.17668252152E+03  0.72804694376E+03  0.75097977949E+03  0.00000000000E+00 0. -1.
        -13    1    4    4    0    0 -0.27928513143E+01  0.82534486348E+02  0.56283294821E+02  0.99937734270E+02  0.00000000000E+00 0.  1.
         13    1    4    4    0    0 -0.21829010349E+03  0.39021891111E+03  0.26551175183E+03  0.52001717109E+03  0.00000000000E+00 0. -1.
          1    1    1    2  501    0 -0.16814332620E+02 -0.31496434329E+02 -0.63583992434E+02  0.72922364544E+02  0.00000000000E+00 0. -1.
<scales pt_clust_5="13000.00000" pt_clust_6="13000.00000" pt_clust_7="13000.00000" pt_clust_8="13000.00000" pt_clust_9="35.70360"></scales>
<clustering>
<clus scale="   35.704">  2  9  1 -1</clus>
<clus scale="   79.671">  5  6 -1 -1</clus>
<clus scale="   91.753">  7  8 -1 -1</clus>
<clus scale="  510.974">  1  5  2 -1</clus>
<clus scale="   35.704">  2  5  1 -1</clus>
</clustering>
</event>
<event>
 9    2  0.3764910E-005  0.2242924E+03  0.7546771E-02  0.1163175E+00
          2   -1    0    0  502    0 -0.00000000000E+00  0.00000000000E+00  0.20278710660E+03  0.20278710660E+03  0.00000000000E+00 0. -1.
         21   -1    0    0  501  502  0.00000000000E+00 -0.00000000000E+00 -0.46024314737E+03  0.46024314737E+03  0.00000000000E+00 0. -1.
         23    2    1    2    0    0  0.53720884290E+02  0.11260793243E+02 -0.17176967828E+03  0.20054724632E+03  0.87758969684E+02 0.  0.
         24    2    1    2    0    0 -0.10726005938E+03 -0.20387192720E+03  0.23249681541E+01  0.24405341598E+03  0.80549247880E+02 0.  0.
        -11    1    4    4    0    0 -0.18140773199E+02 -0.21285070477E+02  0.27623622801E+02  0.39309113627E+02  0.00000000000E+00 0.  1.
         12    1    4    4    0    0 -0.89119286182E+02 -0.18258685673E+03 -0.25298654647E+02  0.20474430235E+03  0.00000000000E+00 0. -1.
        -13    1    3    3    0    0  0.14335549436E+02  0.39111316465E+02 -0.13075535000E+03  0.13723033413E+03  0.00000000000E+00 0. -1.
         13    1    3    3    0    0  0.39385334854E+02 -0.27850523222E+02 -0.41014328277E+02  0.63316912190E+02  0.00000000000E+00 0.  1.
          1    1    1    2  501    0  0.53539175091E+02  0.19261113396E+03 -0.88011330645E+02  0.21842959167E+03  0.00000000000E+00 0. -1.
<scales pt_clust_5="13000.00000" pt_clust_6="13000.00000" pt_clust_7="13000.00000" pt_clust_8="13000.00000" pt_clust_9="209.32964"></scales>
<clustering>
<clus scale="   80.549">  5  6 -1 -1</clus>
<clus scale="   87.759">  7  8 -1 -1</clus>
<clus scale="  103.510">  1  7  2 -1</clus>
<clus scale="  209.330">  2  9  1 -1</clus>
<clus scale="  209.330">  2  5  1 -1</clus>
</clustering>
</event>
<event>
 9    2  0.3764910E-005  0.2991046E+03  0.7546771E-02  0.1085689E+00
         21   -1    0    0  501  502  0.00000000000E+00  0.00000000000E+00  0.55212596485E+03  0.55212596485E+03  0.00000000000E+00 0.  1.
         -1   -1    0    0    0  501 -0.00000000000E+00 -0.00000000000E+00 -0.26301919819E+03  0.26301919819E+03  0.00000000000E+00 0.  1.
         24    2    1    2    0    0  0.14197804926E+03  0.64296884588E+02 -0.17173808028E+03  0.24522147977E+03  0.79672768754E+02 0.  0.
         23    2    1    2    0    0  0.77093053085E+01  0.33197496370E+01  0.13345850210E+02  0.93233358816E+02  0.91890659766E+02 0.  0.
        -11    1    3    3    0    0  0.13116665704E+03  0.31567089389E+02 -0.10821834881E+03  0.17295197042E+03  0.00000000000E+00 0.  1.
         12    1    3    3    0    0  0.10811392220E+02  0.32729795199E+02 -0.63519731473E+02  0.72269509352E+02  0.00000000000E+00 0. -1.
        -11    1    4    4    0    0  0.27398446823E+02  0.41242438507E+02  0.83518638159E+01  0.50213217896E+02  0.00000000000E+00 0. -1.
         11    1    4    4    0    0 -0.19689141514E+02 -0.37922688870E+02  0.49939863943E+01  0.43020140920E+02  0.00000000000E+00 0.  1.
         -2    1    1    2    0  502 -0.14968735457E+03 -0.67616634225E+02  0.44749899674E+03  0.47669032445E+03  0.00000000000E+00 0.  1.
<scales pt_clust_5="13000.00000" pt_clust_6="13000.00000" pt_clust_7="13000.00000" pt_clust_8="13000.00000" pt_clust_9="164.25076"></scales>
<clustering>
<clus scale="   79.673">  5  6 -1 -1</clus>
<clus scale="   91.891">  7  8 -1 -1</clus>
<clus scale="   91.929">  5  7 -1 -1</clus>
<clus scale="  164.251">  1  9  2 -1</clus>
<clus scale="  164.251">  1  5  2 -1</clus>
</clustering>
</event>
<event>
 9    2  0.3764910E-005  0.1249546E+03  0.7546771E-02  0.1238177E+00
         21   -1    0    0  501  502  0.00000000000E+00  0.00000000000E+00  0.73579115081E+02  0.73579115081E+02  0.00000000000E+00 0. -1.
          2   -1    0    0  502    0 -0.00000000000E+00 -0.00000000000E+00 -0.45259213508E+03  0.45259213508E+03  0.00000000000E+00 0. -1.
         24    2    1    2    0    0 -0.33914969125E+02  0.52917228756E+02 -0.66775789090E+02  0.12196510225E+03  0.80411578324E+02 0.  0.
         23    2    1    2    0    0  0.50724452218E+02 -0.10958094800E+03 -0.93884722244E+02  0.17799572852E+03  0.91033972140E+02 0.  0.
        -11    1    3    3    0    0 -0.57097722666E+02  0.21108106707E+02 -0.51525903872E+02  0.79753500689E+02  0.00000000000E+00 0.  1.
         12    1    3    3    0    0  0.23182753541E+02  0.31809122049E+02 -0.15249885218E+02  0.42211601562E+02  0.00000000000E+00 0. -1.
        -13    1    4    4    0    0  0.40270493530E+02 -0.23396145947E+02  0.44917881323E+01  0.46789619094E+02  0.00000000000E+00 0.  1.
         13    1    4    4    0    0  0.10453958688E+02 -0.86184802052E+02 -0.98376510376E+02  0.13120610943E+03  0.00000000000E+00 0. -1.
          1    1    1    2  501    0 -0.16809483093E+02  0.56663719242E+02 -0.21835250867E+03  0.22621041939E+03  0.00000000000E+00 0. -1.
<scales pt_clust_5="13000.00000" pt_clust_6="13000.00000" pt_clust_7="13000.00000" pt_clust_8="13000.00000" pt_clust_9="59.10448"></scales>
<clustering>
<clus scale="   59.104">  1  9  2 -1</clus>
<clus scale="   80.412">  5  6 -1 -1</clus>
<clus scale="   91.034">  7  8 -1 -1</clus>
<clus scale="  117.441">  2  5  1 -1</clus>
<clus scale="   59.104">  1  5  2 -1</clus>
</clustering>
</event>
<event>
 9    2  0.3764910E-005  0.1505355E+03  0.7546771E-02  0.1201025E+00
          2   -1    0    0  502    0 -0.00000000000E+00  0.00000000000E+00  0.22580100045E+03  0.22580100045E+03  0.00000000000E+00 0. -1.
         21   -1    0    0  501  502  0.00000000000E+00 -0.00000000000E+00 -0.16606627986E+03  0.16606627986E+03  0.00000000000E+00 0.  1.
         24    2    1    2    0    0 -0.11853558943E+03 -0.46853419342E+02  0.11273177037E+03  0.18823154251E+03  0.80478150334E+02 0.  0.
         23    2    1    2    0    0  0.82989133473E+02  0.82570859262E+02 -0.42792479099E+02  0.15222154416E+03  0.87378825609E+02 0.  0.
        -11    1    3    3    0    0 -0.31613743756E+02 -0.42508939896E+02  0.10560641370E+02  0.54018199817E+02  0.00000000000E+00 0.  1.
         12    1    3    3    0    0 -0.86921845673E+02 -0.43444794463E+01  0.10217112900E+03  0.13421334270E+03  0.00000000000E+00 0. -1.
        -11    1    4    4    0    0  0.66142987431E+02  0.12660925866E+02  0.22273207735E+01  0.67380670729E+02  0.00000000000E+00 0. -1.
         11    1    4    4    0    0  0.16846146043E+02  0.69909933396E+02 -0.45019799872E+02  0.84840873430E+02  0.00000000000E+00 0.  1.
          1    1    1    2  501    0  0.35546455955E+02 -0.35717439920E+02 -0.10204570679E+02  0.51414193645E+02  0.00000000000E+00 0. -1.
<scales pt_clust_5="13000.00000" pt_clust_6="13000.00000" pt_clust_7="13000.00000" pt_clust_8="13000.00000" pt_clust_9="50.39133"></scales>
<clustering>
<clus scale="   50.391">  2  9  1 -1</clus>
<clus scale="   80.478">  5  6 -1 -1</clus>
<clus scale="   87.379">  7  8 -1 -1</clus>
<clus scale="  146.638">  1  5  2 -1</clus>
<clus scale="   50.391">  2  5  1 -1</clus>
</clustering>
</event>
<event>
 9    2  0.3764910E-005  0.2520888E+03  0.7546771E-02  0.1132350E+00
          2   -1    0    0  502    0 -0.00000000000E+00  0.00000000000E+00  0.94053513916E+03  0.94053513916E+03  0.00000000000E+00 0. -1.
         21   -1    0    0  501  502  0.00000000000E+00 -0.00000000000E+00 -0.39021430397E+03  0.39021430397E+03  0.00000000000E+00 0. -1.
         23    2    1    2    0    0 -0.10024170801E+03 -0.67256534859E+02  0.79144004625E+02  0.17119877939E+03  0.92051111289E+02 0.  0.
         24    2    1    2    0    0  0.35059981141E+02  0.29448474943E+03  0.74011287946E+03  0.80148933183E+03  0.81655402615E+02 0.  0.
        -13    1    4    4    0    0 -0.47359651873E+01  0.11312268096E+03  0.37733831363E+03  0.39395859332E+03  0.00000000000E+00 0.  1.
         14    1    4    4    0    0  0.39795946328E+02  0.18136206847E+03  0.36277456583E+03  0.40753073852E+03  0.00000000000E+00 0. -1.
        -11    1    3    3    0    0 -0.10289018208E+03 -0.21646018233E+02  0.63891067036E+02  0.12303254903E+03  0.00000000000E+00 0. -1.
         11    1    3    3    0    0  0.26484740702E+01 -0.45610516626E+02  0.15252937589E+02  0.48166230358E+02  0.00000000000E+00 0.  1.
          1    1    1    2  501    0  0.65181726866E+02 -0.22722821457E+03 -0.26893604889E+03  0.35806133191E+03  0.00000000000E+00 0. -1.
<scales pt_clust_5="13000.00000" pt_clust_6="13000.00000" pt_clust_7="13000.00000" pt_clust_8="13000.00000" pt_clust_9="238.49767"></scales>
<clustering>
<clus scale="   81.655">  5  6 -1 -1</clus>
<clus scale="   92.051">  7  8 -1 -1</clus>
<clus scale="  151.807">  1  7  2 -1</clus>
<clus scale="  238.498">  2  9  1 -1</clus>
<clus scale="  238.498">  2  5  1 -1</clus>
</clustering>
</event>
<event>
 9    2  0.3764910E-005  0.1061277E+03  0.7546771E-02  0.1270310E+00
          2   -1    0    0  502    0 -0.00000000000E+00  0.00000000000E+00  0.49081365352E+03  0.49081365352E+03  0.00000000000E+00 0. -1.
         21   -1    0    0  501  502  0.00000000000E+00 -0.00000000000E+00 -0.58152468850E+02  0.58152468850E+02  0.00000000000E+00 0.  1.
         24    2    1    2    0    0  0.51425713223E+02  0.31719806939E+02  0.35417424023E+03  0.36815254462E+03  0.80287941429E+02 0.  0.
         23    2    1    2    0    0 -0.74578341423E+02 -0.33586354883E+01  0.86691791118E+02  0.14329398623E+03  0.86281460352E+02 0.  0.
        -11    1    3    3    0    0  0.35230413586E+02  0.16718347650E+02  0.51121904100E+02  0.64297233754E+02  0.00000000000E+00 0.  1.
         12    1    3    3    0    0  0.16195299637E+02  0.15001459290E+02  0.30305233613E+03  0.30385531087E+03  0.00000000000E+00 0. -1.
        -11    1    4    4    0    0 -0.51988681828E+02  0.80019441648E+01  0.10126349883E+03  0.11411025521E+03  0.00000000000E+00 0.  1.
         11    1    4    4    0    0 -0.22589659594E+02 -0.11360579653E+02 -0.14571707711E+02  0.29183731020E+02  0.00000000000E+00 0. -1.
          1    1    1    2  501    0  0.23152628200E+02 -0.28361171451E+02 -0.82048466755E+01  0.37519591517E+02  0.00000000000E+00 0. -1.
<scales pt_clust_5="13000.00000" pt_clust_6="13000.00000" pt_clust_7="13000.00000" pt_clust_8="13000.00000" pt_clust_9="36.61148"></scales>
<clustering>
<clus scale="   36.611">  2  9  1 -1</clus>
<clus scale="   80.288">  5  6 -1 -1</clus>
<clus scale="   86.281">  7  8 -1 -1</clus>
<clus scale="  101.315">  1  5  2 -1</clus>
<clus scale="   36.611">  2  5  1 -1</clus>
</clustering>
</event>
<event>
 9    2  0.3764910E-005  0.2846431E+03  0.7546771E-02  0.1134217E+00
          2   -1    0    0  502    0 -0.00000000000E+00  0.00000000000E+00  0.76725742703E+03  0.76725742703E+03  0.00000000000E+00 0. -1.
         21   -1    0    0  501  502  0.00000000000E+00 -0.00000000000E+00 -0.14355722987E+03  0.14355722987E+03  0.00000000000E+00 0. -1.
         23    2    1    2    0    0 -0.47457593776E+00 -0.45076911236E+02  0.13008113171E+03  0.16453564773E+03  0.90103969935E+02 0.  0.
         24    2    1    2    0    0  0.11423603106E+02  0.29555598235E+03  0.23563790211E+03  0.38653753685E+03  0.80013805517E+02 0.  0.
        -13    1    4    4    0    0 -0.25420335296E+02  0.79218311677E+02  0.93100298490E+02  0.12485751852E+03  0.00000000000E+00 0.  1.
         14    1    4    4    0    0  0.36843938402E+02  0.21633767067E+03  0.14253760362E+03  0.26168001834E+03  0.00000000000E+00 0. -1.
        -13    1    3    3    0    0  0.39058784126E+02 -0.26720788645E+02  0.10265394058E+03  0.11303725350E+03  0.00000000000E+00 0. -1.
         13    1    3    3    0    0 -0.39533360064E+02 -0.18356122591E+02  0.27427191130E+02  0.51498394226E+02  0.00000000000E+00 0.  1.
          1    1    1    2  501    0 -0.10949027168E+02 -0.25047907112E+03  0.25798116335E+03  0.35974147232E+03  0.00000000000E+00 0. -1.
<scales pt_clust_5="13000.00000" pt_clust_6="13000.00000" pt_clust_7="13000.00000" pt_clust_8="13000.00000" pt_clust_9="273.16583"></scales>
<clustering>
<clus scale="   80.014">  5  6 -1 -1</clus>
<clus scale="   90.104">  7  8 -1 -1</clus>
<clus scale="  100.752">  1  7  2 -1</clus>
<clus scale="  273.166">  2  9  1 -1</clus>
<clus scale="  273.166">  2  5  1 -1</clus>
</clustering>
</event>
<event>
 9    2  0.3764910E-005  0.9158973E+02  0.7546771E-02  0.1304556E+00
         -3   -1    0    0    0  501 -0.00000000000E+00  0.00000000000E+00  0.15076617212E+03  0.15076617212E+03  0.00000000000E+00 0.  1.
         21   -1    0    0  501  502  0.00000000000E+00 -0.00000000000E+00 -0.18030211640E+03  0.18030211640E+03  0.00000000000E+00 0.  1.
         24    2    1    2    0    0  0.23716716642E+02 -0.13554243438E+02  0.10082118918E+03  0.13177980176E+03  0.80341793608E+02 0.  0.
         23    2    1    2    0    0  0.27713517724E+02  0.44226649649E+01 -0.58552141350E+02  0.11049427735E+03  0.89403764133E+02 0.  0.
        -13    1    3    3    0    0  0.20541056685E+02 -0.46000012228E+02  0.74223682597E+02  0.89705580612E+02  0.00000000000E+00 0.  1.
         14    1    3    3    0    0  0.31756599564E+01  0.32445768790E+02  0.26597506581E+02  0.42074221144E+02  0.00000000000E+00 0. -1.
        -13    1    4    4    0    0  0.54822706979E+02  0.20636296667E+02 -0.22987243867E+02  0.62926936373E+02  0.00000000000E+00 0.  1.
         13    1    4    4    0    0 -0.27109189255E+02 -0.16213631702E+02 -0.35564897483E+02  0.47567340981E+02  0.00000000000E+00 0. -1.
         -4    1    1    2    0  502 -0.51430234366E+02  0.91315784731E+01 -0.71804992110E+02  0.88794209407E+02  0.00000000000E+00 0.  1.
<scales pt_clust_5="13000.00000" pt_clust_6="13000.00000" pt_clust_7="13000.00000" pt_clust_8="13000.00000" pt_clust_9="52.23461"></scales>
<clustering>
<clus scale="   52.235">  2  9  1 -1</clus>
<clus scale="   80.342">  5  6 -1 -1</clus>
<clus scale="   82.767">  1  5  2 -1</clus>
<clus scale="   89.404">  7  8 -1 -1</clus>
<clus scale="   52.235">  2  5  1 -1</clus>
</clustering>
</event>
<event>
 9    2  0.3764910E-005  0.9911685E+02  0.7546771E-02  0.1292002E+00
         -3   -1    0    0    0  501 -0.00000000000E+00  0.00000000000E+00  0.28915334904E+03  0.28915334904E+03  0.00000000000E+00 0.  1.
         21   -1    0    0  501  502  0.00000000000E+00 -0.00000000000E+00 -0.80443418317E+02  0.80443418317E+02  0.00000000000E+00 0. -1.
         24    2    1    2    0    0 -0.37542724112E+02 -0.80165919029E+01  0.19000810518E+03  0.20670510024E+03  0.71764869897E+02 0.  0.
         23    2    1    2    0    0  0.51446345969E+02 -0.19379960800E+02  0.51673605747E+02  0.11782482688E+03  0.90499828195E+02 0.  0.
        -13    1    3    3    0    0 -0.32278270425E+02 -0.12746334167E+02  0.19498756694E+03  0.19805177868E+03  0.00000000000E+00 0.  1.
         14    1    3    3    0    0 -0.52644536873E+01  0.47297422638E+01 -0.49794617646E+01  0.86533215572E+01  0.00000000000E+00 0. -1.
        -13    1    4    4    0    0  0.57286162845E+02 -0.41381656408E+02  0.60873670661E+02  0.93272448881E+02  0.00000000000E+00 0. -1.
         13    1    4    4    0    0 -0.58398168755E+01  0.22001695608E+02 -0.92000649142E+01  0.24552377995E+02  0.00000000000E+00 0.  1.
         -4    1    1    2    0  502 -0.13903621857E+02  0.27396552703E+02 -0.32971780195E+02  0.45066840249E+02  0.00000000000E+00 0.  1.
<scales pt_clust_5="13000.00000" pt_clust_6="13000.00000" pt_clust_7="13000.00000" pt_clust_8="13000.00000" pt_clust_9="30.72266"></scales>
<clustering>
<clus scale="   30.723">  2  9  1 -1</clus>
<clus scale="   71.765">  5  6 -1 -1</clus>
<clus scale="   82.366">  1  5  2 -1</clus>
<clus scale="   90.500">  7  8 -1 -1</clus>
<clus scale="   30.723">  2  5  1 -1</clus>
</clustering>
</event>
<event>
 9    2  0.3764910E-005  0.1335458E+03  0.7546771E-02  0.1225014E+00
         21   -1    0    0  501  502  0.00000000000E+00  0.00000000000E+00  0.14097309317E+03  0.14097309317E+03  0.00000000000E+00 0.  1.
          2   -1    0    0  502    0 -0.00000000000E+00 -0.00000000000E+00 -0.16743902184E+03  0.16743902184E+03  0.00000000000E+00 0. -1.
         23    2    1    2    0    0 -0.99206452426E+02  0.14229695618E+02 -0.71909360300E+02  0.15365588505E+03  0.91622980040E+02 0.  0.
         24    2    1    2    0    0  0.92643100313E+02  0.67799899363E+01  0.26523525053E+02  0.12573128651E+03  0.80474509793E+02 0.  0.
        -11    1    4    4    0    0  0.50519555519E+02  0.34432327492E+02  0.40627437961E+02  0.73405717636E+02  0.00000000000E+00 0.  1.
         12    1    4    4    0    0  0.42123544795E+02 -0.27652337556E+02 -0.14103912909E+02  0.52325568871E+02  0.00000000000E+00 0. -1.
        -13    1    3    3    0    0 -0.35953537991E+02  0.98602268763E+01  0.19761542118E+02  0.42194780661E+02  0.00000000000E+00 0.  1.
         13    1    3    3    0    0 -0.63252914435E+02  0.43694687413E+01 -0.91670902418E+02  0.11146110439E+03  0.00000000000E+00 0. -1.
          1    1    1    2  501    0  0.65633521127E+01 -0.21009685554E+02  0.18919906572E+02  0.29024943458E+02  0.00000000000E+00 0. -1.
<scales pt_clust_5="13000.00000" pt_clust_6="13000.00000" pt_clust_7="13000.00000" pt_clust_8="13000.00000" pt_clust_9="22.01101"></scales>
<clustering>
<clus scale="   22.011">  1  9  2 -1</clus>
<clus scale="   80.475">  5  6 -1 -1</clus>
<clus scale="   91.623">  7  8 -1 -1</clus>
<clus scale="  126.158">  1  5  2 -1</clus>
<clus scale="   22.011">  1  5  2 -1</clus>
</clustering>
</event>
<event>
 9    2  0.3764910E-005  0.8814977E+02  0.7546771E-02  0.1311906E+00
          4   -1    0    0  502    0 -0.00000000000E+00  0.00000000000E+00  0.33285834512E+03  0.33285834512E+03  0.00000000000E+00 0. -1.
         21   -1    0    0  501  502  0.00000000000E+00 -0.00000000000E+00 -0.67960125053E+02  0.67960125053E+02  0.00000000000E+00 0.  1.
         23    2    1    2    0    0  0.30207771807E+01 -0.60882289260E+01  0.27586016067E+03  0.28965289277E+03  0.88055541678E+02 0.  0.
         24    2    1    2    0    0  0.17530966795E+02 -0.10454004468E+02 -0.13239712616E+02  0.84685246753E+02  0.81115226815E+02 0.  0.
        -11    1    4    4    0    0  0.37675628009E+02 -0.25150606010E+01 -0.36772519279E+02  0.52706704031E+02  0.00000000000E+00 0.  1.
         12    1    4    4    0    0 -0.20144661214E+02 -0.79389438668E+01  0.23532806663E+02  0.31978542721E+02  0.00000000000E+00 0. -1.
        -13    1    3    3    0    0  0.43032819990E+02  0.23995774368E+00  0.18861371239E+03  0.19346062565E+03  0.00000000000E+00 0.  1.
         13    1    3    3    0    0 -0.40012042810E+02 -0.63281866696E+01  0.87246448284E+02  0.96192267124E+02  0.00000000000E+00 0. -1.
          3    1    1    2  501    0 -0.20551743976E+02  0.16542233394E+02  0.22777720179E+01  0.26480330652E+02  0.00000000000E+00 0. -1.
<scales pt_clust_5="13000.00000" pt_clust_6="13000.00000" pt_clust_7="13000.00000" pt_clust_8="13000.00000" pt_clust_9="26.38218"></scales>
<clustering>
<clus scale="   26.382">  2  9  1 -1</clus>
<clus scale="   81.115">  5  6 -1 -1</clus>
<clus scale="   81.218">  2  5  1 -1</clus>
<clus scale="   88.056">  7  8 -1 -1</clus>
<clus scale="   26.382">  2  5  1 -1</clus>
</clustering>
</event>
<event>
 9    2  0.3764910E-005  0.1047249E+03  0.7546771E-02  0.1275203E+00
         21   -1    0    0  501  502  0.00000000000E+00  0.00000000000E+00  0.13083663806E+03  0.13083663806E+03  0.00000000000E+00 0. -1.
          4   -1    0    0  502    0 -0.00000000000E+00 -0.00000000000E+00 -0.18836967926E+03  0.18836967926E+03  0.00000000000E+00 0. -1.
         24    2    1    2    0    0  0.53827293060E+02 -0.12820377983E+02 -0.10988208847E+03  0.14703411452E+03  0.80518432022E+02 0.  0.
         23    2    1    2    0    0 -0.21718441753E+02  0.56385883276E+02  0.43123989194E+02  0.11727199078E+03  0.90785366838E+02 0.  0.
        -11    1    3    3    0    0  0.35844967816E+02  0.20266390435E+02 -0.99933263880E+02  0.10808443703E+03  0.00000000000E+00 0.  1.
         12    1    3    3    0    0  0.17982325243E+02 -0.33086768418E+02 -0.99488245931E+01  0.38949677486E+02  0.00000000000E+00 0. -1.
        -11    1    4    4    0    0 -0.33889466440E+02  0.27256067204E+02 -0.19098341549E+02  0.47498797721E+02  0.00000000000E+00 0.  1.
         11    1    4    4    0    0  0.12171024686E+02  0.29129816071E+02  0.62222330742E+02  0.69773193056E+02  0.00000000000E+00 0. -1.
          3    1    1    2  501    0 -0.32108851306E+02 -0.43565505293E+02  0.92250580723E+01  0.54900212022E+02  0.00000000000E+00 0. -1.
<scales pt_clust_5="13000.00000" pt_clust_6="13000.00000" pt_clust_7="13000.00000" pt_clust_8="13000.00000" pt_clust_9="54.11960"></scales>
<clustering>
<clus scale="   54.120">  1  9  2 -1</clus>
<clus scale="   80.518">  5  6 -1 -1</clus>
<clus scale="   90.785">  7  8 -1 -1</clus>
<clus scale="   95.961">  2  5  1 -1</clus>
<clus scale="   54.120">  1  5  2 -1</clus>
</clustering>
</event>
<event>
 9    2  0.3764910E-005  0.1028742E+03  0.7546771E-02  0.1280649E+00
          2   -1    0    0  502    0 -0.00000000000E+00  0.00000000000E+00  0.18138439630E+03  0.18138439630E+03  0.00000000000E+00 0. -1.
         21   -1    0    0  501  502  0.00000000000E+00 -0.00000000000E+00 -0.44169984202E+03  0.44169984202E+03  0.00000000000E+00 0.  1.
         23    2    1    2    0    0 -0.38935435701E+02  0.18377502343E+02  0.13936535886E+03  0.17246195552E+03  0.92014792867E+02 0.  0.
         24    2    1    2    0    0  0.80549782294E+02  0.10617412612E+02 -0.11459755242E+03  0.16106241059E+03  0.78787716087E+02 0.  0.
        -13    1    4    4    0    0  0.95350378696E+02  0.17317474643E+02 -0.99137054728E+02  0.13863529589E+03  0.00000000000E+00 0.  1.
         14    1    4    4    0    0 -0.14800596401E+02 -0.67000620303E+01 -0.15460497696E+02  0.22427114707E+02  0.00000000000E+00 0. -1.
        -13    1    3    3    0    0 -0.20832430635E+02 -0.24289294146E+02  0.77503774482E+01  0.32924585447E+02  0.00000000000E+00 0.  1.
         13    1    3    3    0    0 -0.18103005067E+02  0.42666796489E+02  0.13161498141E+03  0.13953737007E+03  0.00000000000E+00 0. -1.
          1    1    1    2  501    0 -0.41614346593E+02 -0.28994914955E+02 -0.28508325215E+03  0.28955987221E+03  0.00000000000E+00 0. -1.
<scales pt_clust_5="13000.00000" pt_clust_6="13000.00000" pt_clust_7="13000.00000" pt_clust_8="13000.00000" pt_clust_9="50.71941"></scales>
<clustering>
<clus scale="   50.719">  2  9  1 -1</clus>
<clus scale="   78.788">  5  6 -1 -1</clus>
<clus scale="   91.235">  2  5  1 -1</clus>
<clus scale="   92.015">  7  8 -1 -1</clus>
<clus scale="   50.719">  2  5  1 -1</clus>
</clustering>
</event>
<event>
 9    2  0.3764910E-005  0.1313433E+03  0.7546771E-02  0.1230196E+00
         -3   -1    0    0    0  501 -0.00000000000E+00  0.00000000000E+00  0.80010668231E+03  0.80010668231E+03  0.00000000000E+00 0.  1.
         21   -1    0    0  501  502  0.00000000000E+00 -0.00000000000E+00 -0.30790819987E+02  0.30790819987E+02  0.00000000000E+00 0.  1.
         23    2    1    2    0    0  0.10779879408E+03  0.17818079408E+01  0.50612190246E+03  0.52569331437E+03  0.92576054044E+02 0.  0.
         24    2    1    2    0    0 -0.69909904943E+02 -0.30827864662E+02  0.19009186114E+03  0.21789348887E+03  0.74195045471E+02 0.  0.
        -11    1    4    4    0    0  0.26514418566E+01 -0.31860895553E+02  0.40237816332E+02  0.51392885428E+02  0.00000000000E+00 0.  1.
         12    1    4    4    0    0 -0.72561346799E+02  0.10330308914E+01  0.14985404481E+03  0.16650060344E+03  0.00000000000E+00 0. -1.
        -13    1    3    3    0    0  0.70403403450E+02  0.41168416594E+02  0.22385637645E+03  0.23825019416E+03  0.00000000000E+00 0. -1.
         13    1    3    3    0    0  0.37395390632E+02 -0.39386608653E+02  0.28226552601E+03  0.28744312021E+03  0.00000000000E+00 0.  1.
         -4    1    1    2    0  502 -0.37888889139E+02  0.29046056721E+02  0.73102098727E+02  0.87310699056E+02  0.00000000000E+00 0.  1.
<scales pt_clust_5="13000.00000" pt_clust_6="13000.00000" pt_clust_7="13000.00000" pt_clust_8="13000.00000" pt_clust_9="47.74140"></scales>
<clustering>
<clus scale="   47.741">  2  9  1 -1</clus>
<clus scale="   74.195">  5  6 -1 -1</clus>
<clus scale="   92.576">  7  8 -1 -1</clus>
<clus scale="  119.104">  2  5  1 -1</clus>
<clus scale="   47.741">  2  5  1 -1</clus>
</clustering>
</event>
<event>
 9    2  0.3764910E-005  0.1609850E+03  0.7546771E-02  0.1187645E+00
         21   -1    0    0  501  502  0.00000000000E+00  0.00000000000E+00  0.20109952528E+03  0.20109952528E+03  0.00000000000E+00 0. -1.
          2   -1    0    0  502    0 -0.00000000000E+00 -0.00000000000E+00 -0.18170972703E+03  0.18170972703E+03  0.00000000000E+00 0. -1.
         23    2    1    2    0    0  0.20912215085E+02 -0.14453638124E+03  0.18594170846E+02  0.17273485031E+03  0.90352083998E+02 0.  0.
         24    2    1    2    0    0 -0.50965815213E+01  0.11947257673E+03  0.45146080611E+02  0.15673313035E+03  0.90705202840E+02 0.  0.
        -13    1    4    4    0    0 -0.31256685165E+02  0.41551454778E+01  0.54414379854E+01  0.31997731932E+02  0.00000000000E+00 0.  1.
         14    1    4    4    0    0  0.26160103644E+02  0.11531743125E+03  0.39704642625E+02  0.12473539842E+03  0.00000000000E+00 0. -1.
        -11    1    3    3    0    0  0.46756424298E+01 -0.29963822042E+02  0.44788569406E+02  0.54089816166E+02  0.00000000000E+00 0.  1.
         11    1    3    3    0    0  0.16236572656E+02 -0.11457255919E+03 -0.26194398560E+02  0.11864503415E+03  0.00000000000E+00 0. -1.
          1    1    1    2  501    0 -0.15815633564E+02  0.25063804506E+02 -0.44350453201E+02  0.53341271643E+02  0.00000000000E+00 0. -1.
<scales pt_clust_5="13000.00000" pt_clust_6="13000.00000" pt_clust_7="13000.00000" pt_clust_8="13000.00000" pt_clust_9="29.63662"></scales>
<clustering>
<clus scale="   29.637">  1  9  2 -1</clus>
<clus scale="   90.352">  7  8 -1 -1</clus>
<clus scale="   90.705">  5  6 -1 -1</clus>
<clus scale="  160.786">  2  7  1 -1</clus>
<clus scale="   29.637">  1  5  2 -1</clus>
</clustering>
</event>
<event>
 9    2  0.3764910E-005  0.1493253E+03  0.7546771E-02  0.1203753E+00
         21   -1    0    0  501  502  0.00000000000E+00  0.00000000000E+00  0.21936278532E+02  0.21936278532E+02  0.00000000000E+00 0.  1.
          2   -1    0    0  502    0 -0.00000000000E+00 -0.00000000000E+00 -0.20650556409E+04  0.20650556409E+04  0.00000000000E+00 0. -1.
         24    2    1    2    0    0  0.43396504445E+00  0.11735689666E+03 -0.16383037652E+04  0.16444600058E+04  0.80228762807E+02 0.  0.
         23    2    1    2    0    0  0.23629281644E+02 -0.11338348732E+03 -0.37857791162E+03  0.40670951881E+03  0.93151700877E+02 0.  0.
        -11    1    3    3    0    0 -0.10118677449E+02  0.26434600604E+02 -0.11586966498E+03  0.11927679994E+03  0.00000000000E+00 0.  1.
         12    1    3    3    0    0  0.10552642493E+02  0.90922296058E+02 -0.15224341002E+04  0.15251832059E+04  0.00000000000E+00 0. -1.
        -11    1    4    4    0    0 -0.10129732639E+02 -0.11302108731E+03 -0.26637906088E+03  0.28954132993E+03  0.00000000000E+00 0.  1.
         11    1    4    4    0    0  0.33759014283E+02 -0.36240001349E+00 -0.11219885074E+03  0.11716818889E+03  0.00000000000E+00 0. -1.
          1    1    1    2  501    0 -0.24063246688E+02 -0.39734093376E+01 -0.26237685632E+02  0.35822394815E+02  0.00000000000E+00 0. -1.
<scales pt_clust_5="13000.00000" pt_clust_6="13000.00000" pt_clust_7="13000.00000" pt_clust_8="13000.00000" pt_clust_9="24.38909"></scales>
<clustering>
<clus scale="   24.389">  1  9  2 -1</clus>
<clus scale="   80.229">  5  6 -1 -1</clus>
<clus scale="   93.152">  7  8 -1 -1</clus>
<clus scale="  141.624">  2  5  1 -1</clus>
<clus scale="   24.389">  1  5  2 -1</clus>
</clustering>
</event>
<event>
 9    2  0.3764910E-005  0.1106795E+03  0.7546771E-02  0.1264481E+00
          2   -1    0    0  502    0 -0.00000000000E+00  0.00000000000E+00  0.12498901583E+03  0.12498901583E+03  0.00000000000E+00 0. -1.
         21   -1    0    0  501  502  0.00000000000E+00 -0.00000000000E+00 -0.40447425564E+03  0.40447425564E+03  0.00000000000E+00 0. -1.
         24    2    1    2    0    0 -0.21207008398E+02 -0.55566329101E+02  0.51064799569E+02  0.11595826775E+03  0.85447948892E+02 0.  0.
         23    2    1    2    0    0 -0.34858640875E+02  0.42177136618E+02 -0.42548563958E+02  0.11979174669E+03  0.97701824873E+02 0.  0.
        -13    1    3    3    0    0 -0.34028028137E+02  0.11382017646E+02  0.19537177669E+02  0.40855334240E+02  0.00000000000E+00 0.  1.
         14    1    3    3    0    0  0.12821019739E+02 -0.66948346747E+02  0.31527621900E+02  0.75102933511E+02  0.00000000000E+00 0. -1.
        -13    1    4    4    0    0  0.23796328750E+02  0.44334947810E+02 -0.33386418792E+02  0.60386304897E+02  0.00000000000E+00 0.  1.
         13    1    4    4    0    0 -0.58654969625E+02 -0.21578111922E+01 -0.91621451661E+01  0.59405441795E+02  0.00000000000E+00 0. -1.
          1    1    1    2  501    0  0.56065649273E+02  0.13389192483E+02 -0.28800147542E+03  0.29371325702E+03  0.00000000000E+00 0. -1.
<scales pt_clust_5="13000.00000" pt_clust_6="13000.00000" pt_clust_7="13000.00000" pt_clust_8="13000.00000" pt_clust_9="57.64224"></scales>
<clustering>
<clus scale="   57.642">  2  9  1 -1</clus>
<clus scale="   85.448">  5  6 -1 -1</clus>
<clus scale="   97.702">  7  8 -1 -1</clus>
<clus scale="  100.028">  1  5  2 -1</clus>
<clus scale="   57.642">  2  5  1 -1</clus>
</clustering>
</event>
<event>
 9    2  0.3764910E-005  0.2699499E+03  0.7546771E-02  0.1122142E+00
          2   -1    0    0  502    0 -0.00000000000E+00  0.00000000000E+00  0.34633500926E+03  0.34633500926E+03  0.00000000000E+00 0. -1.
         21   -1    0    0  501  502  0.00000000000E+00 -0.00000000000E+00 -0.52122139669E+03  0.52122139669E+03  0.00000000000E+00 0. -1.
         23    2    1    2    0    0  0.86954159125E+02  0.95894050727E+02  0.15832278481E+03  0.22441584198E+03  0.92410341342E+02 0.  0.
         24    2    1    2    0    0  0.20169219705E+03 -0.70723146077E+01 -0.37089077089E+02  0.22018296505E+03  0.79844714748E+02 0.  0.
        -11    1    4    4    0    0  0.53210355979E+02 -0.34821297813E+02 -0.26074151732E+02  0.68729368929E+02  0.00000000000E+00 0.  1.
         12    1    4    4    0    0  0.14848184107E+03  0.27748983205E+02 -0.11014925357E+02  0.15145359612E+03  0.00000000000E+00 0. -1.
        -11    1    3    3    0    0  0.48681258947E+02  0.15066103460E+02  0.11093005580E+02  0.52152729736E+02  0.00000000000E+00 0.  1.
         11    1    3    3    0    0  0.38272900178E+02  0.80827947267E+02  0.14722977923E+03  0.17226311224E+03  0.00000000000E+00 0. -1.
          1    1    1    2  501    0 -0.28864635617E+03 -0.88821736119E+02 -0.29612009515E+03  0.42295759893E+03  0.00000000000E+00 0. -1.
<scales pt_clust_5="13000.00000" pt_clust_6="13000.00000" pt_clust_7="13000.00000" pt_clust_8="13000.00000" pt_clust_9="257.87161"></scales>
<clustering>
<clus scale="   79.845">  5  6 -1 -1</clus>
<clus scale="   92.410">  7  8 -1 -1</clus>
<clus scale="  159.048">  1  7  2 -1</clus>
<clus scale="  257.872">  2  9  1 -1</clus>
<clus scale="  257.872">  2  5  1 -1</clus>
</clustering>
</event>
<event>
 9    2  0.3764910E-005  0.2264439E+03  0.7546771E-02  0.1129843E+00
          2   -1    0    0  502    0 -0.00000000000E+00  0.00000000000E+00  0.36918187917E+03  0.36918187917E+03  0.00000000000E+00 0. -1.
         21   -1    0    0  501  502  0.00000000000E+00 -0.00000000000E+00 -0.27224957727E+03  0.27224957727E+03  0.00000000000E+00 0. -1.
         24    2    1    2    0    0  0.15518506206E+03  0.10820308835E+03  0.10064103265E+03  0.22908433642E+03  0.80998172343E+02 0.  0.
         23    2    1    2    0    0 -0.26150776916E+03 -0.59114882993E+02 -0.48104738498E+02  0.28710664952E+03  0.90748441371E+02 0.  0.
        -11    1    3    3    0    0  0.73085081447E+02  0.52539204792E+01  0.46026576360E+02  0.86530217508E+02  0.00000000000E+00 0.  1.
         12    1    3    3    0    0  0.82099980616E+02  0.10294916787E+03  0.54614456289E+02  0.14255411891E+03  0.00000000000E+00 0. -1.
        -13    1    4    4    0    0 -0.20834803770E+03 -0.71311213997E+01 -0.40486548916E+02  0.21236505915E+03  0.00000000000E+00 0. -1.
         13    1    4    4    0    0 -0.53159731456E+02 -0.51983761593E+02 -0.76181895820E+01  0.74741590365E+02  0.00000000000E+00 0.  1.
          1    1    1    2  501    0  0.10632270709E+03 -0.49088205355E+02  0.44396007755E+02  0.12524047051E+03  0.00000000000E+00 0. -1.
<scales pt_clust_5="13000.00000" pt_clust_6="13000.00000" pt_clust_7="13000.00000" pt_clust_8="13000.00000" pt_clust_9="117.10757"></scales>
<clustering>
<clus scale="   80.998">  5  6 -1 -1</clus>
<clus scale="   90.748">  7  8 -1 -1</clus>
<clus scale="  117.108">  2  9  1 -1</clus>
<clus scale="  222.716">  1  5  2 -1</clus>
<clus scale="  117.108">  2  5  1 -1</clus>
</clustering>
</event>
<event>
 9    2  0.3764910E-005  0.1090007E+03  0.7546771E-02  0.1267389E+00
         -1   -1    0    0    0  501 -0.00000000000E+00  0.00000000000E+00  0.12044442369E+03  0.12044442369E+03  0.00000000000E+00 0.  1.
         21   -1    0    0  501  502  0.00000000000E+00 -0.00000000000E+00 -0.33152034665E+03  0.33152034665E+03  0.00000000000E+00 0.  1.
         23    2    1    2    0    0  0.80192596898E+01  0.50756293517E+02  0.78355800768E+02  0.13433086808E+03  0.96253003838E+02 0.  0.
         24    2    1    2    0    0  0.15762130421E+02 -0.51439623150E+02 -0.26574489033E+03  0.28406177794E+03  0.84712852412E+02 0.  0.
        -11    1    4    4    0    0  0.37756439009E+02  0.58114594897E+01 -0.84850756798E+02  0.93053601097E+02  0.00000000000E+00 0.  1.
         12    1    4    4    0    0 -0.21994308588E+02 -0.57251082640E+02 -0.18089413353E+03  0.19100817684E+03  0.00000000000E+00 0. -1.
        -11    1    3    3    0    0  0.29457761310E+02 -0.19708909921E+02  0.24469081462E+02  0.43068976994E+02  0.00000000000E+00 0.  1.
         11    1    3    3    0    0 -0.21438501620E+02  0.70465203438E+02  0.53886719306E+02  0.91261891087E+02  0.00000000000E+00 0. -1.
         -2    1    1    2    0  502 -0.23781390111E+02  0.68332963349E+00 -0.23686833391E+02  0.33572124316E+02  0.00000000000E+00 0.  1.
<scales pt_clust_5="13000.00000" pt_clust_6="13000.00000" pt_clust_7="13000.00000" pt_clust_8="13000.00000" pt_clust_9="23.79121"></scales>
<clustering>
<clus scale="   23.791">  2  9  1 -1</clus>
<clus scale="   84.713">  5  6 -1 -1</clus>
<clus scale="   96.253">  7  8 -1 -1</clus>
<clus scale="   98.958">  2  5  1 -1</clus>
<clus scale="   23.791">  2  5  1 -1</clus>
</clustering>
</event>
<event>
 9    2  0.3764910E-005  0.9423354E+02  0.7546771E-02  0.1299565E+00
         21   -1    0    0  501  502  0.00000000000E+00  0.00000000000E+00  0.20532582627E+03  0.20532582627E+03  0.00000000000E+00 0.  1.
         -3   -1    0    0    0  501 -0.00000000000E+00 -0.00000000000E+00 -0.12653576595E+03  0.12653576595E+03  0.00000000000E+00 0.  1.
         23    2    1    2    0    0  0.21063177003E+02 -0.52655638884E+01 -0.87206939598E+02  0.12784881939E+03  0.90933419143E+02 0.  0.
         24    2    1    2    0    0 -0.40959402715E+02  0.22397746624E+02  0.12538960993E+03  0.15565647433E+03  0.79542768349E+02 0.  0.
        -13    1    4    4    0    0 -0.42165422023E+02 -0.21728067039E+02  0.55675981281E+02  0.73142645585E+02  0.00000000000E+00 0.  1.
         14    1    4    4    0    0  0.12060193077E+01  0.44125813663E+02  0.69713628653E+02  0.82513828744E+02  0.00000000000E+00 0. -1.
        -13    1    3    3    0    0  0.26934866115E+02 -0.45475139452E+02 -0.49237507374E+02  0.72234392454E+02  0.00000000000E+00 0. -1.
         13    1    3    3    0    0 -0.58716891116E+01  0.40209575564E+02 -0.37969432224E+02  0.55614426936E+02  0.00000000000E+00 0.  1.
         -4    1    1    2    0  502  0.19896225712E+02 -0.17132182735E+02  0.40607389991E+02  0.48356298501E+02  0.00000000000E+00 0.  1.
<scales pt_clust_5="13000.00000" pt_clust_6="13000.00000" pt_clust_7="13000.00000" pt_clust_8="13000.00000" pt_clust_9="26.25588"></scales>
<clustering>
<clus scale="   26.256">  1  9  2 -1</clus>
<clus scale="   79.543">  5  6 -1 -1</clus>
<clus scale="   83.295">  1  5  2 -1</clus>
<clus scale="   90.933">  7  8 -1 -1</clus>
<clus scale="   26.256">  1  5  2 -1</clus>
</clustering>
</event>
<event>
 9    2  0.3764910E-005  0.1249794E+03  0.7546771E-02  0.1237006E+00
         21   -1    0    0  501  502  0.00000000000E+00  0.00000000000E+00  0.13832037489E+03  0.13832037489E+03  0.00000000000E+00 0.  1.
          2   -1    0    0  502    0 -0.00000000000E+00 -0.00000000000E+00 -0.19660726404E+03  0.19660726404E+03  0.00000000000E+00 0. -1.
         23    2    1    2    0    0  0.26672242034E+02  0.90653117946E+02 -0.11146319576E+03  0.17053345717E+03  0.87910293577E+02 0.  0.
         24    2    1    2    0    0 -0.24552093606E+02 -0.64807493020E+02  0.75140393785E+02  0.13041017843E+03  0.80980981765E+02 0.  0.
        -11    1    4    4    0    0 -0.45256173781E+02 -0.27773228131E+02  0.69718525768E+02  0.87636443911E+02  0.00000000000E+00 0.  1.
         12    1    4    4    0    0  0.20704080176E+02 -0.37034264888E+02  0.54218680169E+01  0.42773734517E+02  0.00000000000E+00 0. -1.
        -11    1    3    3    0    0  0.19410883103E+02  0.70563276587E+02 -0.12528208009E+03  0.14509155033E+03  0.00000000000E+00 0. -1.
         11    1    3    3    0    0  0.72613589311E+01  0.20089841359E+02  0.13818884332E+02  0.25441906837E+02  0.00000000000E+00 0.  1.
          1    1    1    2  501    0 -0.21201484287E+01 -0.25845624926E+02 -0.21964087173E+02  0.33984003333E+02  0.00000000000E+00 0. -1.
<scales pt_clust_5="13000.00000" pt_clust_6="13000.00000" pt_clust_7="13000.00000" pt_clust_8="13000.00000" pt_clust_9="25.93245"></scales>
<clustering>
<clus scale="   25.932">  1  9  2 -1</clus>
<clus scale="   80.981">  5  6 -1 -1</clus>
<clus scale="   87.910">  7  8 -1 -1</clus>
<clus scale="  120.206">  1  5  2 -1</clus>
<clus scale="   25.932">  1  5  2 -1</clus>
</clustering>
</event>
<event>
 9    2  0.3764910E-005  0.1024116E+03  0.7546771E-02  0.1279455E+00
         21   -1    0    0  501  502  0.00000000000E+00  0.00000000000E+00  0.27449502011E+02  0.27449502011E+02  0.00000000000E+00 0. -1.
         -3   -1    0    0    0  501 -0.00000000000E+00 -0.00000000000E+00 -0.49407519843E+03  0.49407519843E+03  0.00000000000E+00 0.  1.
         23    2    1    2    0    0 -0.58662404036E+02 -0.10197790910E+02 -0.30674445541E+03  0.32507041283E+03  0.89628900400E+02 0.  0.
         24    2    1    2    0    0  0.35294618029E+02  0.50476174770E+01 -0.13959409458E+03  0.16508318595E+03  0.80590064758E+02 0.  0.
        -11    1    4    4    0    0 -0.14208695296E+02  0.24179381054E+02 -0.82480212833E+02  0.87117822511E+02  0.00000000000E+00 0.  1.
         12    1    4    4    0    0  0.49503313325E+02 -0.19131763577E+02 -0.57113881742E+02  0.77965363434E+02  0.00000000000E+00 0. -1.
        -11    1    3    3    0    0  0.14471228153E+02  0.20403824342E+02 -0.11296037152E+03  0.11569692314E+03  0.00000000000E+00 0. -1.
         11    1    3    3    0    0 -0.73133632188E+02 -0.30601615252E+02 -0.19378408390E+03  0.20937348969E+03  0.00000000000E+00 0.  1.
         -4    1    1    2    0  502  0.23367786006E+02  0.51501734331E+01 -0.20287146438E+02  0.31371101667E+02  0.00000000000E+00 0.  1.
<scales pt_clust_5="13000.00000" pt_clust_6="13000.00000" pt_clust_7="13000.00000" pt_clust_8="13000.00000" pt_clust_9="23.92860"></scales>
<clustering>
<clus scale="   23.929">  1  9  2 -1</clus>
<clus scale="   80.590">  5  6 -1 -1</clus>
<clus scale="   89.629">  7  8 -1 -1</clus>
<clus scale="   94.602">  1  5  2 -1</clus>
<clus scale="   23.929">  1  5  2 -1</clus>
</clustering>
</event>
<event>
 9    2  0.3764910E-005  0.9249335E+02  0.7546771E-02  0.1303146E+00
          2   -1    0    0  502    0 -0.00000000000E+00  0.00000000000E+00  0.11369754119E+03  0.11369754119E+03  0.00000000000E+00 0. -1.
         21   -1    0    0  501  502  0.00000000000E+00 -0.00000000000E+00 -0.13270046978E+03  0.13270046978E+03  0.00000000000E+00 0. -1.
         23    2    1    2    0    0 -0.23539877822E+02  0.33813235546E+01  0.16357216727E+02  0.96053893437E+02  0.91614587859E+02 0.  0.
         24    2    1    2    0    0 -0.15474289964E+02  0.29458854860E+02 -0.44357488293E+02  0.98560579734E+02  0.81482042993E+02 0.  0.
        -11    1    4    4    0    0 -0.34742772926E+02  0.41046600210E+02 -0.60147569227E+01  0.54111560320E+02  0.00000000000E+00 0.  1.
         12    1    4    4    0    0  0.19268482962E+02 -0.11587745351E+02 -0.38342731370E+02  0.44449019414E+02  0.00000000000E+00 0. -1.
        -11    1    3    3    0    0 -0.21524662865E+02  0.28090889578E+02 -0.28075019222E+02  0.45173176699E+02  0.00000000000E+00 0.  1.
         11    1    3    3    0    0 -0.20152149568E+01 -0.24709566023E+02  0.44432235949E+02  0.50880716739E+02  0.00000000000E+00 0. -1.
          1    1    1    2  501    0  0.39014167787E+02 -0.32840178414E+02  0.89973429680E+01  0.51783537798E+02  0.00000000000E+00 0. -1.
<scales pt_clust_5="13000.00000" pt_clust_6="13000.00000" pt_clust_7="13000.00000" pt_clust_8="13000.00000" pt_clust_9="50.99593"></scales>
<clustering>
<clus scale="   50.996">  2  9  1 -1</clus>
<clus scale="   81.482">  5  6 -1 -1</clus>
<clus scale="   82.469">  2  5  1 -1</clus>
<clus scale="   91.615">  7  8 -1 -1</clus>
<clus scale="   50.996">  2  5  1 -1</clus>
</clustering>
</event>
<event>
 9    2  0.3764910E-005  0.1429287E+03  0.7546771E-02  0.1212902E+00
         21   -1    0    0  501  502  0.00000000000E+00  0.00000000000E+00  0.35869509200E+03  0.35869509200E+03  0.00000000000E+00 0. -1.
         -1   -1    0    0    0  501 -0.00000000000E+00 -0.00000000000E+00 -0.88712438306E+02  0.88712438306E+02  0.00000000000E+00 0.  1.
         24    2    1    2    0    0  0.47022935331E+02 -0.98428569997E+02  0.12082044744E+03  0.18116643628E+03  0.79525827720E+02 0.  0.
         23    2    1    2    0    0 -0.75335684250E+00  0.10864598217E+03  0.16195322840E+03  0.21716075527E+03  0.95527108456E+02 0.  0.
        -13    1    3    3    0    0 -0.13837048081E+02 -0.61766321569E+02  0.65809441731E+02  0.91309501152E+02  0.00000000000E+00 0.  1.
         14    1    3    3    0    0  0.60859983413E+02 -0.36662248428E+02  0.55011005714E+02  0.89856935127E+02  0.00000000000E+00 0. -1.
        -11    1    4    4    0    0 -0.26009781462E+02  0.11558277609E+03  0.13180454437E+03  0.17722393963E+03  0.00000000000E+00 0. -1.
         11    1    4    4    0    0  0.25256424620E+02 -0.69367939213E+01  0.30148684034E+02  0.39936815640E+02  0.00000000000E+00 0.  1.
         -2    1    1    2    0  502 -0.46269578489E+02 -0.10217412174E+02 -0.12791022153E+02  0.49080338760E+02  0.00000000000E+00 0.  1.
<scales pt_clust_5="13000.00000" pt_clust_6="13000.00000" pt_clust_7="13000.00000" pt_clust_8="13000.00000" pt_clust_9="47.38430"></scales>
<clustering>
<clus scale="   47.384">  1  9  2 -1</clus>
<clus scale="   79.526">  5  6 -1 -1</clus>
<clus scale="   95.527">  7  8 -1 -1</clus>
<clus scale="  132.769">  2  5  1 -1</clus>
<clus scale="   47.384">  1  5  2 -1</clus>
</clustering>
</event>
<event>
 9    2  0.3764910E-005  0.1502013E+03  0.7546771E-02  0.1201959E+00
         21   -1    0    0  501  502  0.00000000000E+00  0.00000000000E+00  0.11316583353E+03  0.11316583353E+03  0.00000000000E+00 0. -1.
          2   -1    0    0  502    0 -0.00000000000E+00 -0.00000000000E+00 -0.35927651162E+03  0.35927651162E+03  0.00000000000E+00 0. -1.
         23    2    1    2    0    0 -0.10446140477E+03  0.72077990846E+02 -0.26089423512E+03  0.30416190769E+03  0.91330401940E+02 0.  0.
         24    2    1    2    0    0  0.68859062935E+02 -0.60326976928E+02  0.32133376020E+02  0.12696906747E+03  0.81900400152E+02 0.  0.
        -11    1    4    4    0    0  0.14974469919E+02  0.17680598890E+02  0.21424883154E+02  0.31557312063E+02  0.00000000000E+00 0.  1.
         12    1    4    4    0    0  0.53884593016E+02 -0.78007575818E+02  0.10708492865E+02  0.95411755402E+02  0.00000000000E+00 0. -1.
        -11    1    3    3    0    0 -0.11719598456E+03  0.45885670529E+02 -0.19461040481E+03  0.23176195377E+03  0.00000000000E+00 0. -1.
         11    1    3    3    0    0  0.12734579791E+02  0.26192320317E+02 -0.66283830310E+02  0.72399953913E+02  0.00000000000E+00 0.  1.
          1    1    1    2  501    0  0.35602341836E+02 -0.11751013918E+02 -0.17349818984E+02  0.41311369998E+02  0.00000000000E+00 0. -1.
<scales pt_clust_5="13000.00000" pt_clust_6="13000.00000" pt_clust_7="13000.00000" pt_clust_8="13000.00000" pt_clust_9="37.49151"></scales>
<clustering>
<clus scale="   37.492">  1  9  2 -1</clus>
<clus scale="   81.900">  5  6 -1 -1</clus>
<clus scale="   91.330">  7  8 -1 -1</clus>
<clus scale="  144.661">  1  5  2 -1</clus>
<clus scale="   37.492">  1  5  2 -1</clus>
</clustering>
</event>
<event>
 9    2  0.3764910E-005  0.8636873E+02  0.7546771E-02  0.1313242E+00
          2   -1    0    0  502    0 -0.00000000000E+00  0.00000000000E+00  0.75078654253E+02  0.75078654253E+02  0.00000000000E+00 0. -1.
         21   -1    0    0  501  502  0.00000000000E+00 -0.00000000000E+00 -0.18101541611E+03  0.18101541611E+03  0.00000000000E+00 0. -1.
         23    2    1    2    0    0  0.43124285340E+01 -0.25074131157E+02 -0.86151584430E+01  0.87885107866E+02  0.83679520412E+02 0.  0.
         24    2    1    2    0    0 -0.34674187038E+02 -0.37490457207E+01 -0.40130663306E+02  0.97332904937E+02  0.81528336519E+02 0.  0.
        -11    1    4    4    0    0 -0.15706308873E+02  0.38535554234E+02 -0.25172643031E+02  0.48634751318E+02  0.00000000000E+00 0.  1.
         12    1    4    4    0    0 -0.18967878165E+02 -0.42284599955E+02 -0.14958020275E+02  0.48698153620E+02  0.00000000000E+00 0. -1.
        -13    1    3    3    0    0  0.23054613169E+02 -0.12817024217E+02 -0.40855101877E+02  0.48630552614E+02  0.00000000000E+00 0.  1.
         13    1    3    3    0    0 -0.18742184635E+02 -0.12257106940E+02  0.32239943434E+02  0.39254555252E+02  0.00000000000E+00 0. -1.
          1    1    1    2  501    0  0.30361758504E+02  0.28823176878E+02 -0.57190940108E+02  0.70876057560E+02  0.00000000000E+00 0. -1.
<scales pt_clust_5="13000.00000" pt_clust_6="13000.00000" pt_clust_7="13000.00000" pt_clust_8="13000.00000" pt_clust_9="41.86421"></scales>
<clustering>
<clus scale="   41.864">  2  9  1 -1</clus>
<clus scale="   81.528">  5  6 -1 -1</clus>
<clus scale="   83.680">  7  8 -1 -1</clus>
<clus scale="   84.286">  2  5  1 -1</clus>
<clus scale="   41.864">  2  5  1 -1</clus>
</clustering>
</event>
<event>
 9    2  0.3764910E-005  0.3935370E+03  0.7546771E-02  0.1046041E+00
         21   -1    0    0  501  502  0.00000000000E+00  0.00000000000E+00  0.72923990832E+03  0.72923990832E+03  0.00000000000E+00 0.  1.
         -1   -1    0    0    0  501 -0.00000000000E+00 -0.00000000000E+00 -0.23274532982E+03  0.23274532982E+03  0.00000000000E+00 0.  1.
         24    2    1    2    0    0  0.18395790052E+03 -0.62743171728E+02  0.17704288861E+03  0.27517768677E+03  0.81248754629E+02 0.  0.
         23    2    1    2    0    0  0.12084806560E+03 -0.52267397395E+02  0.32281779367E+03  0.36100786039E+03  0.93697446950E+02 0.  0.
        -13    1    3    3    0    0  0.82031937256E+02 -0.70385603864E+02  0.82944246098E+02  0.13624654095E+03  0.00000000000E+00 0.  1.
         14    1    3    3    0    0  0.10192596326E+03  0.76424321364E+01  0.94098642507E+02  0.13893114581E+03  0.00000000000E+00 0. -1.
        -13    1    4    4    0    0  0.59703363351E+02 -0.71646052613E+02  0.22994906308E+03  0.24814153232E+03  0.00000000000E+00 0.  1.
         13    1    4    4    0    0  0.61144702248E+02  0.19378655218E+02  0.92868730587E+02  0.11286632807E+03  0.00000000000E+00 0. -1.
         -2    1    1    2    0  502 -0.30480596612E+03  0.11501056912E+03 -0.33661037718E+01  0.32579969098E+03  0.00000000000E+00 0.  1.
<scales pt_clust_5="13000.00000" pt_clust_6="13000.00000" pt_clust_7="13000.00000" pt_clust_8="13000.00000" pt_clust_9="325.78246"></scales>
<clustering>
<clus scale="   81.249">  5  6 -1 -1</clus>
<clus scale="   93.697">  7  8 -1 -1</clus>
<clus scale="  144.968">  5  7 -1 -1</clus>
<clus scale="  325.782">  1  9  2 -1</clus>
<clus scale="  325.782">  1  5  2 -1</clus>
</clustering>
</event>
<event>
 9    2  0.3764910E-005  0.9827580E+02  0.7546771E-02  0.1294154E+00
         -1   -1    0    0    0  501 -0.00000000000E+00  0.00000000000E+00  0.28305555645E+03  0.28305555645E+03  0.00000000000E+00 0.  1.
         21   -1    0    0  501  502  0.00000000000E+00 -0.00000000000E+00 -0.38780077923E+02  0.38780077923E+02  0.00000000000E+00 0.  1.
         24    2    1    2    0    0 -0.41425059394E+01 -0.52920197722E+01  0.12283531793E+03  0.14658615728E+03  0.79710854645E+02 0.  0.
         23    2    1    2    0    0  0.14145621606E+02  0.27434878887E+02  0.10178895321E+03  0.14399986134E+03  0.97068006466E+02 0.  0.
        -11    1    3    3    0    0 -0.41883873743E+02 -0.16410769973E+01  0.59852385543E+02  0.73070240650E+02  0.00000000000E+00 0.  1.
         12    1    3    3    0    0  0.37741367804E+02 -0.36509427749E+01  0.62982932382E+02  0.73515916632E+02  0.00000000000E+00 0. -1.
        -13    1    4    4    0    0  0.50254607396E+02  0.14382584893E+02  0.89569556983E+02  0.10370674930E+03  0.00000000000E+00 0.  1.
         13    1    4    4    0    0 -0.36108985790E+02  0.13052293995E+02  0.12219396227E+02  0.40293112035E+02  0.00000000000E+00 0. -1.
         -2    1    1    2    0  502 -0.10003115667E+02 -0.22142859115E+02  0.19651207390E+02  0.31249615754E+02  0.00000000000E+00 0.  1.
<scales pt_clust_5="13000.00000" pt_clust_6="13000.00000" pt_clust_7="13000.00000" pt_clust_8="13000.00000" pt_clust_9="24.29750"></scales>
<clustering>
<clus scale="   24.298">  2  9  1 -1</clus>
<clus scale="   79.711">  5  6 -1 -1</clus>
<clus scale="   81.177">  1  5  2 -1</clus>
<clus scale="   97.068">  7  8 -1 -1</clus>
<clus scale="   24.298">  2  5  1 -1</clus>
</clustering>
</event>
<event>
 9    2  0.3764910E-005  0.1010751E+03  0.7546771E-02  0.1283312E+00
         21   -1    0    0  501  502  0.00000000000E+00  0.00000000000E+00  0.13209843945E+03  0.13209843945E+03  0.00000000000E+00 0.  1.
          4   -1    0    0  502    0 -0.00000000000E+00 -0.00000000000E+00 -0.26389981047E+03  0.26389981047E+03  0.00000000000E+00 0. -1.
         24    2    1    2    0    0  0.15456403628E+02  0.35376208001E+02 -0.51759380107E+02  0.10275197826E+03  0.79928462400E+02 0.  0.
         23    2    1    2    0    0  0.33837179425E+02 -0.78207193922E+02  0.60386201065E+02  0.13837720506E+03  0.90776856686E+02 0.  0.
        -11    1    3    3    0    0 -0.18403804545E+02 -0.16830564759E+02 -0.63967033211E+01  0.25746567640E+02  0.00000000000E+00 0.  1.
         12    1    3    3    0    0  0.33860208174E+02  0.52206772760E+02 -0.45362676786E+02  0.77005410620E+02  0.00000000000E+00 0. -1.
        -11    1    4    4    0    0  0.54440778545E+01 -0.89213236032E+02  0.27401477536E+02  0.93485188336E+02  0.00000000000E+00 0. -1.
         11    1    4    4    0    0  0.28393101570E+02  0.11006042110E+02  0.32984723529E+02  0.44892016729E+02  0.00000000000E+00 0.  1.
          3    1    1    2  501    0 -0.49293583053E+02  0.42830985920E+02 -0.14042819198E+03  0.15486906660E+03  0.00000000000E+00 0. -1.
<scales pt_clust_5="13000.00000" pt_clust_6="13000.00000" pt_clust_7="13000.00000" pt_clust_8="13000.00000" pt_clust_9="65.30203"></scales>
<clustering>
<clus scale="   65.302">  1  9  2 -1</clus>
<clus scale="   79.928">  5  6 -1 -1</clus>
<clus scale="   90.777">  7  8 -1 -1</clus>
<clus scale="   91.457">  2  5  1 -1</clus>
<clus scale="   65.302">  1  5  2 -1</clus>
</clustering>
</event>
<event>
 9    2  0.3764910E-005  0.2201577E+03  0.7546771E-02  0.1134434E+00
          2   -1    0    0  502    0 -0.00000000000E+00  0.00000000000E+00  0.71524116985E+03  0.71524116985E+03  0.00000000000E+00 0. -1.
         21   -1    0    0  501  502  0.00000000000E+00 -0.00000000000E+00 -0.81637617848E+02  0.81637617848E+02  0.00000000000E+00 0.  1.
         24    2    1    2    0    0  0.11335618778E+03 -0.14628042237E+03  0.27018191194E+03  0.34202418313E+03  0.98664527726E+02 0.  0.
         23    2    1    2    0    0 -0.13494264627E+03  0.16257278477E+03  0.25576727435E+03  0.34385515088E+03  0.90443562648E+02 0.  0.
        -11    1    3    3    0    0  0.87396773103E+02 -0.11392130832E+03  0.12286126786E+03  0.18897394417E+03  0.00000000000E+00 0.  1.
         12    1    3    3    0    0  0.25959414679E+02 -0.32359114054E+02  0.14732064408E+03  0.15305023896E+03  0.00000000000E+00 0. -1.
        -11    1    4    4    0    0 -0.11461953471E+02  0.78436671572E+02  0.72790430552E+02  0.10762032617E+03  0.00000000000E+00 0.  1.
         11    1    4    4    0    0 -0.12348069279E+03  0.84136113201E+02  0.18297684380E+03  0.23623482471E+03  0.00000000000E+00 0. -1.
          1    1    1    2  501    0  0.21586458484E+02 -0.16292362403E+02  0.10765436571E+03  0.11099945369E+03  0.00000000000E+00 0. -1.
<scales pt_clust_5="13000.00000" pt_clust_6="13000.00000" pt_clust_7="13000.00000" pt_clust_8="13000.00000" pt_clust_9="27.04472"></scales>
<clustering>
<clus scale="   27.045">  2  9  1 -1</clus>
<clus scale="   90.444">  7  8 -1 -1</clus>
<clus scale="   98.665">  5  6 -1 -1</clus>
<clus scale="  216.598">  2  7  1 -1</clus>
<clus scale="   27.045">  2  5  1 -1</clus>
</clustering>
</event>
<event>
 9    2  0.3764910E-005  0.2150143E+03  0.7546771E-02  0.1138637E+00
         21   -1    0    0  501  502  0.00000000000E+00  0.00000000000E+00  0.63868904805E+03  0.63868904805E+03  0.00000000000E+00 0. -1.
         -3   -1    0    0    0  501 -0.00000000000E+00 -0.00000000000E+00 -0.16298020994E+03  0.16298020994E+03  0.00000000000E+00 0.  1.
         24    2    1    2    0    0 -0.16760301354E+03 -0.10440607202E+03 -0.53580204856E+02  0.21970742103E+03  0.80056945239E+02 0.  0.
         23    2    1    2    0    0  0.15464385514E+03  0.78242338607E+02  0.51112365889E+03  0.54757489307E+03  0.92489368915E+02 0.  0.
        -13    1    3    3    0    0 -0.10967718311E+03 -0.89251423872E+02 -0.69773622137E+02  0.15768087869E+03  0.00000000000E+00 0.  1.
         14    1    3    3    0    0 -0.57925830427E+02 -0.15154648146E+02  0.16193417281E+02  0.62026542337E+02  0.00000000000E+00 0. -1.
        -13    1    4    4    0    0  0.53472757637E+02  0.50924362503E+02  0.33143143549E+03  0.33955768720E+03  0.00000000000E+00 0.  1.
         13    1    4    4    0    0  0.10117109750E+03  0.27317976104E+02  0.17969222340E+03  0.20801720587E+03  0.00000000000E+00 0. -1.
         -4    1    1    2    0  502  0.12959158397E+02  0.26163733410E+02  0.18165384074E+02  0.34386943901E+02  0.00000000000E+00 0.  1.
<scales pt_clust_5="13000.00000" pt_clust_6="13000.00000" pt_clust_7="13000.00000" pt_clust_8="13000.00000" pt_clust_9="29.19729"></scales>
<clustering>
<clus scale="   29.197">  1  9  2 -1</clus>
<clus scale="   80.057">  5  6 -1 -1</clus>
<clus scale="   92.489">  7  8 -1 -1</clus>
<clus scale="  209.967">  2  5  1 -1</clus>
<clus scale="   29.197">  1  5  2 -1</clus>
</clustering>
</event>
<event>
 9    2  0.3764910E-005  0.9708084E+02  0.7546771E-02  0.1294267E+00
         21   -1    0    0  501  502  0.00000000000E+00  0.00000000000E+00  0.24760976272E+03  0.24760976272E+03  0.00000000000E+00 0. -1.
          2   -1    0    0  502    0 -0.00000000000E+00 -0.00000000000E+00 -0.25143027546E+03  0.25143027546E+03  0.00000000000E+00 0. -1.
         23    2    1    2    0    0  0.37278370019E+02 -0.16377409669E+01 -0.22401485552E+03  0.24437792283E+03  0.90252726298E+02 0.  0.
         24    2    1    2    0    0 -0.15811101529E+02  0.29104848116E+02  0.10218577952E+03  0.13161209872E+03  0.76044249479E+02 0.  0.
        -11    1    4    4    0    0  0.35685366751E+00 -0.25750882680E+02  0.32203724021E+02  0.41234877763E+02  0.00000000000E+00 0.  1.
         12    1    4    4    0    0 -0.16167955196E+02  0.54855730797E+02  0.69982055494E+02  0.90377220956E+02  0.00000000000E+00 0. -1.
        -11    1    3    3    0    0 -0.21588627115E+02  0.11254015908E+02 -0.19569079026E+02  0.31235725519E+02  0.00000000000E+00 0.  1.
         11    1    3    3    0    0  0.58866997133E+02 -0.12891756874E+02 -0.20444577649E+03  0.21314219731E+03  0.00000000000E+00 0. -1.
          1    1    1    2  501    0 -0.21467268490E+02 -0.27467107150E+02  0.11800856326E+03  0.12305001663E+03  0.00000000000E+00 0. -1.
<scales pt_clust_5="13000.00000" pt_clust_6="13000.00000" pt_clust_7="13000.00000" pt_clust_8="13000.00000" pt_clust_9="34.86095"></scales>
<clustering>
<clus scale="   34.861">  1  9  2 -1</clus>
<clus scale="   76.044">  5  6 -1 -1</clus>
<clus scale="   84.035">  1  5  2 -1</clus>
<clus scale="   90.253">  7  8 -1 -1</clus>
<clus scale="   34.861">  1  5  2 -1</clus>
</clustering>
</event>
<event>
 9    2  0.3764910E-005  0.1080405E+03  0.7546771E-02  0.1269735E+00
         -3   -1    0    0    0  501 -0.00000000000E+00  0.00000000000E+00  0.21263776215E+03  0.21263776215E+03  0.00000000000E+00 0.  1.
         21   -1    0    0  501  502  0.00000000000E+00 -0.00000000000E+00 -0.11790254261E+03  0.11790254261E+03  0.00000000000E+00 0.  1.
         24    2    1    2    0    0 -0.53365347799E+02  0.33012694614E+02  0.15311736679E+03  0.18212939752E+03  0.76082133747E+02 0.  0.
         23    2    1    2    0    0  0.50065286045E+02 -0.13107595626E+02 -0.20520551001E+02  0.10550864805E+03  0.89624995788E+02 0.  0.
        -13    1    3    3    0    0 -0.22844189938E+02  0.10673672558E+02  0.13976124145E+03  0.14201756550E+03  0.00000000000E+00 0.  1.
         14    1    3    3    0    0 -0.30521157861E+02  0.22339022056E+02  0.13356125346E+02  0.40111832018E+02  0.00000000000E+00 0. -1.
        -11    1    4    4    0    0  0.73030086504E+01 -0.33067831250E+02  0.23302699075E+02  0.41107556278E+02  0.00000000000E+00 0. -1.
         11    1    4    4    0    0  0.42762277395E+02  0.19960235624E+02 -0.43823250076E+02  0.64401091772E+02  0.00000000000E+00 0.  1.
         -4    1    1    2    0  502  0.33000617539E+01 -0.19905098988E+02 -0.37861596250E+02  0.42902259193E+02  0.00000000000E+00 0.  1.
<scales pt_clust_5="13000.00000" pt_clust_6="13000.00000" pt_clust_7="13000.00000" pt_clust_8="13000.00000" pt_clust_9="20.17680"></scales>
<clustering>
<clus scale="   20.177">  2  9  1 -1</clus>
<clus scale="   76.082">  5  6 -1 -1</clus>
<clus scale="   89.625">  7  8 -1 -1</clus>
<clus scale="   97.101">  1  5  2 -1</clus>
<clus scale="   20.177">  2  5  1 -1</clus>
</clustering>
</event>
<event>
 9    2  0.3764910E-005  0.2116159E+03  0.7546771E-02  0.1151500E+00
          2   -1    0    0  502    0 -0.00000000000E+00  0.00000000000E+00  0.22649140360E+04  0.22649140360E+04  0.00000000000E+00 0. -1.
         21   -1    0    0  501  502  0.00000000000E+00 -0.00000000000E+00 -0.59480821561E+02  0.59480821561E+02  0.00000000000E+00 0. -1.
         23    2    1    2    0    0 -0.28985527919E+02 -0.13088101400E+03  0.31398177957E+03  0.35328696245E+03  0.90868692505E+02 0.  0.
         24    2    1    2    0    0  0.15154249653E+03  0.25842858467E+03  0.16030721852E+04  0.16328015473E+04  0.80311893367E+02 0.  0.
        -13    1    4    4    0    0 -0.31177504432E+01  0.40402975123E+02  0.15174828384E+03  0.15706579009E+03  0.00000000000E+00 0.  1.
         14    1    4    4    0    0  0.15466024697E+03  0.21802560955E+03  0.14513239014E+04  0.14757357572E+04  0.00000000000E+00 0. -1.
        -13    1    3    3    0    0 -0.51757123087E+02 -0.37224073364E+02  0.99918572439E+02  0.11852490264E+03  0.00000000000E+00 0.  1.
         13    1    3    3    0    0  0.22771595168E+02 -0.93656940633E+02  0.21406320714E+03  0.23476205981E+03  0.00000000000E+00 0. -1.
          1    1    1    2  501    0 -0.12255696861E+03 -0.12754757068E+03  0.28837924960E+03  0.33830634777E+03  0.00000000000E+00 0. -1.
<scales pt_clust_5="13000.00000" pt_clust_6="13000.00000" pt_clust_7="13000.00000" pt_clust_8="13000.00000" pt_clust_9="195.78377"></scales>
<clustering>
<clus scale="   80.312">  5  6 -1 -1</clus>
<clus scale="   90.869">  7  8 -1 -1</clus>
<clus scale="  161.948">  1  7  2 -1</clus>
<clus scale="  195.784">  2  9  1 -1</clus>
<clus scale="  195.784">  2  5  1 -1</clus>
</clustering>
</event>
<event>
 9    2  0.3764910E-005  0.9758515E+02  0.7546771E-02  0.1295465E+00
         21   -1    0    0  501  502  0.00000000000E+00  0.00000000000E+00  0.14577297662E+03  0.14577297662E+03  0.00000000000E+00 0. -1.
          2   -1    0    0  502    0 -0.00000000000E+00 -0.00000000000E+00 -0.77111393902E+02  0.77111393902E+02  0.00000000000E+00 0. -1.
         24    2    1    2    0    0 -0.13590611704E+02  0.27288712473E+02  0.91591456609E+01  0.84085184339E+02  0.77827050061E+02 0.  0.
         23    2    1    2    0    0  0.12701594924E+02 -0.37528175573E+00  0.57484559832E+02  0.11179557656E+03  0.95038439432E+02 0.  0.
        -11    1    3    3    0    0  0.16981613624E+02  0.20557932568E+02 -0.25838471403E+02  0.37129912432E+02  0.00000000000E+00 0.  1.
         12    1    3    3    0    0 -0.30572225329E+02  0.67307799060E+01  0.34997617064E+02  0.46955271907E+02  0.00000000000E+00 0. -1.
        -13    1    4    4    0    0 -0.35749535355E+01 -0.46672443612E+02  0.28119057360E+02  0.54605665204E+02  0.00000000000E+00 0.  1.
         13    1    4    4    0    0  0.16276548459E+02  0.46297161857E+02  0.29365502472E+02  0.57189911358E+02  0.00000000000E+00 0. -1.
          1    1    1    2  501    0  0.88901678050E+00 -0.26913430718E+02  0.20178772210E+01  0.27003609616E+02  0.00000000000E+00 0. -1.
<scales pt_clust_5="13000.00000" pt_clust_6="13000.00000" pt_clust_7="13000.00000" pt_clust_8="13000.00000" pt_clust_9="26.92812"></scales>
<clustering>
<clus scale="   26.928">  1  9  2 -1</clus>
<clus scale="   77.827">  5  6 -1 -1</clus>
<clus scale="   80.917">  2  5  1 -1</clus>
<clus scale="   95.038">  7  8 -1 -1</clus>
<clus scale="   26.928">  1  5  2 -1</clus>
</clustering>
</event>
<event>
 9    2  0.3764910E-005  0.1562187E+03  0.7546771E-02  0.1211249E+00
         21   -1    0    0  501  502  0.00000000000E+00  0.00000000000E+00  0.12610420151E+03  0.12610420151E+03  0.00000000000E+00 0. -1.
          2   -1    0    0  502    0 -0.00000000000E+00 -0.00000000000E+00 -0.50687060215E+03  0.50687060215E+03  0.00000000000E+00 0. -1.
         24    2    1    2    0    0  0.36313545697E+02  0.58006777787E+02 -0.11490307352E+03  0.15587152318E+03  0.80060949061E+02 0.  0.
         23    2    1    2    0    0 -0.11944488427E+03  0.40734674618E+02 -0.30475367672E+03  0.34229544255E+03  0.91460223166E+02 0.  0.
        -13    1    3    3    0    0  0.61635042197E+02  0.36847927169E+02 -0.85684270803E+02  0.11179643298E+03  0.00000000000E+00 0.  1.
         14    1    3    3    0    0 -0.25321496499E+02  0.21158850618E+02 -0.29218802716E+02  0.44075090205E+02  0.00000000000E+00 0. -1.
        -11    1    4    4    0    0 -0.19596000424E+02  0.51339472582E+02 -0.95047990217E+02  0.10979009574E+03  0.00000000000E+00 0.  1.
         11    1    4    4    0    0 -0.99848883845E+02 -0.10604797964E+02 -0.20970568650E+03  0.23250534681E+03  0.00000000000E+00 0. -1.
          1    1    1    2  501    0  0.83131338571E+02 -0.98741452404E+02  0.38890349592E+02  0.13480783793E+03  0.00000000000E+00 0. -1.
<scales pt_clust_5="13000.00000" pt_clust_6="13000.00000" pt_clust_7="13000.00000" pt_clust_8="13000.00000" pt_clust_9="126.64642"></scales>
<clustering>
<clus scale="   80.061">  5  6 -1 -1</clus>
<clus scale="   91.460">  7  8 -1 -1</clus>
<clus scale="  105.324">  2  5  1 -1</clus>
<clus scale="  126.646">  1  9  2 -1</clus>
<clus scale="  126.646">  1  5  2 -1</clus>
</clustering>
</event>
<event>
 9    2  0.3764910E-005  0.1071604E+03  0.7546771E-02  0.1274558E+00
         21   -1    0    0  501  502  0.00000000000E+00  0.00000000000E+00  0.44339949931E+03  0.44339949931E+03  0.00000000000E+00 0.  1.
          4   -1    0    0  502    0 -0.00000000000E+00 -0.00000000000E+00 -0.56082204347E+02  0.56082204347E+02  0.00000000000E+00 0. -1.
         24    2    1    2    0    0 -0.22213655082E+02  0.39709886571E+02  0.72507658860E+01  0.89554789259E+02  0.76793001698E+02 0.  0.
         23    2    1    2    0    0  0.51337450588E+02 -0.41626334349E+02  0.23802970672E+03  0.26492233812E+03  0.95694401136E+02 0.  0.
        -11    1    3    3    0    0  0.27591998559E+02  0.21056145945E+02  0.10526804188E+02  0.36269729431E+02  0.00000000000E+00 0.  1.
         12    1    3    3    0    0 -0.49805653641E+02  0.18653740625E+02 -0.32760383024E+01  0.53285059828E+02  0.00000000000E+00 0. -1.
        -11    1    4    4    0    0  0.45704882644E+02  0.16570939653E+02  0.16121941271E+03  0.16839011661E+03  0.00000000000E+00 0.  1.
         11    1    4    4    0    0  0.56325679442E+01 -0.58197274003E+02  0.76810294015E+02  0.96532221510E+02  0.00000000000E+00 0. -1.
          3    1    1    2  501    0 -0.29123795506E+02  0.19164477785E+01  0.14203682236E+03  0.14500457628E+03  0.00000000000E+00 0. -1.
<scales pt_clust_5="13000.00000" pt_clust_6="13000.00000" pt_clust_7="13000.00000" pt_clust_8="13000.00000" pt_clust_9="29.18678"></scales>
<clustering>
<clus scale="   29.187">  1  9  2 -1</clus>
<clus scale="   76.793">  5  6 -1 -1</clus>
<clus scale="   90.681">  2  5  1 -1</clus>
<clus scale="   95.694">  7  8 -1 -1</clus>
<clus scale="   29.187">  1  5  2 -1</clus>
</clustering>
</event>
<event>
 9    2  0.3764910E-005  0.1045543E+03  0.7546771E-02  0.1273650E+00
         -3   -1    0    0    0  501 -0.00000000000E+00  0.00000000000E+00  0.20068730925E+03  0.20068730925E+03  0.00000000000E+00 0.  1.
         21   -1    0    0  501  502  0.00000000000E+00 -0.00000000000E+00 -0.33749513730E+03  0.33749513730E+03  0.00000000000E+00 0. -1.
         23    2    1    2    0    0  0.21921412686E+02  0.48665285405E+02  0.15537334123E+03  0.18615776516E+03  0.87549871649E+02 0.  0.
         24    2    1    2    0    0 -0.22910520982E+02 -0.88153976229E+02 -0.10589803289E+03  0.16159952039E+03  0.81264974772E+02 0.  0.
        -11    1    4    4    0    0  0.23482437748E+02 -0.12943561657E+02 -0.46533035632E+01  0.27214222476E+02  0.00000000000E+00 0.  1.
         12    1    4    4    0    0 -0.46392958730E+02 -0.75210414573E+02 -0.10124472933E+03  0.13438529792E+03  0.00000000000E+00 0. -1.
        -13    1    3    3    0    0  0.46386199562E+02  0.52103484213E+02  0.14165194352E+03  0.15789783304E+03  0.00000000000E+00 0.  1.
         13    1    3    3    0    0 -0.24464786876E+02 -0.34381988085E+01  0.13721397711E+02  0.28259932114E+02  0.00000000000E+00 0. -1.
         -4    1    1    2    0  502  0.98910829657E+00  0.39488690825E+02 -0.18628313639E+03  0.19042516100E+03  0.00000000000E+00 0.  1.
<scales pt_clust_5="13000.00000" pt_clust_6="13000.00000" pt_clust_7="13000.00000" pt_clust_8="13000.00000" pt_clust_9="39.50108"></scales>
<clustering>
<clus scale="   39.501">  2  9  1 -1</clus>
<clus scale="   81.265">  5  6 -1 -1</clus>
<clus scale="   87.550">  7  8 -1 -1</clus>
<clus scale="   99.351">  2  5  1 -1</clus>
<clus scale="   39.501">  2  5  1 -1</clus>
</clustering>
</event>
<event>
 9    2  0.3764910E-005  0.1299181E+03  0.7546771E-02  0.1231330E+00
          2   -1    0    0  502    0 -0.00000000000E+00  0.00000000000E+00  0.88712875129E+03  0.88712875129E+03  0.00000000000E+00 0. -1.
         21   -1    0    0  501  502  0.00000000000E+00 -0.00000000000E+00 -0.25147879191E+02  0.25147879191E+02  0.00000000000E+00 0.  1.
         23    2    1    2    0    0 -0.92759581663E+02 -0.27151402800E+01  0.55299560336E+03  0.56870286590E+03  0.94905744639E+02 0.  0.
         24    2    1    2    0    0  0.78678287225E+02  0.30859890048E+02  0.22102704798E+03  0.25015503846E+03  0.81129412866E+02 0.  0.
        -11    1    4    4    0    0  0.65417101434E+02  0.57579107480E+02  0.15854318401E+03  0.18091625680E+03  0.00000000000E+00 0.  1.
         12    1    4    4    0    0  0.13261185791E+02 -0.26719217432E+02  0.62483863972E+02  0.69238781659E+02  0.00000000000E+00 0. -1.
        -13    1    3    3    0    0 -0.19273715819E+01 -0.33973080463E+02  0.99894494313E+02  0.10553101417E+03  0.00000000000E+00 0.  1.
         13    1    3    3    0    0 -0.90832210081E+02  0.31257940183E+02  0.45310110905E+03  0.46317185173E+03  0.00000000000E+00 0. -1.
          1    1    1    2  501    0  0.14081294439E+02 -0.28144749768E+02  0.87958220758E+02  0.93418726128E+02  0.00000000000E+00 0. -1.
<scales pt_clust_5="13000.00000" pt_clust_6="13000.00000" pt_clust_7="13000.00000" pt_clust_8="13000.00000" pt_clust_9="31.47078"></scales>
<clustering>
<clus scale="   31.471">  2  9  1 -1</clus>
<clus scale="   81.129">  5  6 -1 -1</clus>
<clus scale="   94.906">  7  8 -1 -1</clus>
<clus scale="  120.223">  2  5  1 -1</clus>
<clus scale="   31.471">  2  5  1 -1</clus>
</clustering>
</event>
<event>
 9    2  0.3764910E-005  0.9605732E+02  0.7546771E-02  0.1294600E+00
         -1   -1    0    0    0  501 -0.00000000000E+00  0.00000000000E+00  0.57413884223E+03  0.57413884223E+03  0.00000000000E+00 0.  1.
         21   -1    0    0  501  502  0.00000000000E+00 -0.00000000000E+00 -0.36898794884E+02  0.36898794884E+02  0.00000000000E+00 0. -1.
         24    2    1    2    0    0  0.93635520949E+01  0.34913427008E+02  0.43056213832E+03  0.43950340898E+03  0.80454136372E+02 0.  0.
         23    2    1    2    0    0 -0.17904066373E+02 -0.55556087181E+01  0.10606293498E+03  0.14095318707E+03  0.90923233489E+02 0.  0.
        -11    1    3    3    0    0 -0.22744460630E+02  0.44114567339E+02  0.17972645714E+03  0.18645376085E+03  0.00000000000E+00 0.  1.
         12    1    3    3    0    0  0.32108012725E+02 -0.92011403308E+01  0.25083568118E+03  0.25304964813E+03  0.00000000000E+00 0. -1.
        -13    1    4    4    0    0  0.96546870430E+01 -0.23531416105E+02 -0.42945947934E+01  0.25795039644E+02  0.00000000000E+00 0. -1.
         13    1    4    4    0    0 -0.27558753416E+02  0.17975807387E+02  0.11035752978E+03  0.11515814743E+03  0.00000000000E+00 0.  1.
         -2    1    1    2    0  502  0.85405142784E+01 -0.29357818290E+02  0.61497403945E+00  0.30581041054E+02  0.00000000000E+00 0.  1.
<scales pt_clust_5="13000.00000" pt_clust_6="13000.00000" pt_clust_7="13000.00000" pt_clust_8="13000.00000" pt_clust_9="30.57486"></scales>
<clustering>
<clus scale="   30.575">  2  9  1 -1</clus>
<clus scale="   80.454">  5  6 -1 -1</clus>
<clus scale="   86.214">  1  5  2 -1</clus>
<clus scale="   90.923">  7  8 -1 -1</clus>
<clus scale="   30.575">  2  5  1 -1</clus>
</clustering>
</event>
<event>
 9    2  0.3764910E-005  0.2687999E+03  0.7546771E-02  0.1137785E+00
         21   -1    0    0  501  502  0.00000000000E+00  0.00000000000E+00  0.46708531301E+03  0.46708531301E+03  0.00000000000E+00 0. -1.
          2   -1    0    0  502    0 -0.00000000000E+00 -0.00000000000E+00 -0.36211034128E+03  0.36211034128E+03  0.00000000000E+00 0. -1.
         23    2    1    2    0    0  0.27612639638E+02 -0.52541454956E+02  0.15985777011E+01  0.10971493554E+03  0.92259141949E+02 0.  0.
         24    2    1    2    0    0 -0.27891381030E+03  0.63966597959E+02 -0.17442876640E+03  0.34470275857E+03  0.80684310685E+02 0.  0.
        -13    1    4    4    0    0 -0.14123505479E+02  0.19937461869E+02 -0.33694688500E+02  0.41621002221E+02  0.00000000000E+00 0.  1.
         14    1    4    4    0    0 -0.26479030482E+03  0.44029136090E+02 -0.14073407790E+03  0.30308175635E+03  0.00000000000E+00 0. -1.
        -11    1    3    3    0    0  0.43717521027E+02 -0.69850090356E+02  0.13075946693E+02  0.83434028726E+02  0.00000000000E+00 0.  1.
         11    1    3    3    0    0 -0.16104881389E+02  0.17308635401E+02 -0.11477368992E+02  0.26280906814E+02  0.00000000000E+00 0. -1.
          1    1    1    2  501    0  0.25130117066E+03 -0.11425143004E+02  0.27780516043E+03  0.37477796017E+03  0.00000000000E+00 0. -1.
<scales pt_clust_5="13000.00000" pt_clust_6="13000.00000" pt_clust_7="13000.00000" pt_clust_8="13000.00000" pt_clust_9="256.40484"></scales>
<clustering>
<clus scale="   80.684">  5  6 -1 -1</clus>
<clus scale="   92.259">  7  8 -1 -1</clus>
<clus scale="  109.703">  2  7  1 -1</clus>
<clus scale="  256.405">  1  9  2 -1</clus>
<clus scale="  256.405">  1  5  2 -1</clus>
</clustering>
</event>
<event>
 9    2  0.3764910E-005  0.1192701E+03  0.7546771E-02  0.1248848E+00
         21   -1    0    0  501  502  0.00000000000E+00  0.00000000000E+00  0.97619556346E+02  0.97619556346E+02  0.00000000000E+00 0. -1.
         -3   -1    0    0    0  501 -0.00000000000E+00 -0.00000000000E+00 -0.22428146892E+03  0.22428146892E+03  0.00000000000E+00 0.  1.
         24    2    1    2    0    0 -0.52402181954E+02  0.51298810006E+02 -0.97615524698E+02  0.14441076156E+03  0.77124061162E+02 0.  0.
         23    2    1    2    0    0  0.76886733612E+02 -0.37361579769E+02 -0.57361540725E+02  0.13754670931E+03  0.91221123868E+02 0.  0.
        -11    1    3    3    0    0 -0.64897129898E+02  0.16824095896E+02 -0.46863870757E+02  0.81797983191E+02  0.00000000000E+00 0.  1.
         12    1    3    3    0    0  0.12494947944E+02  0.34474714110E+02 -0.50751653941E+02  0.62612778367E+02  0.00000000000E+00 0. -1.
        -11    1    4    4    0    0  0.78482411571E+02  0.78757204253E+01 -0.44152513966E+02  0.90393364733E+02  0.00000000000E+00 0. -1.
         11    1    4    4    0    0 -0.15956779594E+01 -0.45237300194E+02 -0.13209026759E+02  0.47153344578E+02  0.00000000000E+00 0.  1.
         -4    1    1    2    0  502 -0.24484551658E+02 -0.13937230237E+02  0.28315152852E+02  0.39943554393E+02  0.00000000000E+00 0.  1.
<scales pt_clust_5="13000.00000" pt_clust_6="13000.00000" pt_clust_7="13000.00000" pt_clust_8="13000.00000" pt_clust_9="28.17339"></scales>
<clustering>
<clus scale="   28.173">  1  9  2 -1</clus>
<clus scale="   77.124">  5  6 -1 -1</clus>
<clus scale="   91.221">  7  8 -1 -1</clus>
<clus scale="  108.868">  2  5  1 -1</clus>
<clus scale="   28.173">  1  5  2 -1</clus>
</clustering>
</event>
<event>
 9    2  0.3764910E-005  0.9751314E+02  0.7546771E-02  0.1290474E+00
          2   -1    0    0  502    0 -0.00000000000E+00  0.00000000000E+00  0.15638461969E+03  0.15638461969E+03  0.00000000000E+00 0. -1.
         21   -1    0    0  501  502  0.00000000000E+00 -0.00000000000E+00 -0.84907334663E+02  0.84907334663E+02  0.00000000000E+00 0. -1.
         24    2    1    2    0    0 -0.32959684306E+02  0.20617713753E+02  0.39746418125E+02  0.98897399682E+02  0.81789284139E+02 0.  0.
         23    2    1    2    0    0  0.69012558725E+01 -0.35899485691E+02 -0.73347214401E+00  0.98049232983E+02  0.90976445862E+02 0.  0.
        -13    1    3    3    0    0  0.12789287786E+02 -0.17368214569E+02  0.32483185939E+02  0.38992026469E+02  0.00000000000E+00 0.  1.
         14    1    3    3    0    0 -0.45748972092E+02  0.37985928322E+02  0.72632321862E+01  0.59905373213E+02  0.00000000000E+00 0. -1.
        -11    1    4    4    0    0  0.28467224089E+02 -0.13777461057E+02  0.37394922229E+02  0.48975315099E+02  0.00000000000E+00 0.  1.
         11    1    4    4    0    0 -0.21565968217E+02 -0.22122024634E+02 -0.38128394373E+02  0.49073917884E+02  0.00000000000E+00 0. -1.
          1    1    1    2  501    0  0.26058428434E+02  0.15281771937E+02  0.32464339046E+02  0.44345321689E+02  0.00000000000E+00 0. -1.
<scales pt_clust_5="13000.00000" pt_clust_6="13000.00000" pt_clust_7="13000.00000" pt_clust_8="13000.00000" pt_clust_9="30.20886"></scales>
<clustering>
<clus scale="   30.209">  2  9  1 -1</clus>
<clus scale="   81.789">  5  6 -1 -1</clus>
<clus scale="   89.003">  1  5  2 -1</clus>
<clus scale="   90.976">  7  8 -1 -1</clus>
<clus scale="   30.209">  2  5  1 -1</clus>
</clustering>
</event>
<event>
 9    2  0.3764910E-005  0.9566234E+02  0.7546771E-02  0.1294288E+00
         21   -1    0    0  501  502  0.00000000000E+00  0.00000000000E+00  0.54670991254E+02  0.54670991254E+02  0.00000000000E+00 0. -1.
          2   -1    0    0  502    0 -0.00000000000E+00 -0.00000000000E+00 -0.28195199646E+03  0.28195199646E+03  0.00000000000E+00 0. -1.
         24    2    1    2    0    0  0.33526799123E+02  0.39304549790E+02 -0.14617957889E+03  0.17472171455E+03  0.80562487281E+02 0.  0.
         23    2    1    2    0    0 -0.13413319659E+02  0.62091385544E+01 -0.54784029097E+02  0.10561048103E+03  0.89071955818E+02 0.  0.
        -11    1    3    3    0    0  0.40986346738E+02 -0.10056815483E+02 -0.43821947174E+02  0.60838994162E+02  0.00000000000E+00 0.  1.
         12    1    3    3    0    0 -0.74595476147E+01  0.49361365273E+02 -0.10235763172E+03  0.11388272039E+03  0.00000000000E+00 0. -1.
        -13    1    4    4    0    0 -0.26671148592E+02  0.42472395404E+02 -0.21243460137E+02  0.54465944747E+02  0.00000000000E+00 0. -1.
         13    1    4    4    0    0  0.13257828933E+02 -0.36263256850E+02 -0.33540568961E+02  0.51144536283E+02  0.00000000000E+00 0.  1.
          1    1    1    2  501    0 -0.20113479464E+02 -0.45513688345E+02 -0.26317397218E+02  0.56290792135E+02  0.00000000000E+00 0. -1.
<scales pt_clust_5="13000.00000" pt_clust_6="13000.00000" pt_clust_7="13000.00000" pt_clust_8="13000.00000" pt_clust_9="49.75990"></scales>
<clustering>
<clus scale="   49.760">  1  9  2 -1</clus>
<clus scale="   80.562">  5  6 -1 -1</clus>
<clus scale="   87.794">  2  5  1 -1</clus>
<clus scale="   89.072">  7  8 -1 -1</clus>
<clus scale="   49.760">  1  5  2 -1</clus>
</clustering>
</event>
<event>
 9    2  0.3764910E-005  0.1158823E+03  0.7546771E-02  0.1254243E+00
         21   -1    0    0  501  502  0.00000000000E+00  0.00000000000E+00  0.18599769840E+03  0.18599769840E+03  0.00000000000E+00 0.  1.
          2   -1    0    0  502    0 -0.00000000000E+00 -0.00000000000E+00 -0.10704613134E+03  0.10704613134E+03  0.00000000000E+00 0. -1.
         24    2    1    2    0    0 -0.28794346709E+01 -0.90876329553E+02  0.94012663811E+01  0.12124059223E+03  0.79649852343E+02 0.  0.
         23    2    1    2    0    0 -0.13689343216E+02  0.42376717688E+02  0.63724742793E+02  0.12022151714E+03  0.91701614057E+02 0.  0.
        -13    1    3    3    0    0 -0.91812463225E+01 -0.45063607091E+02 -0.34488469998E+02  0.57484593857E+02  0.00000000000E+00 0.  1.
         14    1    3    3    0    0  0.63018116515E+01 -0.45812722462E+02  0.43889736379E+02  0.63755998376E+02  0.00000000000E+00 0. -1.
        -11    1    4    4    0    0 -0.34338295760E+02  0.30190603264E+01 -0.84207676132E+01  0.35484399504E+02  0.00000000000E+00 0. -1.
         11    1    4    4    0    0  0.20648952544E+02  0.39357657361E+02  0.72145510407E+02  0.84737117640E+02  0.00000000000E+00 0.  1.
          1    1    1    2  501    0  0.16568777887E+02  0.48499611865E+02  0.58255578863E+01  0.51581720371E+02  0.00000000000E+00 0. -1.
<scales pt_clust_5="13000.00000" pt_clust_6="13000.00000" pt_clust_7="13000.00000" pt_clust_8="13000.00000" pt_clust_9="51.25173"></scales>
<clustering>
<clus scale="   51.252">  1  9  2 -1</clus>
<clus scale="   79.650">  5  6 -1 -1</clus>
<clus scale="   91.702">  7  8 -1 -1</clus>
<clus scale="  106.600">  2  5  1 -1</clus>
<clus scale="   51.252">  1  5  2 -1</clus>
</clustering>
</event>
<event>
 9    2  0.3764910E-005  0.1063751E+03  0.7546771E-02  0.1272572E+00
         21   -1    0    0  501  502  0.00000000000E+00  0.00000000000E+00  0.36325984475E+02  0.36325984475E+02  0.00000000000E+00 0. -1.
          2   -1    0    0  502    0 -0.00000000000E+00 -0.00000000000E+00 -0.78700338838E+03  0.78700338838E+03  0.00000000000E+00 0. -1.
         24    2    1    2    0    0 -0.21382116760E+02  0.23221553143E+02 -0.27613361509E+03  0.28901988971E+03  0.79286113634E+02 0.  0.
         23    2    1    2    0    0  0.86161760366E+01 -0.10499457451E+03 -0.39754456906E+03  0.42126667662E+03  0.91245982220E+02 0.  0.
        -11    1    3    3    0    0  0.11934989097E+01  0.28538030006E+02 -0.28663450976E+02  0.40465256926E+02  0.00000000000E+00 0.  1.
         12    1    3    3    0    0 -0.22575615670E+02 -0.53164768632E+01 -0.24747016412E+03  0.24855463278E+03  0.00000000000E+00 0. -1.
        -13    1    4    4    0    0 -0.24980524089E+02 -0.37512176085E+01 -0.33756886787E+02  0.42161897761E+02  0.00000000000E+00 0.  1.
         13    1    4    4    0    0  0.33596700126E+02 -0.10124335690E+03 -0.36378768227E+03  0.37910477886E+03  0.00000000000E+00 0. -1.
          1    1    1    2  501    0  0.12765940723E+02  0.81773021367E+02 -0.76999219753E+02  0.11304280653E+03  0.00000000000E+00 0. -1.
<scales pt_clust_5="13000.00000" pt_clust_6="13000.00000" pt_clust_7="13000.00000" pt_clust_8="13000.00000" pt_clust_9="82.76350"></scales>
<clustering>
<clus scale="   79.286">  5  6 -1 -1</clus>
<clus scale="   82.763">  1  9  2 -1</clus>
<clus scale="   91.246">  7  8 -1 -1</clus>
<clus scale="   96.313">  2  5  1 -1</clus>
<clus scale="   82.763">  1  5  2 -1</clus>
</clustering>
</event>
<event>
 9    2  0.3764910E-005  0.2027655E+03  0.7546771E-02  0.1148423E+00
          2   -1    0    0  502    0 -0.00000000000E+00  0.00000000000E+00  0.77336239505E+03  0.77336239505E+03  0.00000000000E+00 0. -1.
         21   -1    0    0  501  502  0.00000000000E+00 -0.00000000000E+00 -0.97773281063E+02  0.97773281063E+02  0.00000000000E+00 0. -1.
         24    2    1    2    0    0  0.83187904560E+02  0.17483184061E+03  0.42541308447E+03  0.47422064018E+03  0.80140646274E+02 0.  0.
         23    2    1    2    0    0 -0.12764204675E+03 -0.99388154226E+02  0.73527853588E+02  0.19975393776E+03  0.91240304125E+02 0.  0.
        -13    1    3    3    0    0  0.77750223300E+02  0.95430684911E+02  0.19654624482E+03  0.23191062761E+03  0.00000000000E+00 0.  1.
         14    1    3    3    0    0  0.54376812598E+01  0.79401155696E+02  0.22886683964E+03  0.24231001257E+03  0.00000000000E+00 0. -1.
        -13    1    4    4    0    0 -0.93828851212E+02 -0.62549749258E+02  0.92923412997E+02  0.14612010517E+03  0.00000000000E+00 0.  1.
         13    1    4    4    0    0 -0.33813195538E+02 -0.36838404969E+02 -0.19395559408E+02  0.53633832587E+02  0.00000000000E+00 0. -1.
          1    1    1    2  501    0  0.44454142190E+02 -0.75443686381E+02  0.17664817594E+03  0.19716109818E+03  0.00000000000E+00 0. -1.
<scales pt_clust_5="13000.00000" pt_clust_6="13000.00000" pt_clust_7="13000.00000" pt_clust_8="13000.00000" pt_clust_9="87.56671"></scales>
<clustering>
<clus scale="   80.141">  5  6 -1 -1</clus>
<clus scale="   87.567">  2  9  1 -1</clus>
<clus scale="   91.240">  7  8 -1 -1</clus>
<clus scale="  198.019">  1  5  2 -1</clus>
<clus scale="   87.567">  2  5  1 -1</clus>
</clustering>
</event>
<event>
 9    2  0.3764910E-005  0.9625036E+02  0.7546771E-02  0.1290219E+00
         21   -1    0    0  501  502  0.00000000000E+00  0.00000000000E+00  0.96408210549E+02  0.96408210549E+02  0.00000000000E+00 0.  1.
         -1   -1    0    0    0  501 -0.00000000000E+00 -0.00000000000E+00 -0.13042607733E+03  0.13042607733E+03  0.00000000000E+00 0.  1.
         24    2    1    2    0    0  0.91624640921E+01 -0.55300673636E+02 -0.20634602054E+02  0.10174012725E+03  0.82359889738E+02 0.  0.
         23    2    1    2    0    0  0.69182241049E+01  0.29302160957E+02  0.13840296356E+01  0.91144430479E+02  0.86016935587E+02 0.  0.
        -13    1    3    3    0    0 -0.31426103985E+02 -0.48954374196E+02 -0.16399633290E+02  0.60440704303E+02  0.00000000000E+00 0.  1.
         14    1    3    3    0    0  0.40588568077E+02 -0.63462994407E+01 -0.42349687639E+01  0.41299422945E+02  0.00000000000E+00 0. -1.
        -13    1    4    4    0    0  0.24817748778E+02  0.39061318722E+02  0.30627819038E+02  0.55495680677E+02  0.00000000000E+00 0.  1.
         13    1    4    4    0    0 -0.17899524673E+02 -0.97591577656E+01 -0.29243789403E+02  0.35648749802E+02  0.00000000000E+00 0. -1.
         -2    1    1    2    0  502 -0.16080688197E+02  0.25998512680E+02 -0.14767294359E+02  0.33949730148E+02  0.00000000000E+00 0.  1.
<scales pt_clust_5="13000.00000" pt_clust_6="13000.00000" pt_clust_7="13000.00000" pt_clust_8="13000.00000" pt_clust_9="30.56979"></scales>
<clustering>
<clus scale="   30.570">  1  9  2 -1</clus>
<clus scale="   82.360">  5  6 -1 -1</clus>
<clus scale="   86.017">  7  8 -1 -1</clus>
<clus scale="   92.997">  2  5  1 -1</clus>
<clus scale="   30.570">  1  5  2 -1</clus>
</clustering>
</event>
<event>
 9    2  0.3764910E-005  0.1571666E+03  0.7546771E-02  0.1205057E+00
         -1   -1    0    0    0  501 -0.00000000000E+00  0.00000000000E+00  0.36191566357E+03  0.36191566357E+03  0.00000000000E+00 0.  1.
         21   -1    0    0  501  502  0.00000000000E+00 -0.00000000000E+00 -0.40400665209E+03  0.40400665209E+03  0.00000000000E+00 0.  1.
         23    2    1    2    0    0 -0.69732237476E+02  0.16873470591E+02  0.21100286071E+03  0.24180471524E+03  0.93808390512E+02 0.  0.
         24    2    1    2    0    0  0.12629555783E+03 -0.13355255524E+03  0.38762359682E+02  0.20475344356E+03  0.81453048959E+02 0.  0.
        -11    1    4    4    0    0  0.75871735324E+02 -0.32663895760E+02  0.40398638123E+02  0.91953794209E+02  0.00000000000E+00 0.  1.
         12    1    4    4    0    0  0.50423822509E+02 -0.10088865948E+03 -0.16362784414E+01  0.11279964936E+03  0.00000000000E+00 0. -1.
        -13    1    3    3    0    0 -0.14597114848E+02 -0.37755287867E+02  0.71350115978E+02  0.82032777436E+02  0.00000000000E+00 0.  1.
         13    1    3    3    0    0 -0.55135122629E+02  0.54628758458E+02  0.13965274474E+03  0.15977193781E+03  0.00000000000E+00 0. -1.
         -2    1    1    2    0  502 -0.56563320357E+02  0.11667908465E+03 -0.29185620892E+03  0.31936415686E+03  0.00000000000E+00 0.  1.
<scales pt_clust_5="13000.00000" pt_clust_6="13000.00000" pt_clust_7="13000.00000" pt_clust_8="13000.00000" pt_clust_9="134.41263"></scales>
<clustering>
<clus scale="   81.453">  5  6 -1 -1</clus>
<clus scale="   93.808">  7  8 -1 -1</clus>
<clus scale="  118.099">  1  7  2 -1</clus>
<clus scale="  134.413">  2  9  1 -1</clus>
<clus scale="  134.413">  2  5  1 -1</clus>
</clustering>
</event>
<event>
 9    2  0.3764910E-005  0.9437611E+02  0.7546771E-02  0.1298300E+00
         -1   -1    0    0    0  501 -0.00000000000E+00  0.00000000000E+00  0.22814157122E+03  0.22814157122E+03  0.00000000000E+00 0.  1.
         21   -1    0    0  501  502  0.00000000000E+00 -0.00000000000E+00 -0.55863790236E+02  0.55863790236E+02  0.00000000000E+00 0.  1.
         23    2    1    2    0    0 -0.31568857112E+02  0.38649787443E+01  0.12064269178E+03  0.15417894791E+03  0.90581223767E+02 0.  0.
         24    2    1    2    0    0  0.19202958254E+02  0.15046471913E+02  0.62360010454E+02  0.10481476914E+03  0.80636313178E+02 0.  0.
        -11    1    4    4    0    0  0.15751375988E+02  0.39607729308E+02  0.57515327850E+01  0.43011140369E+02  0.00000000000E+00 0.  1.
         12    1    4    4    0    0  0.34515822665E+01 -0.24561257396E+02  0.56608477669E+02  0.61803628769E+02  0.00000000000E+00 0. -1.
        -13    1    3    3    0    0 -0.11749217748E+02 -0.26089141165E+02  0.11414739141E+03  0.11767886118E+03  0.00000000000E+00 0.  1.
         13    1    3    3    0    0 -0.19819639363E+02  0.29954119909E+02  0.64953003684E+01  0.36500086724E+02  0.00000000000E+00 0. -1.
         -2    1    1    2    0  502  0.12365898857E+02 -0.18911450657E+02 -0.10724921244E+02  0.25011644412E+02  0.00000000000E+00 0.  1.
<scales pt_clust_5="13000.00000" pt_clust_6="13000.00000" pt_clust_7="13000.00000" pt_clust_8="13000.00000" pt_clust_9="22.59554"></scales>
<clustering>
<clus scale="   22.596">  2  9  1 -1</clus>
<clus scale="   80.636">  5  6 -1 -1</clus>
<clus scale="   84.877">  2  5  1 -1</clus>
<clus scale="   90.581">  7  8 -1 -1</clus>
<clus scale="   22.596">  2  5  1 -1</clus>
</clustering>
</event>
<event>
 9    2  0.3764910E-005  0.1200151E+03  0.7546771E-02  0.1246465E+00
          2   -1    0    0  502    0 -0.00000000000E+00  0.00000000000E+00  0.17856285895E+03  0.17856285895E+03  0.00000000000E+00 0. -1.
         21   -1    0    0  501  502  0.00000000000E+00 -0.00000000000E+00 -0.35801743967E+03  0.35801743967E+03  0.00000000000E+00 0.  1.
         23    2    1    2    0    0 -0.67234414125E+02 -0.43461061118E+02  0.14498129309E+03  0.18875323282E+03  0.90547651987E+02 0.  0.
         24    2    1    2    0    0  0.53903783994E+02  0.28382262223E+02 -0.29901308569E+03  0.31540185906E+03  0.79739178238E+02 0.  0.
        -11    1    4    4    0    0  0.55968124097E+02 -0.39178755717E+01 -0.25299599856E+03  0.25914234689E+03  0.00000000000E+00 0.  1.
         12    1    4    4    0    0 -0.20643401030E+01  0.32300137795E+02 -0.46017087131E+02  0.56259512170E+02  0.00000000000E+00 0. -1.
        -11    1    3    3    0    0 -0.47556157060E+02  0.40991369549E+01  0.16764032154E+02  0.50590747891E+02  0.00000000000E+00 0.  1.
         11    1    3    3    0    0 -0.19678257065E+02 -0.47560198073E+02  0.12821726093E+03  0.13816248493E+03  0.00000000000E+00 0. -1.
          1    1    1    2  501    0  0.13330630131E+02  0.15078798895E+02 -0.25422788123E+02  0.32425206734E+02  0.00000000000E+00 0. -1.
<scales pt_clust_5="13000.00000" pt_clust_6="13000.00000" pt_clust_7="13000.00000" pt_clust_8="13000.00000" pt_clust_9="20.12650"></scales>
<clustering>
<clus scale="   20.126">  2  9  1 -1</clus>
<clus scale="   79.739">  5  6 -1 -1</clus>
<clus scale="   90.548">  7  8 -1 -1</clus>
<clus scale="  112.085">  2  5  1 -1</clus>
<clus scale="   20.126">  2  5  1 -1</clus>
</clustering>
</event>
<event>
 9    2  0.3764910E-005  0.2002346E+03  0.7546771E-02  0.1150694E+00
          2   -1    0    0  502    0 -0.00000000000E+00  0.00000000000E+00  0.42338738377E+03  0.42338738377E+03  0.00000000000E+00 0. -1.
         21   -1    0    0  501  502  0.00000000000E+00 -0.00000000000E+00 -0.23315744597E+03  0.23315744597E+03  0.00000000000E+00 0. -1.
         24    2    1    2    0    0 -0.29371565094E+02  0.15642602410E+03  0.18356009657E+03  0.25582478142E+03  0.80126274614E+02 0.  0.
         23    2    1    2    0    0  0.46752581420E+02 -0.20695867103E+03  0.13060304504E+03  0.26575676760E+03  0.92475990224E+02 0.  0.
        -11    1    3    3    0    0  0.89857152915E+01  0.76543896954E+02  0.39272900595E+02  0.86498970868E+02  0.00000000000E+00 0.  1.
         12    1    3    3    0    0 -0.38357280386E+02  0.79882127142E+02  0.14428719598E+03  0.16932581055E+03  0.00000000000E+00 0. -1.
        -11    1    4    4    0    0  0.42238495335E+02 -0.10044375021E+03  0.17555938140E+02  0.11036869306E+03  0.00000000000E+00 0.  1.
         11    1    4    4    0    0  0.45140860848E+01 -0.10651492083E+03  0.11304710690E+03  0.15538807454E+03  0.00000000000E+00 0. -1.
          1    1    1    2  501    0 -0.17381016325E+02  0.50532646939E+02 -0.12393320381E+03  0.13496328072E+03  0.00000000000E+00 0. -1.
<scales pt_clust_5="13000.00000" pt_clust_6="13000.00000" pt_clust_7="13000.00000" pt_clust_8="13000.00000" pt_clust_9="53.43826"></scales>
<clustering>
<clus scale="   53.438">  2  9  1 -1</clus>
<clus scale="   80.126">  5  6 -1 -1</clus>
<clus scale="   92.476">  7  8 -1 -1</clus>
<clus scale="  194.839">  1  5  2 -1</clus>
<clus scale="   53.438">  2  5  1 -1</clus>
</clustering>
</event>
<event>
 9    2  0.3764910E-005  0.2982781E+03  0.7546771E-02  0.1121672E+00
         21   -1    0    0  501  502  0.00000000000E+00  0.00000000000E+00  0.10126457351E+03  0.10126457351E+03  0.00000000000E+00 0.  1.
          2   -1    0    0  502    0 -0.00000000000E+00 -0.00000000000E+00 -0.14556631131E+04  0.14556631131E+04  0.00000000000E+00 0. -1.
         23    2    1    2    0    0 -0.62830242105E+01  0.76672460515E+02 -0.43867621784E+03  0.45460597132E+03  0.91168100066E+02 0.  0.
         24    2    1    2    0    0 -0.10995482600E+03 -0.29353683867E+03 -0.30686065008E+03  0.44562244502E+03  0.78498188009E+02 0.  0.
        -13    1    4    4    0    0 -0.99591678160E+02 -0.15815981818E+03 -0.18937811015E+03  0.26607724264E+03  0.00000000000E+00 0.  1.
         14    1    4    4    0    0 -0.10363147838E+02 -0.13537702049E+03 -0.11748253992E+03  0.17954520238E+03  0.00000000000E+00 0. -1.
        -13    1    3    3    0    0  0.24684822974E+02 -0.10452197018E+02 -0.95386771636E+02  0.99081911119E+02  0.00000000000E+00 0.  1.
         13    1    3    3    0    0 -0.30967847184E+02  0.87124657533E+02 -0.34328944620E+03  0.35552406020E+03  0.00000000000E+00 0. -1.
          1    1    1    2  501    0  0.11623785021E+03  0.21686437816E+03 -0.60886167167E+03  0.65669927026E+03  0.00000000000E+00 0. -1.
<scales pt_clust_5="13000.00000" pt_clust_6="13000.00000" pt_clust_7="13000.00000" pt_clust_8="13000.00000" pt_clust_9="287.76374"></scales>
<clustering>
<clus scale="   78.498">  5  6 -1 -1</clus>
<clus scale="   91.168">  7  8 -1 -1</clus>
<clus scale="  119.289">  2  7  1 -1</clus>
<clus scale="  287.764">  1  9  2 -1</clus>
<clus scale="  287.764">  1  5  2 -1</clus>
</clustering>
</event>
<event>
 9    2  0.3764910E-005  0.6537408E+03  0.7546771E-02  0.1031856E+00
         21   -1    0    0  501  502  0.00000000000E+00  0.00000000000E+00  0.15500505290E+04  0.15500505290E+04  0.00000000000E+00 0.  1.
         -3   -1    0    0    0  501 -0.00000000000E+00 -0.00000000000E+00 -0.39442764085E+03  0.39442764085E+03  0.00000000000E+00 0.  1.
         23    2    1    2    0    0 -0.95299147385E+02  0.33021662441E+01 -0.20600453998E+02  0.13144130104E+03  0.88088620834E+02 0.  0.
         24    2    1    2    0    0 -0.61406538215E+03 -0.56210023069E+02  0.78427812594E+03  0.10008679642E+04  0.80053998839E+02 0.  0.
        -11    1    4    4    0    0 -0.52748384482E+03 -0.74950941126E+02  0.68522255812E+03  0.86797857363E+03  0.00000000000E+00 0.  1.
         12    1    4    4    0    0 -0.86581537338E+02  0.18740918058E+02  0.99055567815E+02  0.13288939059E+03  0.00000000000E+00 0. -1.
        -11    1    3    3    0    0 -0.21609351311E+02  0.39858868520E+02  0.41762222011E+01  0.45531684524E+02  0.00000000000E+00 0. -1.
         11    1    3    3    0    0 -0.73689796074E+02 -0.36556702276E+02 -0.24776676199E+02  0.85909616517E+02  0.00000000000E+00 0.  1.
         -4    1    1    2    0  502  0.70936452954E+03  0.52907856824E+02  0.39194521622E+03  0.81216890460E+03  0.00000000000E+00 0.  1.
<scales pt_clust_5="13000.00000" pt_clust_6="13000.00000" pt_clust_7="13000.00000" pt_clust_8="13000.00000" pt_clust_9="648.82113"></scales>
<clustering>
<clus scale="   80.054">  5  6 -1 -1</clus>
<clus scale="   88.089">  7  8 -1 -1</clus>
<clus scale="  129.817">  2  7  1 -1</clus>
<clus scale="  648.821">  1  9  2 -1</clus>
<clus scale="  648.821">  1  5  2 -1</clus>
</clustering>
</event>
<event>
 9    2  0.3764910E-005  0.9816716E+02  0.7546771E-02  0.1289123E+00
          2   -1    0    0  502    0 -0.00000000000E+00  0.00000000000E+00  0.41274374695E+03  0.41274374695E+03  0.00000000000E+00 0. -1.
         21   -1    0    0  501  502  0.00000000000E+00 -0.00000000000E+00 -0.33796307335E+02  0.33796307335E+02  0.00000000000E+00 0.  1.
         23    2    1    2    0    0 -0.20189583539E+02 -0.40283047657E+02  0.21126676388E+03  0.23472932841E+03  0.91836097942E+02 0.  0.
         24    2    1    2    0    0  0.25900246966E+02  0.48101188356E+01  0.83511609356E+02  0.12029366686E+03  0.82476768560E+02 0.  0.
        -13    1    4    4    0    0  0.50127705304E+02 -0.16835730475E+02  0.41698933994E+02  0.67342629559E+02  0.00000000000E+00 0.  1.
         14    1    4    4    0    0 -0.24227458337E+02  0.21645849310E+02  0.41812675362E+02  0.52951037297E+02  0.00000000000E+00 0. -1.
        -13    1    3    3    0    0 -0.34043556062E+02 -0.64056415050E+02  0.17303544269E+03  0.18762583097E+03  0.00000000000E+00 0. -1.
         13    1    3    3    0    0  0.13853972523E+02  0.23773367393E+02  0.38231321182E+02  0.47103497441E+02  0.00000000000E+00 0.  1.
          1    1    1    2  501    0 -0.57106634274E+01  0.35472928821E+02  0.84169066385E+02  0.91517059022E+02  0.00000000000E+00 0. -1.
<scales pt_clust_5="13000.00000" pt_clust_6="13000.00000" pt_clust_7="13000.00000" pt_clust_8="13000.00000" pt_clust_9="35.92968"></scales>
<clustering>
<clus scale="   35.930">  2  9  1 -1</clus>
<clus scale="   82.477">  5  6 -1 -1</clus>
<clus scale="   89.473">  2  5  1 -1</clus>
<clus scale="   91.836">  7  8 -1 -1</clus>
<clus scale="   35.930">  2  5  1 -1</clus>
</clustering>
</event>
<event>
 9    2  0.3764910E-005  0.1067380E+03  0.7546771E-02  0.1286509E+00
         21   -1    0    0  501  502  0.00000000000E+00  0.00000000000E+00  0.30111634764E+03  0.30111634764E+03  0.00000000000E+00 0.  1.
         -3   -1    0    0    0  501 -0.00000000000E+00 -0.00000000000E+00 -0.80609012475E+02  0.80609012475E+02  0.00000000000E+00 0.  1.
         24    2    1    2    0    0 -0.34855858942E+01 -0.22573316109E+02  0.29424071417E+02  0.78808419322E+02  0.69449888899E+02 0.  0.
         23    2    1    2    0    0 -0.44542842871E+02 -0.32949444446E+02  0.20313516053E+03  0.22852100592E+03  0.88815685339E+02 0.  0.
        -11    1    3    3    0    0 -0.20001848568E+02 -0.12352884460E+02 -0.16649974841E+02  0.28807800382E+02  0.00000000000E+00 0.  1.
         12    1    3    3    0    0  0.16516262674E+02 -0.10220431649E+02  0.46074046258E+02  0.50000618940E+02  0.00000000000E+00 0. -1.
        -11    1    4    4    0    0 -0.97388535431E+01 -0.20430198033E+02  0.60459889168E+00  0.22640755284E+02  0.00000000000E+00 0. -1.
         11    1    4    4    0    0 -0.34803989328E+02 -0.12519246413E+02  0.20253056164E+03  0.20588025064E+03  0.00000000000E+00 0.  1.
         -4    1    1    2    0  502  0.48028428765E+02  0.55522760554E+02 -0.12051896784E+02  0.74395934871E+02  0.00000000000E+00 0.  1.
<scales pt_clust_5="13000.00000" pt_clust_6="13000.00000" pt_clust_7="13000.00000" pt_clust_8="13000.00000" pt_clust_9="59.20112"></scales>
<clustering>
<clus scale="   69.450">  5  6 -1 -1</clus>
<clus scale="   73.109">  2  5  1 -1</clus>
<clus scale="   59.201">  1  9  2 -1</clus>
<clus scale="   88.816">  7  8 -1 -1</clus>
<clus scale="   59.201">  1  5  2 -1</clus>
</clustering>
</event>
<event>
 9    2  0.3764910E-005  0.1414725E+03  0.7546771E-02  0.1228246E+00
         21   -1    0    0  501  502  0.00000000000E+00  0.00000000000E+00  0.39843252883E+02  0.39843252883E+02  0.00000000000E+00 0. -1.
          2   -1    0    0  502    0 -0.00000000000E+00 -0.00000000000E+00 -0.15805687987E+04  0.15805687987E+04  0.00000000000E+00 0. -1.
         23    2    1    2    0    0  0.29676924914E+02 -0.24921648183E+02 -0.14298926237E+03  0.17404821330E+03  0.91351206785E+02 0.  0.
         24    2    1    2    0    0 -0.59728748529E+02 -0.90330163280E+02 -0.12472371640E+04  0.12544365679E+04  0.79268517496E+02 0.  0.
        -11    1    4    4    0    0  0.16590676916E+02 -0.15863030298E+02 -0.12062614541E+03  0.12279068876E+03  0.00000000000E+00 0.  1.
         12    1    4    4    0    0 -0.76319425445E+02 -0.74467132982E+02 -0.11266110186E+04  0.11316458792E+04  0.00000000000E+00 0. -1.
        -11    1    3    3    0    0 -0.10501576884E+02 -0.49718431976E+02 -0.60565004259E+02  0.79058999084E+02  0.00000000000E+00 0. -1.
         11    1    3    3    0    0  0.40178501798E+02  0.24796783793E+02 -0.82424258109E+02  0.94989214220E+02  0.00000000000E+00 0.  1.
          1    1    1    2  501    0  0.30051823616E+02  0.11525181146E+03 -0.15049911938E+03  0.19192727029E+03  0.00000000000E+00 0. -1.
<scales pt_clust_5="13000.00000" pt_clust_6="13000.00000" pt_clust_7="13000.00000" pt_clust_8="13000.00000" pt_clust_9="117.17927"></scales>
<clustering>
<clus scale="   79.269">  5  6 -1 -1</clus>
<clus scale="   91.351">  7  8 -1 -1</clus>
<clus scale="   99.231">  2  7  1 -1</clus>
<clus scale="  117.179">  1  9  2 -1</clus>
<clus scale="  117.179">  1  5  2 -1</clus>
</clustering>
</event>
<event>
 9    2  0.3764910E-005  0.1133066E+03  0.7546771E-02  0.1258647E+00
         21   -1    0    0  501  502  0.00000000000E+00  0.00000000000E+00  0.35318413817E+03  0.35318413817E+03  0.00000000000E+00 0.  1.
          2   -1    0    0  502    0 -0.00000000000E+00 -0.00000000000E+00 -0.82284490119E+02  0.82284490119E+02  0.00000000000E+00 0. -1.
         23    2    1    2    0    0 -0.52071612053E+02 -0.30055205782E+02 -0.75744884333E+01  0.10968472181E+03  0.91425363812E+02 0.  0.
         24    2    1    2    0    0  0.76764000981E+02  0.43525220157E+02  0.13755246584E+03  0.18208257518E+03  0.80288396982E+02 0.  0.
        -11    1    4    4    0    0  0.75075942597E+02  0.20077462585E+02  0.13821467545E+03  0.15856480748E+03  0.00000000000E+00 0.  1.
         12    1    4    4    0    0  0.16880583836E+01  0.23447757572E+02 -0.66220960839E+00  0.23517767705E+02  0.00000000000E+00 0. -1.
        -13    1    3    3    0    0 -0.60702084361E+02 -0.51530141463E+02 -0.21753073761E+02  0.82542684370E+02  0.00000000000E+00 0. -1.
         13    1    3    3    0    0  0.86304723081E+01  0.21474935681E+02  0.14178585328E+02  0.27142037445E+02  0.00000000000E+00 0.  1.
          1    1    1    2  501    0 -0.24692388928E+02 -0.13470014375E+02  0.14092167064E+03  0.14370133129E+03  0.00000000000E+00 0. -1.
<scales pt_clust_5="13000.00000" pt_clust_6="13000.00000" pt_clust_7="13000.00000" pt_clust_8="13000.00000" pt_clust_9="28.12748"></scales>
<clustering>
<clus scale="   28.127">  1  9  2 -1</clus>
<clus scale="   80.288">  5  6 -1 -1</clus>
<clus scale="   91.425">  7  8 -1 -1</clus>
<clus scale="  104.528">  1  5  2 -1</clus>
<clus scale="   28.127">  1  5  2 -1</clus>
</clustering>
</event>
<event>
 9    2  0.3764910E-005  0.1253564E+03  0.7546771E-02  0.1244974E+00
         21   -1    0    0  501  502  0.00000000000E+00  0.00000000000E+00  0.51891161455E+02  0.51891161455E+02  0.00000000000E+00 0.  1.
          2   -1    0    0  502    0 -0.00000000000E+00 -0.00000000000E+00 -0.66229464479E+03  0.66229464479E+03  0.00000000000E+00 0. -1.
         23    2    1    2    0    0 -0.32222582585E+02  0.29792791013E+02 -0.66365166320E+02  0.12114892679E+03  0.91360943173E+02 0.  0.
         24    2    1    2    0    0  0.29057544896E+02  0.76486576960E+02 -0.38737061785E+03  0.40369568086E+03  0.78864883227E+02 0.  0.
        -13    1    4    4    0    0 -0.23954575384E+02  0.18113789720E+02 -0.61779609706E+02  0.68692439433E+02  0.00000000000E+00 0.  1.
         14    1    4    4    0    0  0.53012120280E+02  0.58372787240E+02 -0.32559100814E+03  0.33500324143E+03  0.00000000000E+00 0. -1.
        -13    1    3    3    0    0  0.14576386558E+02  0.26846791565E+02  0.94738919611E+01  0.31983994299E+02  0.00000000000E+00 0.  1.
         13    1    3    3    0    0 -0.46798969143E+02  0.29459994482E+01 -0.75839058281E+02  0.89164932493E+02  0.00000000000E+00 0. -1.
          1    1    1    2  501    0  0.31650376889E+01 -0.10627936797E+03 -0.15666769917E+03  0.18934119859E+03  0.00000000000E+00 0. -1.
<scales pt_clust_5="13000.00000" pt_clust_6="13000.00000" pt_clust_7="13000.00000" pt_clust_8="13000.00000" pt_clust_9="97.44002"></scales>
<clustering>
<clus scale="   78.865">  5  6 -1 -1</clus>
<clus scale="   91.361">  7  8 -1 -1</clus>
<clus scale="  101.355">  2  7  1 -1</clus>
<clus scale="   97.440">  1  9  2 -1</clus>
<clus scale="   97.440">  1  5  2 -1</clus>
</clustering>
</event>
<event>
 9    2  0.3764910E-005  0.9122437E+02  0.7546771E-02  0.1307778E+00
          2   -1    0    0  502    0 -0.00000000000E+00  0.00000000000E+00  0.13137982245E+03  0.13137982245E+03  0.00000000000E+00 0. -1.
         21   -1    0    0  501  502  0.00000000000E+00 -0.00000000000E+00 -0.13259131619E+03  0.13259131619E+03  0.00000000000E+00 0.  1.
         23    2    1    2    0    0  0.95406687006E+01  0.11623106768E+02  0.15888373473E+02  0.92665271126E+02  0.90046049836E+02 0.  0.
         24    2    1    2    0    0 -0.25342669615E+02  0.16750245297E+02 -0.70258368991E+02  0.10901159288E+03  0.77617442295E+02 0.  0.
        -13    1    4    4    0    0 -0.46404442136E+02 -0.98467720427E+01 -0.52360044129E+02  0.70653417403E+02  0.00000000000E+00 0.  1.
         14    1    4    4    0    0  0.21061772521E+02  0.26597017340E+02 -0.17898324862E+02  0.38358175477E+02  0.00000000000E+00 0. -1.
        -13    1    3    3    0    0  0.26905550439E+02  0.43864633777E+02  0.21213073817E+02  0.55659763219E+02  0.00000000000E+00 0. -1.
         13    1    3    3    0    0 -0.17364881739E+02 -0.32241527009E+02 -0.53247003444E+01  0.37005507907E+02  0.00000000000E+00 0.  1.
          1    1    1    2  501    0  0.15802000914E+02 -0.28373352065E+02  0.53158501781E+02  0.62294274632E+02  0.00000000000E+00 0. -1.
<scales pt_clust_5="13000.00000" pt_clust_6="13000.00000" pt_clust_7="13000.00000" pt_clust_8="13000.00000" pt_clust_9="32.47694"></scales>
<clustering>
<clus scale="   32.477">  2  9  1 -1</clus>
<clus scale="   77.617">  5  6 -1 -1</clus>
<clus scale="   78.981">  2  5  1 -1</clus>
<clus scale="   90.046">  7  8 -1 -1</clus>
<clus scale="   32.477">  2  5  1 -1</clus>
</clustering>
</event>
<event>
 9    2  0.3764910E-005  0.9425855E+02  0.7546771E-02  0.1294984E+00
          2   -1    0    0  502    0 -0.00000000000E+00  0.00000000000E+00  0.11487047851E+04  0.11487047851E+04  0.00000000000E+00 0. -1.
         21   -1    0    0  501  502  0.00000000000E+00 -0.00000000000E+00 -0.23912923653E+02  0.23912923653E+02  0.00000000000E+00 0.  1.
         24    2    1    2    0    0 -0.76910022752E+01 -0.25302993913E+02  0.91340599894E+03  0.91784001576E+03  0.86141642641E+02 0.  0.
         23    2    1    2    0    0 -0.17819849043E+02  0.47009434037E+02  0.12433690947E+03  0.16150661869E+03  0.89984926049E+02 0.  0.
        -13    1    3    3    0    0  0.24539363870E+02  0.13058795321E+02  0.13549144518E+03  0.13831357212E+03  0.00000000000E+00 0.  1.
         14    1    3    3    0    0 -0.32230366146E+02 -0.38361789234E+02  0.77791455376E+03  0.77952644364E+03  0.00000000000E+00 0. -1.
        -13    1    4    4    0    0  0.19732879264E+02  0.54954602120E+02  0.46222022912E+02  0.74470599704E+02  0.00000000000E+00 0.  1.
         13    1    4    4    0    0 -0.37552728307E+02 -0.79451680826E+01  0.78114886558E+02  0.87036018987E+02  0.00000000000E+00 0. -1.
          1    1    1    2  501    0  0.25510851318E+02 -0.21706440124E+02  0.87048952992E+02  0.93271074266E+02  0.00000000000E+00 0. -1.
<scales pt_clust_5="13000.00000" pt_clust_6="13000.00000" pt_clust_7="13000.00000" pt_clust_8="13000.00000" pt_clust_9="33.49587"></scales>
<clustering>
<clus scale="   33.496">  2  9  1 -1</clus>
<clus scale="   86.142">  5  6 -1 -1</clus>
<clus scale="   89.985">  7  8 -1 -1</clus>
<clus scale="   90.597">  1  5  2 -1</clus>
<clus scale="   33.496">  2  5  1 -1</clus>
</clustering>
</event>
<event>
 9    2  0.3764910E-005  0.1251604E+03  0.7546771E-02  0.1237611E+00
          4   -1    0    0  502    0 -0.00000000000E+00  0.00000000000E+00  0.16490851830E+03  0.16490851830E+03  0.00000000000E+00 0. -1.
         21   -1    0    0  501  502  0.00000000000E+00 -0.00000000000E+00 -0.15952638428E+03  0.15952638428E+03  0.00000000000E+00 0. -1.
         24    2    1    2    0    0 -0.10834387112E+03  0.12633475681E+02  0.38475047660E+02  0.14107334232E+03  0.80767317051E+02 0.  0.
         23    2    1    2    0    0  0.48221833159E+02  0.19199972121E+01 -0.56534969142E+02  0.11721027163E+03  0.90625677692E+02 0.  0.
        -13    1    3    3    0    0 -0.16698309604E+02 -0.28463411339E+02  0.21029773657E+02  0.39131198662E+02  0.00000000000E+00 0.  1.
         14    1    3    3    0    0 -0.91645561513E+02  0.41096887021E+02  0.17445274003E+02  0.10194214365E+03  0.00000000000E+00 0. -1.
        -13    1    4    4    0    0 -0.13274691960E+01  0.31087261699E+02  0.66104158961E+01  0.31810023778E+02  0.00000000000E+00 0.  1.
         13    1    4    4    0    0  0.49549302355E+02 -0.29167264487E+02 -0.63145385038E+02  0.85400247851E+02  0.00000000000E+00 0. -1.
          3    1    1    2  501    0  0.60122037958E+02 -0.14553472894E+02  0.23442055507E+02  0.66151288634E+02  0.00000000000E+00 0. -1.
<scales pt_clust_5="13000.00000" pt_clust_6="13000.00000" pt_clust_7="13000.00000" pt_clust_8="13000.00000" pt_clust_9="61.85844"></scales>
<clustering>
<clus scale="   61.858">  2  9  1 -1</clus>
<clus scale="   80.767">  5  6 -1 -1</clus>
<clus scale="   90.626">  7  8 -1 -1</clus>
<clus scale="  118.218">  1  5  2 -1</clus>
<clus scale="   61.858">  2  5  1 -1</clus>
</clustering>
</event>
<event>
 9    2  0.4016900E-005  0.9580737E+02  0.7546771E-02  0.1293042E+00
         21   -1    0    0  501  502  0.00000000000E+00  0.00000000000E+00  0.32989404520E+02  0.32989404520E+02  0.00000000000E+00 0. -1.
          2   -1    0    0  502    0 -0.00000000000E+00 -0.00000000000E+00 -0.89711458331E+03  0.89711458331E+03  0.00000000000E+00 0. -1.
         24    2    1    2    0    0  0.32943715697E+02  0.32838806903E+01 -0.71832315134E+03  0.72401351244E+03  0.84328786124E+02 0.  0.
         23    2    1    2    0    0 -0.26272265015E+01 -0.36460641029E+02 -0.11708446374E+03  0.15275675801E+03  0.91047102129E+02 0.  0.
        -13    1    3    3    0    0 -0.21094032603E+02 -0.49255732669E+01 -0.67304316569E+02  0.70704246777E+02  0.00000000000E+00 0.  1.
         14    1    3    3    0    0  0.54037748300E+02  0.82094539573E+01 -0.65101883477E+03  0.65330926566E+03  0.00000000000E+00 0. -1.
        -13    1    4    4    0    0 -0.23450944801E+01 -0.66596949652E+02 -0.68367176032E+02  0.95471063311E+02  0.00000000000E+00 0. -1.
         13    1    4    4    0    0 -0.28213202144E+00  0.30136308623E+02 -0.48717287710E+02  0.57285694704E+02  0.00000000000E+00 0.  1.
          1    1    1    2  501    0 -0.30316489195E+02  0.33176760339E+02 -0.28717563710E+02  0.53333717376E+02  0.00000000000E+00 0. -1.
<scales pt_clust_5="13000.00000" pt_clust_6="13000.00000" pt_clust_7="13000.00000" pt_clust_8="13000.00000" pt_clust_9="44.94204"></scales>
<clustering>
<clus scale="   44.942">  1  9  2 -1</clus>
<clus scale="   84.329">  5  6 -1 -1</clus>
<clus scale="   89.447">  2  5  1 -1</clus>
<clus scale="   91.047">  7  8 -1 -1</clus>
<clus scale="   44.942">  1  5  2 -1</clus>
</clustering>
</event>
<event>
 9    2  0.3764910E-005  0.9124303E+02  0.7546771E-02  0.1305660E+00
         21   -1    0    0  501  502  0.00000000000E+00  0.00000000000E+00  0.14738510313E+03  0.14738510313E+03  0.00000000000E+00 0.  1.
         -3   -1    0    0    0  501 -0.00000000000E+00 -0.00000000000E+00 -0.25756306816E+03  0.25756306816E+03  0.00000000000E+00 0.  1.
         23    2    1    2    0    0 -0.12419158949E+01  0.12792395912E+02 -0.21817519780E+03  0.23656548959E+03  0.90540743215E+02 0.  0.
         24    2    1    2    0    0  0.28681964237E+02  0.82226596864E+01  0.47584624676E+02  0.98781876881E+02  0.81260663852E+02 0.  0.
        -13    1    4    4    0    0  0.53656689423E+02  0.12472722593E+02  0.48552065054E+02  0.73429640812E+02  0.00000000000E+00 0.  1.
         14    1    4    4    0    0 -0.24974725186E+02 -0.42500629064E+01 -0.96744037795E+00  0.25352236069E+02  0.00000000000E+00 0. -1.
        -11    1    3    3    0    0 -0.30147423238E+02  0.25063489423E+02 -0.41379867099E+02  0.57002973880E+02  0.00000000000E+00 0. -1.
         11    1    3    3    0    0  0.28905507343E+02 -0.12271093511E+02 -0.17679533070E+03  0.17956251571E+03  0.00000000000E+00 0.  1.
         -4    1    1    2    0  502 -0.27440048342E+02 -0.21015055598E+02  0.60412608089E+02  0.69600804815E+02  0.00000000000E+00 0.  1.
<scales pt_clust_5="13000.00000" pt_clust_6="13000.00000" pt_clust_7="13000.00000" pt_clust_8="13000.00000" pt_clust_9="34.56282"></scales>
<clustering>
<clus scale="   34.563">  1  9  2 -1</clus>
<clus scale="   81.261">  5  6 -1 -1</clus>
<clus scale="   82.042">  1  5  2 -1</clus>
<clus scale="   90.541">  7  8 -1 -1</clus>
<clus scale="   34.563">  1  5  2 -1</clus>
</clustering>
</event>
<event>
 9    2  0.3764910E-005  0.9635672E+02  0.7546771E-02  0.1294237E+00
         -1   -1    0    0    0  501 -0.00000000000E+00  0.00000000000E+00  0.92791447866E+02  0.92791447866E+02  0.00000000000E+00 0.  1.
         21   -1    0    0  501  502  0.00000000000E+00 -0.00000000000E+00 -0.37644318053E+03  0.37644318053E+03  0.00000000000E+00 0. -1.
         23    2    1    2    0    0  0.23727145051E+02  0.13825766919E+02  0.17445053670E+02  0.97100102685E+02  0.91487544511E+02 0.  0.
         24    2    1    2    0    0 -0.68090132822E+02  0.29022209894E+02 -0.28938207513E+03  0.30935508434E+03  0.80498620766E+02 0.  0.
        -11    1    4    4    0    0 -0.58899738738E+02 -0.25680377259E+01 -0.92134406788E+02  0.10938246183E+03  0.00000000000E+00 0.  1.
         12    1    4    4    0    0 -0.91903940833E+01  0.31590247620E+02 -0.19724766834E+03  0.19997262251E+03  0.00000000000E+00 0. -1.
        -13    1    3    3    0    0  0.51532036832E+02  0.29111144986E+02  0.25372390417E+02  0.64395401838E+02  0.00000000000E+00 0.  1.
         13    1    3    3    0    0 -0.27804891781E+02 -0.15285378067E+02 -0.79273367461E+01  0.32704700847E+02  0.00000000000E+00 0. -1.
         -2    1    1    2    0  502  0.44362987770E+02 -0.42847976813E+02 -0.11714711211E+02  0.62779441378E+02  0.00000000000E+00 0.  1.
<scales pt_clust_5="13000.00000" pt_clust_6="13000.00000" pt_clust_7="13000.00000" pt_clust_8="13000.00000" pt_clust_9="61.67680"></scales>
<clustering>
<clus scale="   61.677">  2  9  1 -1</clus>
<clus scale="   80.499">  5  6 -1 -1</clus>
<clus scale="   85.992">  2  5  1 -1</clus>
<clus scale="   91.488">  7  8 -1 -1</clus>
<clus scale="   61.677">  2  5  1 -1</clus>
</clustering>
</event>
<event>
 9    2  0.3764910E-005  0.1694339E+03  0.7546771E-02  0.1179152E+00
          2   -1    0    0  502    0 -0.00000000000E+00  0.00000000000E+00  0.10505768807E+03  0.10505768807E+03  0.00000000000E+00 0. -1.
         21   -1    0    0  501  502  0.00000000000E+00 -0.00000000000E+00 -0.34236679200E+03  0.34236679200E+03  0.00000000000E+00 0. -1.
         23    2    1    2    0    0  0.13460069004E+03  0.68103554624E+02 -0.36706934312E+02  0.17841997449E+03  0.87925243012E+02 0.  0.
         24    2    1    2    0    0 -0.12427300151E+03 -0.50362980141E+02 -0.16639890445E+03  0.22911399943E+03  0.82610051806E+02 0.  0.
        -11    1    4    4    0    0 -0.11733688859E+03 -0.69905858946E+02 -0.14066991622E+03  0.19606835510E+03  0.00000000000E+00 0.  1.
         12    1    4    4    0    0 -0.69361129221E+01  0.19542878805E+02 -0.25728988222E+02  0.33045644333E+02  0.00000000000E+00 0. -1.
        -13    1    3    3    0    0  0.94649095032E+02 -0.74135287389E+00 -0.25587834495E+02  0.98049671436E+02  0.00000000000E+00 0. -1.
         13    1    3    3    0    0  0.39951595003E+02  0.68844907498E+02 -0.11119099817E+02  0.80370303051E+02  0.00000000000E+00 0.  1.
          1    1    1    2  501    0 -0.10327688522E+02 -0.17740574483E+02 -0.34203265165E+02  0.39890506153E+02  0.00000000000E+00 0. -1.
<scales pt_clust_5="13000.00000" pt_clust_6="13000.00000" pt_clust_7="13000.00000" pt_clust_8="13000.00000" pt_clust_9="20.52776"></scales>
<clustering>
<clus scale="   20.528">  2  9  1 -1</clus>
<clus scale="   82.610">  5  6 -1 -1</clus>
<clus scale="   87.925">  7  8 -1 -1</clus>
<clus scale="  166.738">  2  5  1 -1</clus>
<clus scale="   20.528">  2  5  1 -1</clus>
</clustering>
</event>
<event>
 9    2  0.3764910E-005  0.9892752E+02  0.7546771E-02  0.1289518E+00
          4   -1    0    0  502    0 -0.00000000000E+00  0.00000000000E+00  0.41892660009E+02  0.41892660009E+02  0.00000000000E+00 0. -1.
         21   -1    0    0  501  502  0.00000000000E+00 -0.00000000000E+00 -0.42524882727E+03  0.42524882727E+03  0.00000000000E+00 0. -1.
         24    2    1    2    0    0  0.37952573370E+02 -0.14621647861E+02 -0.66314788920E+02  0.11408891821E+03  0.83453218135E+02 0.  0.
         23    2    1    2    0    0  0.15032701572E+02  0.95644894338E+01 -0.16235408970E+03  0.18946414809E+03  0.96022660837E+02 0.  0.
        -11    1    3    3    0    0  0.13681017546E+02 -0.48140025453E+02 -0.46054565301E+02  0.68012170064E+02  0.00000000000E+00 0.  1.
         12    1    3    3    0    0  0.24271555824E+02  0.33518377593E+02 -0.20260223619E+02  0.46076748146E+02  0.00000000000E+00 0. -1.
        -11    1    4    4    0    0  0.45786053867E+02 -0.15175408848E+02 -0.46216127384E+02  0.66802591213E+02  0.00000000000E+00 0. -1.
         11    1    4    4    0    0 -0.30753352295E+02  0.24739898282E+02 -0.11613796232E+03  0.12266155688E+03  0.00000000000E+00 0.  1.
          3    1    1    2  501    0 -0.52985274942E+02  0.50571584270E+01 -0.15468728863E+03  0.16358842098E+03  0.00000000000E+00 0. -1.
<scales pt_clust_5="13000.00000" pt_clust_6="13000.00000" pt_clust_7="13000.00000" pt_clust_8="13000.00000" pt_clust_9="53.22607"></scales>
<clustering>
<clus scale="   53.226">  2  9  1 -1</clus>
<clus scale="   83.453">  5  6 -1 -1</clus>
<clus scale="   86.780">  1  5  2 -1</clus>
<clus scale="   96.023">  7  8 -1 -1</clus>
<clus scale="   53.226">  2  5  1 -1</clus>
</clustering>
</event>
<event>
 9    2  0.3764910E-005  0.1622129E+03  0.7546771E-02  0.1200040E+00
         21   -1    0    0  501  502  0.00000000000E+00  0.00000000000E+00  0.24374477960E+03  0.24374477960E+03  0.00000000000E+00 0. -1.
          2   -1    0    0  502    0 -0.00000000000E+00 -0.00000000000E+00 -0.31756301511E+03  0.31756301511E+03  0.00000000000E+00 0. -1.
         24    2    1    2    0    0 -0.62168422701E+02 -0.63130272321E+02  0.26239159555E+02  0.12256915449E+03  0.80525524357E+02 0.  0.
         23    2    1    2    0    0 -0.78804476323E+02  0.39903254328E+02 -0.21878673278E+03  0.25297129041E+03  0.91238282192E+02 0.  0.
        -11    1    3    3    0    0 -0.90239117825E+01 -0.57193132951E+02 -0.89019654934E+01  0.58580973278E+02  0.00000000000E+00 0.  1.
         12    1    3    3    0    0 -0.53144510919E+02 -0.59371393700E+01  0.35141125048E+02  0.63988181208E+02  0.00000000000E+00 0. -1.
        -13    1    4    4    0    0 -0.59603801329E+02  0.30727260517E+02 -0.22158306203E+03  0.23150773432E+03  0.00000000000E+00 0. -1.
         13    1    4    4    0    0 -0.19200674994E+02  0.91759938110E+01  0.27963292528E+01  0.21463556088E+02  0.00000000000E+00 0.  1.
          1    1    1    2  501    0  0.14097289902E+03  0.23227017992E+02  0.11872933771E+03  0.18576734982E+03  0.00000000000E+00 0. -1.
<scales pt_clust_5="13000.00000" pt_clust_6="13000.00000" pt_clust_7="13000.00000" pt_clust_8="13000.00000" pt_clust_9="134.12164"></scales>
<clustering>
<clus scale="   80.526">  5  6 -1 -1</clus>
<clus scale="   91.238">  7  8 -1 -1</clus>
<clus scale="  119.728">  2  5  1 -1</clus>
<clus scale="  134.122">  1  9  2 -1</clus>
<clus scale="  134.122">  1  5  2 -1</clus>
</clustering>
</event>
<event>
 9    2  0.3764910E-005  0.1418098E+03  0.7546771E-02  0.1214404E+00
         -1   -1    0    0    0  501 -0.00000000000E+00  0.00000000000E+00  0.13152844409E+03  0.13152844409E+03  0.00000000000E+00 0.  1.
         21   -1    0    0  501  502  0.00000000000E+00 -0.00000000000E+00 -0.40267637682E+03  0.40267637682E+03  0.00000000000E+00 0. -1.
         24    2    1    2    0    0  0.22368731029E+02  0.10559318494E+03  0.49805393896E+02  0.14332329414E+03  0.80066900456E+02 0.  0.
         23    2    1    2    0    0 -0.27397808029E+02 -0.75213703741E+02 -0.33464540950E+03  0.35718171034E+03  0.95830490889E+02 0.  0.
        -11    1    3    3    0    0  0.47059610564E+02  0.60883053910E+02  0.50856997176E+02  0.92237667803E+02  0.00000000000E+00 0.  1.
         12    1    3    3    0    0 -0.24690879535E+02  0.44710131032E+02 -0.10516032799E+01  0.51085626340E+02  0.00000000000E+00 0. -1.
        -13    1    4    4    0    0  0.80294856394E+00 -0.87210080636E+02 -0.29144895512E+03  0.30421823800E+03  0.00000000000E+00 0. -1.
         13    1    4    4    0    0 -0.28200756593E+02  0.11996376895E+02 -0.43196454385E+02  0.52963472341E+02  0.00000000000E+00 0.  1.
         -2    1    1    2    0  502  0.50290769997E+01 -0.30379481201E+02  0.13692082876E+02  0.33699816424E+02  0.00000000000E+00 0.  1.
<scales pt_clust_5="13000.00000" pt_clust_6="13000.00000" pt_clust_7="13000.00000" pt_clust_8="13000.00000" pt_clust_9="30.79294"></scales>
<clustering>
<clus scale="   30.793">  2  9  1 -1</clus>
<clus scale="   80.067">  5  6 -1 -1</clus>
<clus scale="   95.830">  7  8 -1 -1</clus>
<clus scale="  131.671">  1  5  2 -1</clus>
<clus scale="   30.793">  2  5  1 -1</clus>
</clustering>
</event>
<event>
 9    2  0.3764910E-005  0.2134165E+03  0.7546771E-02  0.1172243E+00
         -1   -1    0    0    0  501 -0.00000000000E+00  0.00000000000E+00  0.35279199996E+03  0.35279199996E+03  0.00000000000E+00 0.  1.
         21   -1    0    0  501  502  0.00000000000E+00 -0.00000000000E+00 -0.25423040438E+03  0.25423040438E+03  0.00000000000E+00 0.  1.
         24    2    1    2    0    0  0.31693060094E+02  0.44924116943E+02  0.15748346249E+03  0.18525689722E+03  0.80600562460E+02 0.  0.
         23    2    1    2    0    0  0.15883255489E+03 -0.10640692625E+03 -0.65389104611E+02  0.22146081180E+03  0.90658379177E+02 0.  0.
        -13    1    3    3    0    0 -0.25969861440E+02  0.24570465731E+02  0.47959225629E+02  0.59818298307E+02  0.00000000000E+00 0.  1.
         14    1    3    3    0    0  0.57662921534E+02  0.20353651212E+02  0.10952423686E+03  0.12543859891E+03  0.00000000000E+00 0. -1.
        -13    1    4    4    0    0  0.15467320794E+03 -0.62475458947E+02 -0.44555015808E+02  0.17266190564E+03  0.00000000000E+00 0.  1.
         13    1    4    4    0    0  0.41593469481E+01 -0.43931467301E+02 -0.20834088802E+02  0.48798906161E+02  0.00000000000E+00 0. -1.
         -2    1    1    2    0  502 -0.19052561498E+03  0.61482809305E+02  0.64672377014E+01  0.20030469532E+03  0.00000000000E+00 0.  1.
<scales pt_clust_5="13000.00000" pt_clust_6="13000.00000" pt_clust_7="13000.00000" pt_clust_8="13000.00000" pt_clust_9="193.20377"></scales>
<clustering>
<clus scale="   80.601">  5  6 -1 -1</clus>
<clus scale="   90.658">  7  8 -1 -1</clus>
<clus scale="   97.566">  1  5  2 -1</clus>
<clus scale="  193.204">  2  9  1 -1</clus>
<clus scale="  193.204">  2  5  1 -1</clus>
</clustering>
</event>
<event>
 9    2  0.3764910E-005  0.1935453E+03  0.7546771E-02  0.1174790E+00
         21   -1    0    0  501  502  0.00000000000E+00  0.00000000000E+00  0.36079037458E+02  0.36079037458E+02  0.00000000000E+00 0.  1.
          2   -1    0    0  502    0 -0.00000000000E+00 -0.00000000000E+00 -0.20159309345E+04  0.20159309345E+04  0.00000000000E+00 0. -1.
         23    2    1    2    0    0 -0.14744097577E+02 -0.74517629934E+02 -0.40278736129E+03  0.42128061322E+03  0.97311001819E+02 0.  0.
         24    2    1    2    0    0 -0.75653015642E+02  0.18025818832E+03 -0.47287225443E+03  0.51780829330E+03  0.79377996742E+02 0.  0.
        -11    1    4    4    0    0 -0.81301985270E+02  0.18353191763E+03 -0.43127414848E+03  0.47570092363E+03  0.00000000000E+00 0.  1.
         12    1    4    4    0    0  0.56489696280E+01 -0.32737293106E+01 -0.41598105959E+02  0.42107369674E+02  0.00000000000E+00 0. -1.
        -11    1    3    3    0    0 -0.34180723124E+02 -0.83210113982E+02 -0.37822008457E+03  0.38877072584E+03  0.00000000000E+00 0. -1.
         11    1    3    3    0    0  0.19436625548E+02  0.86924840481E+01 -0.24567276719E+02  0.32509887373E+02  0.00000000000E+00 0.  1.
          1    1    1    2  501    0  0.90397113219E+02 -0.10574055839E+03 -0.11041922813E+04  0.11129210654E+04  0.00000000000E+00 0. -1.
<scales pt_clust_5="13000.00000" pt_clust_6="13000.00000" pt_clust_7="13000.00000" pt_clust_8="13000.00000" pt_clust_9="176.51898"></scales>
<clustering>
<clus scale="   79.378">  5  6 -1 -1</clus>
<clus scale="   97.311">  7  8 -1 -1</clus>
<clus scale="  123.449">  2  7  1 -1</clus>
<clus scale="  176.519">  1  9  2 -1</clus>
<clus scale="  176.519">  1  5  2 -1</clus>
</clustering>
</event>
<event>
 9    2  0.4302032E-005  0.8768931E+02  0.7546771E-02  0.1313657E+00
         21   -1    0    0  501  502  0.00000000000E+00  0.00000000000E+00  0.12093099769E+03  0.12093099769E+03  0.00000000000E+00 0. -1.
          4   -1    0    0  502    0 -0.00000000000E+00 -0.00000000000E+00 -0.31576737056E+03  0.31576737056E+03  0.00000000000E+00 0. -1.
         24    2    1    2    0    0  0.12551468194E+02  0.23694328801E+01 -0.23763601233E+03  0.25096989593E+03  0.79698561730E+02 0.  0.
         23    2    1    2    0    0  0.50262967621E+02  0.32198599874E+02  0.84785591036E+01  0.10623923537E+03  0.87474415796E+02 0.  0.
        -11    1    3    3    0    0 -0.14861046803E+02  0.27694839415E+02 -0.45862944492E+02  0.55599141358E+02  0.00000000000E+00 0.  1.
         12    1    3    3    0    0  0.27412514998E+02 -0.25325406535E+02 -0.19177306784E+03  0.19537075457E+03  0.00000000000E+00 0. -1.
        -13    1    4    4    0    0  0.51591519289E+02  0.57004191526E+02  0.19102497683E+02  0.79221639290E+02  0.00000000000E+00 0. -1.
         13    1    4    4    0    0 -0.13285516683E+01 -0.24805591653E+02 -0.10623938579E+02  0.27017596076E+02  0.00000000000E+00 0.  1.
          3    1    1    2  501    0 -0.62814435815E+02 -0.34568032754E+02  0.34321080347E+02  0.79489236954E+02  0.00000000000E+00 0. -1.
<scales pt_clust_5="13000.00000" pt_clust_6="13000.00000" pt_clust_7="13000.00000" pt_clust_8="13000.00000" pt_clust_9="71.69799"></scales>
<clustering>
<clus scale="   71.698">  1  9  2 -1</clus>
<clus scale="   79.699">  5  6 -1 -1</clus>
<clus scale="   79.934">  2  5  1 -1</clus>
<clus scale="   87.474">  7  8 -1 -1</clus>
<clus scale="   71.698">  1  5  2 -1</clus>
</clustering>
</event>
<event>
 9    2  0.3764910E-005  0.1578222E+03  0.7546771E-02  0.1191359E+00
         21   -1    0    0  501  502  0.00000000000E+00  0.00000000000E+00  0.38823845612E+02  0.38823845612E+02  0.00000000000E+00 0.  1.
         -3   -1    0    0    0  501 -0.00000000000E+00 -0.00000000000E+00 -0.10598996593E+04  0.10598996593E+04  0.00000000000E+00 0.  1.
         24    2    1    2    0    0 -0.15830596830E+03 -0.37474926764E+01 -0.72498631305E+03  0.74651485023E+03  0.81267731581E+02 0.  0.
         23    2    1    2    0    0  0.95833437136E+02  0.10691123471E+02 -0.21439021485E+03  0.24912711193E+03  0.82479123893E+02 0.  0.
        -11    1    3    3    0    0 -0.14985825785E+03  0.16507945339E+02 -0.67931752447E+03  0.69584646925E+03  0.00000000000E+00 0.  1.
         12    1    3    3    0    0 -0.84477104502E+01 -0.20255438015E+02 -0.45668788576E+02  0.50668380979E+02  0.00000000000E+00 0. -1.
        -11    1    4    4    0    0  0.49021997412E+02 -0.35493810450E+02 -0.90622749771E+02  0.10897453641E+03  0.00000000000E+00 0.  1.
         11    1    4    4    0    0  0.46811439724E+02  0.46184933921E+02 -0.12376746508E+03  0.14015257551E+03  0.00000000000E+00 0. -1.
         -4    1    1    2    0  502  0.62472531163E+02 -0.69436307944E+01 -0.81699285756E+02  0.10308154273E+03  0.00000000000E+00 0.  1.
<scales pt_clust_5="13000.00000" pt_clust_6="13000.00000" pt_clust_7="13000.00000" pt_clust_8="13000.00000" pt_clust_9="62.85723"></scales>
<clustering>
<clus scale="   62.857">  1  9  2 -1</clus>
<clus scale="   81.268">  5  6 -1 -1</clus>
<clus scale="   82.479">  7  8 -1 -1</clus>
<clus scale="  157.192">  2  5  1 -1</clus>
<clus scale="   62.857">  1  5  2 -1</clus>
</clustering>
</event>
<event>
 9    2  0.3764910E-005  0.1378995E+03  0.7546771E-02  0.1218695E+00
         21   -1    0    0  501  502  0.00000000000E+00  0.00000000000E+00  0.15609002764E+03  0.15609002764E+03  0.00000000000E+00 0. -1.
         -1   -1    0    0    0  501 -0.00000000000E+00 -0.00000000000E+00 -0.23451563894E+03  0.23451563894E+03  0.00000000000E+00 0.  1.
         24    2    1    2    0    0  0.31584518085E+02  0.94343731345E+02 -0.12552552656E+03  0.17879491723E+03  0.79452143973E+02 0.  0.
         23    2    1    2    0    0  0.56944123016E+01 -0.12709271311E+03  0.42878091847E+02  0.16201076692E+03  0.90686127836E+02 0.  0.
        -11    1    3    3    0    0  0.46270808870E-01  0.93815157341E+02 -0.10663049665E+03  0.14202587336E+03  0.00000000000E+00 0.  1.
         12    1    3    3    0    0  0.31538247276E+02  0.52857400384E+00 -0.18895029911E+02  0.36769043869E+02  0.00000000000E+00 0. -1.
        -13    1    4    4    0    0 -0.19103269973E+02 -0.12478637309E+03  0.19284200837E+02  0.12770455839E+03  0.00000000000E+00 0. -1.
         13    1    4    4    0    0  0.24797682275E+02 -0.23063400146E+01  0.23593891010E+02  0.34306208527E+02  0.00000000000E+00 0.  1.
         -2    1    1    2    0  502 -0.37278930386E+02  0.32748981760E+02  0.42218234175E+01  0.49799982430E+02  0.00000000000E+00 0.  1.
<scales pt_clust_5="13000.00000" pt_clust_6="13000.00000" pt_clust_7="13000.00000" pt_clust_8="13000.00000" pt_clust_9="49.62071"></scales>
<clustering>
<clus scale="   49.621">  1  9  2 -1</clus>
<clus scale="   79.452">  5  6 -1 -1</clus>
<clus scale="   90.686">  7  8 -1 -1</clus>
<clus scale="  130.786">  2  5  1 -1</clus>
<clus scale="   49.621">  1  5  2 -1</clus>
</clustering>
</event>
<event>
 9    2  0.3764910E-005  0.9321925E+02  0.7546771E-02  0.1303395E+00
         21   -1    0    0  501  502  0.00000000000E+00  0.00000000000E+00  0.31669127018E+02  0.31669127018E+02  0.00000000000E+00 0.  1.
          2   -1    0    0  502    0 -0.00000000000E+00 -0.00000000000E+00 -0.36052483733E+03  0.36052483733E+03  0.00000000000E+00 0. -1.
         24    2    1    2    0    0  0.19977207943E+02 -0.99371274468E+01 -0.21065762396E+03  0.22599662108E+03  0.78740096951E+02 0.  0.
         23    2    1    2    0    0  0.29673105781E+01  0.23590654677E+01 -0.10021567648E+03  0.13607683500E+03  0.91974741584E+02 0.  0.
        -11    1    3    3    0    0 -0.25340876581E+02 -0.11025776194E+02 -0.13498724307E+03  0.13778709503E+03  0.00000000000E+00 0.  1.
         12    1    3    3    0    0  0.45318084524E+02  0.10886487473E+01 -0.75670380891E+02  0.88209526046E+02  0.00000000000E+00 0. -1.
        -11    1    4    4    0    0 -0.24508198801E+02  0.28349113601E+02 -0.89095066759E+02  0.96655341142E+02  0.00000000000E+00 0. -1.
         11    1    4    4    0    0  0.27475509379E+02 -0.25990048134E+02 -0.11120609726E+02  0.39421493862E+02  0.00000000000E+00 0.  1.
          1    1    1    2  501    0 -0.22944518521E+02  0.75780619791E+01 -0.17982409870E+02  0.30120508267E+02  0.00000000000E+00 0. -1.
<scales pt_clust_5="13000.00000" pt_clust_6="13000.00000" pt_clust_7="13000.00000" pt_clust_8="13000.00000" pt_clust_9="24.16357"></scales>
<clustering>
<clus scale="   24.164">  1  9  2 -1</clus>
<clus scale="   78.740">  5  6 -1 -1</clus>
<clus scale="   80.190">  2  5  1 -1</clus>
<clus scale="   91.975">  7  8 -1 -1</clus>
<clus scale="   24.164">  1  5  2 -1</clus>
</clustering>
</event>
<event>
 9    2  0.3764910E-005  0.8940070E+02  0.7546771E-02  0.1307063E+00
         -1   -1    0    0    0  501 -0.00000000000E+00  0.00000000000E+00  0.17476635157E+03  0.17476635157E+03  0.00000000000E+00 0.  1.
         21   -1    0    0  501  502  0.00000000000E+00 -0.00000000000E+00 -0.97934171118E+02  0.97934171118E+02  0.00000000000E+00 0.  1.
         24    2    1    2    0    0 -0.10573009439E+02  0.24464904730E+02  0.78774131172E+02  0.11756361031E+03  0.83099450271E+02 0.  0.
         23    2    1    2    0    0 -0.29136127039E+02 -0.56688542880E+01  0.33844176433E+02  0.98473397413E+02  0.87581572901E+02 0.  0.
        -11    1    3    3    0    0  0.61037207929E+00  0.48167161383E+02  0.18079079801E+02  0.51451930150E+02  0.00000000000E+00 0.  1.
         12    1    3    3    0    0 -0.11183381518E+02 -0.23702256653E+02  0.60695051371E+02  0.66111680160E+02  0.00000000000E+00 0. -1.
        -11    1    4    4    0    0  0.28269567283E+02  0.80537154034E+01  0.25402045139E+02  0.38849641741E+02  0.00000000000E+00 0. -1.
         11    1    4    4    0    0 -0.57405694322E+02 -0.13722569691E+02  0.84421312942E+01  0.59623755671E+02  0.00000000000E+00 0.  1.
         -2    1    1    2    0  502  0.39709136479E+02 -0.18796050442E+02 -0.35786127150E+02  0.56663514968E+02  0.00000000000E+00 0.  1.
<scales pt_clust_5="13000.00000" pt_clust_6="13000.00000" pt_clust_7="13000.00000" pt_clust_8="13000.00000" pt_clust_9="43.93298"></scales>
<clustering>
<clus scale="   43.933">  2  9  1 -1</clus>
<clus scale="   83.099">  5  6 -1 -1</clus>
<clus scale="   85.015">  1  5  2 -1</clus>
<clus scale="   87.582">  7  8 -1 -1</clus>
<clus scale="   43.933">  2  5  1 -1</clus>
</clustering>
</event>
<event>
 9    2  0.3764910E-005  0.2245482E+03  0.7546771E-02  0.1131371E+00
         -3   -1    0    0    0  501 -0.00000000000E+00  0.00000000000E+00  0.16622421415E+03  0.16622421415E+03  0.00000000000E+00 0.  1.
         21   -1    0    0  501  502  0.00000000000E+00 -0.00000000000E+00 -0.47729748136E+03  0.47729748136E+03  0.00000000000E+00 0.  1.
         23    2    1    2    0    0  0.14789116579E+03  0.58715226599E+02 -0.12953841033E+03  0.22439346450E+03  0.90845761624E+02 0.  0.
         24    2    1    2    0    0 -0.25198047226E+03 -0.55166438526E+02 -0.10326593877E+03  0.28884699230E+03  0.78938181565E+02 0.  0.
        -13    1    4    4    0    0 -0.23467063685E+03 -0.66156603097E+02 -0.10969677784E+03  0.26735816240E+03  0.00000000000E+00 0.  1.
         14    1    4    4    0    0 -0.17309835410E+02  0.10990164572E+02  0.64308390696E+01  0.21488829898E+02  0.00000000000E+00 0. -1.
        -11    1    3    3    0    0  0.31233534891E+02 -0.19337772252E+02 -0.56288571682E+01  0.37164057508E+02  0.00000000000E+00 0. -1.
         11    1    3    3    0    0  0.11665763090E+03  0.78052998851E+02 -0.12390955316E+03  0.18722940699E+03  0.00000000000E+00 0.  1.
         -4    1    1    2    0  502  0.10408930647E+03 -0.35487880731E+01 -0.78268918108E+02  0.13028123871E+03  0.00000000000E+00 0.  1.
<scales pt_clust_5="13000.00000" pt_clust_6="13000.00000" pt_clust_7="13000.00000" pt_clust_8="13000.00000" pt_clust_9="104.14978"></scales>
<clustering>
<clus scale="   78.938">  5  6 -1 -1</clus>
<clus scale="   90.846">  7  8 -1 -1</clus>
<clus scale="  104.150">  2  9  1 -1</clus>
<clus scale="  220.000">  2  5  1 -1</clus>
<clus scale="  104.150">  2  5  1 -1</clus>
</clustering>
</event>
<event>
 9    2  0.3764910E-005  0.1790358E+03  0.7546771E-02  0.1170048E+00
         21   -1    0    0  501  502  0.00000000000E+00  0.00000000000E+00  0.17616688930E+03  0.17616688930E+03  0.00000000000E+00 0. -1.
          2   -1    0    0  502    0 -0.00000000000E+00 -0.00000000000E+00 -0.94816448238E+03  0.94816448238E+03  0.00000000000E+00 0. -1.
         23    2    1    2    0    0  0.61323199106E+02 -0.13653960754E+03 -0.57437698652E+03  0.60052063292E+03  0.91172960581E+02 0.  0.
         24    2    1    2    0    0 -0.15643885397E+02  0.16722409623E+03 -0.33086920340E+03  0.37964650566E+03  0.80301992463E+02 0.  0.
        -13    1    4    4    0    0 -0.46430596782E+02  0.99048147348E+02 -0.22289539188E+03  0.24829154543E+03  0.00000000000E+00 0.  1.
         14    1    4    4    0    0  0.30786711384E+02  0.68175948877E+02 -0.10797381152E+03  0.13135496023E+03  0.00000000000E+00 0. -1.
        -11    1    3    3    0    0  0.39264466016E+01 -0.81498726755E+02 -0.40847080414E+03  0.41654034292E+03  0.00000000000E+00 0. -1.
         11    1    3    3    0    0  0.57396752505E+02 -0.55040880786E+02 -0.16590618238E+03  0.18398028999E+03  0.00000000000E+00 0.  1.
          1    1    1    2  501    0 -0.45679313709E+02 -0.30684488685E+02  0.13324859684E+03  0.14416423310E+03  0.00000000000E+00 0. -1.
<scales pt_clust_5="13000.00000" pt_clust_6="13000.00000" pt_clust_7="13000.00000" pt_clust_8="13000.00000" pt_clust_9="55.02852"></scales>
<clustering>
<clus scale="   55.029">  1  9  2 -1</clus>
<clus scale="   80.302">  5  6 -1 -1</clus>
<clus scale="   91.173">  7  8 -1 -1</clus>
<clus scale="  173.752">  1  5  2 -1</clus>
<clus scale="   55.029">  1  5  2 -1</clus>
</clustering>
</event>
<event>
 9    2  0.3764910E-005  0.9548342E+02  0.7546771E-02  0.1293338E+00
         21   -1    0    0  501  502  0.00000000000E+00  0.00000000000E+00  0.42545084052E+02  0.42545084052E+02  0.00000000000E+00 0. -1.
         -3   -1    0    0    0  501 -0.00000000000E+00 -0.00000000000E+00 -0.50313918938E+03  0.50313918938E+03  0.00000000000E+00 0.  1.
         24    2    1    2    0    0 -0.18825257916E+02 -0.61030878170E+02 -0.22238310316E+03  0.24657831461E+03  0.85249411956E+02 0.  0.
         23    2    1    2    0    0 -0.11125093685E+01 -0.22857895350E+02 -0.11127050307E+03  0.14565000033E+03  0.91154136957E+02 0.  0.
        -11    1    3    3    0    0 -0.35385583293E+02 -0.38997140820E+02 -0.20974797991E+03  0.21625709600E+03  0.00000000000E+00 0.  1.
         12    1    3    3    0    0  0.16560325376E+02 -0.22033737350E+02 -0.12635123255E+02  0.30321218608E+02  0.00000000000E+00 0. -1.
        -13    1    4    4    0    0 -0.27629740459E+01 -0.53294210681E+02 -0.35813454307E+02  0.64269047193E+02  0.00000000000E+00 0. -1.
         13    1    4    4    0    0  0.16504646774E+01  0.30436315331E+02 -0.75457048767E+02  0.81380953135E+02  0.00000000000E+00 0.  1.
         -4    1    1    2    0  502  0.19937767285E+02  0.83888773520E+02 -0.12694049909E+03  0.15345595849E+03  0.00000000000E+00 0.  1.
<scales pt_clust_5="13000.00000" pt_clust_6="13000.00000" pt_clust_7="13000.00000" pt_clust_8="13000.00000" pt_clust_9="86.22552"></scales>
<clustering>
<clus scale="   85.249">  5  6 -1 -1</clus>
<clus scale="   86.226">  1  9  2 -1</clus>
<clus scale="   89.864">  2  5  1 -1</clus>
<clus scale="   91.154">  7  8 -1 -1</clus>
<clus scale="   86.226">  1  5  2 -1</clus>
</clustering>
</event>
<event>
 9    2  0.3764910E-005  0.1021855E+03  0.7546771E-02  0.1289085E+00
         21   -1    0    0  501  502  0.00000000000E+00  0.00000000000E+00  0.47178537961E+03  0.47178537961E+03  0.00000000000E+00 0. -1.
         -3   -1    0    0    0  501 -0.00000000000E+00 -0.00000000000E+00 -0.38727807590E+02  0.38727807590E+02  0.00000000000E+00 0.  1.
         23    2    1    2    0    0 -0.47290625803E+02 -0.36388725622E+02  0.82594507668E+02  0.13620208876E+03  0.90380383067E+02 0.  0.
         24    2    1    2    0    0  0.10933481293E+02  0.36555121507E+02  0.12010306448E+03  0.14109960819E+03  0.63470744546E+02 0.  0.
        -13    1    4    4    0    0 -0.25624050762E+02  0.24363612831E+02  0.52823292309E+02  0.63564752953E+02  0.00000000000E+00 0.  1.
         14    1    4    4    0    0  0.36557532055E+02  0.12191508676E+02  0.67279772171E+02  0.77534855240E+02  0.00000000000E+00 0. -1.
        -11    1    3    3    0    0 -0.24643660102E+02 -0.66150060318E+02  0.49003333224E+02  0.85932922273E+02  0.00000000000E+00 0. -1.
         11    1    3    3    0    0 -0.22646965701E+02  0.29761334696E+02  0.33591174444E+02  0.50269166483E+02  0.00000000000E+00 0.  1.
         -4    1    1    2    0  502  0.36357144510E+02 -0.16639588535E+00  0.23035999987E+03  0.23321149025E+03  0.00000000000E+00 0.  1.
<scales pt_clust_5="13000.00000" pt_clust_6="13000.00000" pt_clust_7="13000.00000" pt_clust_8="13000.00000" pt_clust_9="36.35753"></scales>
<clustering>
<clus scale="   36.358">  1  9  2 -1</clus>
<clus scale="   63.471">  5  6 -1 -1</clus>
<clus scale="   79.384">  1  5  2 -1</clus>
<clus scale="   90.380">  7  8 -1 -1</clus>
<clus scale="   36.358">  1  5  2 -1</clus>
</clustering>
</event>
<event>
 9    2  0.3764910E-005  0.1175990E+03  0.7546771E-02  0.1250420E+00
         -1   -1    0    0    0  501 -0.00000000000E+00  0.00000000000E+00  0.89085655917E+02  0.89085655917E+02  0.00000000000E+00 0.  1.
         21   -1    0    0  501  502  0.00000000000E+00 -0.00000000000E+00 -0.49110258562E+03  0.49110258562E+03  0.00000000000E+00 0. -1.
         23    2    1    2    0    0  0.27004724772E+02  0.62066056176E+02 -0.10584254138E+03  0.15473928634E+03  0.90333563428E+02 0.  0.
         24    2    1    2    0    0  0.52917769667E+02 -0.10718509534E+03 -0.30086981910E+03  0.33355020721E+03  0.80275511046E+02 0.  0.
        -13    1    4    4    0    0  0.61548582278E+02 -0.42895998328E+02 -0.12131716396E+03  0.14263992753E+03  0.00000000000E+00 0.  1.
         14    1    4    4    0    0 -0.86308126111E+01 -0.64289097011E+02 -0.17955265514E+03  0.19091027968E+03  0.00000000000E+00 0. -1.
        -11    1    3    3    0    0 -0.28948454190E+02  0.19243300238E+02 -0.10745340676E+02  0.36383786915E+02  0.00000000000E+00 0.  1.
         11    1    3    3    0    0  0.55953178962E+02  0.42822755938E+02 -0.95097200701E+02  0.11835549942E+03  0.00000000000E+00 0. -1.
         -2    1    1    2    0  502 -0.79922494439E+02  0.45119039163E+02  0.46954307748E+01  0.91898747992E+02  0.00000000000E+00 0.  1.
<scales pt_clust_5="13000.00000" pt_clust_6="13000.00000" pt_clust_7="13000.00000" pt_clust_8="13000.00000" pt_clust_9="91.77876"></scales>
<clustering>
<clus scale="   80.276">  5  6 -1 -1</clus>
<clus scale="   90.334">  7  8 -1 -1</clus>
<clus scale="   91.779">  2  9  1 -1</clus>
<clus scale="  110.062">  2  5  1 -1</clus>
<clus scale="   91.779">  2  5  1 -1</clus>
</clustering>
</event>
<event>
 9    2  0.3764910E-005  0.1025778E+03  0.7546771E-02  0.1278245E+00
         21   -1    0    0  501  502  0.00000000000E+00  0.00000000000E+00  0.73129704138E+02  0.73129704138E+02  0.00000000000E+00 0.  1.
         -1   -1    0    0    0  501 -0.00000000000E+00 -0.00000000000E+00 -0.29474766291E+03  0.29474766291E+03  0.00000000000E+00 0.  1.
         24    2    1    2    0    0 -0.42744590461E+02  0.34126104971E+02 -0.21562966073E+03  0.23706583685E+03  0.81929050755E+02 0.  0.
         23    2    1    2    0    0  0.17275201658E+02 -0.35459082558E+02 -0.22955336835E+02  0.10017908008E+03  0.89180275106E+02 0.  0.
        -11    1    3    3    0    0 -0.19363048074E+02  0.59895688349E+02 -0.15251820395E+03  0.16499764740E+03  0.00000000000E+00 0.  1.
         12    1    3    3    0    0 -0.23381542387E+02 -0.25769583378E+02 -0.63111456785E+02  0.72068189441E+02  0.00000000000E+00 0. -1.
        -13    1    4    4    0    0  0.46758315957E+02 -0.44830164798E+02 -0.24371252559E+02  0.69210127425E+02  0.00000000000E+00 0. -1.
         13    1    4    4    0    0 -0.29483114299E+02  0.93710822399E+01  0.14159157242E+01  0.30968952653E+02  0.00000000000E+00 0.  1.
         -2    1    1    2    0  502  0.25469388803E+02  0.13329775871E+01  0.16967038794E+02  0.30632450125E+02  0.00000000000E+00 0.  1.
<scales pt_clust_5="13000.00000" pt_clust_6="13000.00000" pt_clust_7="13000.00000" pt_clust_8="13000.00000" pt_clust_9="25.50425"></scales>
<clustering>
<clus scale="   25.504">  1  9  2 -1</clus>
<clus scale="   81.929">  5  6 -1 -1</clus>
<clus scale="   89.180">  7  8 -1 -1</clus>
<clus scale="   96.340">  2  5  1 -1</clus>
<clus scale="   25.504">  1  5  2 -1</clus>
</clustering>
</event>
