<event>
 9    2  0.6066854E-005  0.1196593E+03  0.7546771E-02  0.1247663E+00
         -1   -1    0    0    0  501 -0.00000000000E+00  0.00000000000E+00  0.38974282284E+02  0.38974282284E+02  0.00000000000E+00 0.  1.
          2   -1    0    0  502    0  0.00000000000E+00 -0.00000000000E+00 -0.49145976379E+03  0.49145976379E+03  0.00000000000E+00 0. -1.
         23    2    1    2    0    0  0.45203657148E+02 -0.62330551795E+02 -0.13012284218E+03  0.17964919094E+03  0.97022726420E+02 0.  0.
         24    2    1    2    0    0 -0.55715849054E+02  0.39602275017E+02 -0.28955526504E+03  0.30951253327E+03  0.85341436128E+02 0.  0.
        -13    1    4    4    0    0 -0.63957556410E+02  0.50520858924E+02 -0.16321417655E+03  0.18243298396E+03  0.00000000000E+00 0.  1.
         14    1    4    4    0    0  0.82417073557E+01 -0.10918583906E+02 -0.12634108848E+03  0.12707954931E+03  0.00000000000E+00 0. -1.
        -13    1    3    3    0    0  0.21709951607E+02  0.35100988157E+01 -0.10192362747E+03  0.10426921228E+03  0.00000000000E+00 0.  1.
         13    1    3    3    0    0  0.23493705541E+02 -0.65840650611E+02 -0.28199214710E+02  0.75379978663E+02  0.00000000000E+00 0. -1.
         21    1    1    2  502  501  0.10512191906E+02  0.22728276778E+02 -0.32807374292E+02  0.41272321862E+02  0.00000000000E+00 0. -1.
<scales pt_clust_5="13000.00000" pt_clust_6="13000.00000" pt_clust_7="13000.00000" pt_clust_8="13000.00000" pt_clust_9="25.04158"></scales>
<clustering>
<clus scale="   25.042">  1  9  2 -1</clus>
<clus scale="   85.341">  5  6 -1 -1</clus>
<clus scale="   97.023">  7  8 -1 -1</clus>
<clus scale="  110.400">  2  5  1 -1</clus>
<clus scale="  110.400">  2  5  1 -1</clus>
</clustering>
</event>
<event>
 9    2  0.6066854E-005  0.1122352E+03  0.7546771E-02  0.1260769E+00
          2   -1    0    0  502    0  0.00000000000E+00  0.00000000000E+00  0.97224435739E+02  0.97224435739E+02  0.00000000000E+00 0. -1.
         -1   -1    0    0    0  501 -0.00000000000E+00 -0.00000000000E+00 -0.17287172343E+03  0.17287172343E+03  0.00000000000E+00 0.  1.
         23    2    1    2    0    0  0.69922462227E+02  0.27623300007E+01 -0.92571079602E+02  0.14782609450E+03  0.91577116380E+02 0.  0.
         24    2    1    2    0    0 -0.54808557661E+02  0.13994093674E+02  0.98770690741E+01  0.98629756963E+02  0.80190147864E+02 0.  0.
        -13    1    4    4    0    0 -0.71103023595E+02  0.81783073845E+01  0.24835808811E+02  0.75758445571E+02  0.00000000000E+00 0.  1.
         14    1    4    4    0    0  0.16294465935E+02  0.58157862900E+01 -0.14958739736E+02  0.22871311391E+02  0.00000000000E+00 0. -1.
        -13    1    3    3    0    0  0.55542348792E+02 -0.16941924085E+02 -0.65780549469E+01  0.58440158350E+02  0.00000000000E+00 0. -1.
         13    1    3    3    0    0  0.14380113435E+02  0.19704254085E+02 -0.85993024656E+02  0.89385936147E+02  0.00000000000E+00 0.  1.
         21    1    1    2  502  501 -0.15113904567E+02 -0.16756423675E+02  0.70467228410E+01  0.23640307706E+02  0.00000000000E+00 0. -1.
<scales pt_clust_5="13000.00000" pt_clust_6="13000.00000" pt_clust_7="13000.00000" pt_clust_8="13000.00000" pt_clust_9="22.56563"></scales>
<clustering>
<clus scale="   22.566">  1  9  2 -1</clus>
<clus scale="   80.190">  5  6 -1 -1</clus>
<clus scale="   91.577">  7  8 -1 -1</clus>
<clus scale="  103.154">  1  5  2 -1</clus>
<clus scale="   22.566">  1  5  2 -1</clus>
</clustering>
</event>
<event>
 9    2  0.6066854E-005  0.9675722E+02  0.7546771E-02  0.1292672E+00
          2   -1    0    0  502    0  0.00000000000E+00  0.00000000000E+00  0.59185108423E+03  0.59185108423E+03  0.00000000000E+00 0. -1.
         -1   -1    0    0    0  501 -0.00000000000E+00 -0.00000000000E+00 -0.27236152172E+02  0.27236152172E+02  0.00000000000E+00 0.  1.
         24    2    1    2    0    0  0.34829508084E+02  0.31832440444E+02  0.27289903388E+03  0.28834402534E+03  0.80262041824E+02 0.  0.
         23    2    1    2    0    0  0.34853063674E+01 -0.29542666775E+02  0.27084165029E+03  0.28705108025E+03  0.90322791278E+02 0.  0.
        -11    1    3    3    0    0  0.42209931146E+02  0.15162793599E+02  0.61271733305E+02  0.75932956608E+02  0.00000000000E+00 0.  1.
         12    1    3    3    0    0 -0.73804230614E+01  0.16669646845E+02  0.21162730057E+03  0.21241106873E+03  0.00000000000E+00 0. -1.
        -11    1    4    4    0    0 -0.39410061997E+02 -0.33613723826E+02  0.15727166707E+03  0.16558204214E+03  0.00000000000E+00 0.  1.
         11    1    4    4    0    0  0.42895368364E+02  0.40710570505E+01  0.11356998321E+03  0.12146903811E+03  0.00000000000E+00 0. -1.
         21    1    1    2  502  501 -0.38314814452E+02 -0.22897736688E+01  0.20874247897E+02  0.43692130815E+02  0.00000000000E+00 0.  1.
<scales pt_clust_5="13000.00000" pt_clust_6="13000.00000" pt_clust_7="13000.00000" pt_clust_8="13000.00000" pt_clust_9="38.38317"></scales>
<clustering>
<clus scale="   38.383">  2  9  1 -1</clus>
<clus scale="   80.262">  5  6 -1 -1</clus>
<clus scale="   87.440">  2  5  1 -1</clus>
<clus scale="   90.323">  7  8 -1 -1</clus>
<clus scale="   96.757">  1  5  2 -1</clus>
</clustering>
</event>
<event>
 9    2  0.8436032E-005  0.1441263E+03  0.7546771E-02  0.1210655E+00
          2   -1    0    0  502    0  0.00000000000E+00  0.00000000000E+00  0.30256899182E+03  0.30256899182E+03  0.00000000000E+00 0. -1.
         -1   -1    0    0    0  501 -0.00000000000E+00 -0.00000000000E+00 -0.41865006068E+03  0.41865006068E+03  0.00000000000E+00 0.  1.
         23    2    1    2    0    0  0.93549085844E+02 -0.13409472882E+02 -0.36598650482E+03  0.38934893275E+03  0.93355365662E+02 0.  0.
         24    2    1    2    0    0 -0.11017446699E+03 -0.93945621081E+01  0.26630622431E+03  0.29922945234E+03  0.79953668270E+02 0.  0.
        -13    1    4    4    0    0 -0.65043431123E+01 -0.26038954705E+02  0.27836529270E+02  0.38667893701E+02  0.00000000000E+00 0.  1.
         14    1    4    4    0    0 -0.10367012388E+03  0.16644392597E+02  0.23846969504E+03  0.26056155864E+03  0.00000000000E+00 0. -1.
        -13    1    3    3    0    0  0.66246810470E+02  0.24031871042E+02 -0.30339044760E+03  0.31146738901E+03  0.00000000000E+00 0.  1.
         13    1    3    3    0    0  0.27302275374E+02 -0.37441343924E+02 -0.62596057218E+02  0.77881543736E+02  0.00000000000E+00 0. -1.
         21    1    1    2  502  501  0.16625381150E+02  0.22804034990E+02 -0.16400788353E+02  0.32640667408E+02  0.00000000000E+00 0.  1.
<scales pt_clust_5="13000.00000" pt_clust_6="13000.00000" pt_clust_7="13000.00000" pt_clust_8="13000.00000" pt_clust_9="28.22104"></scales>
<clustering>
<clus scale="   28.221">  2  9  1 -1</clus>
<clus scale="   79.954">  5  6 -1 -1</clus>
<clus scale="   93.355">  7  8 -1 -1</clus>
<clus scale="  135.830">  1  5  2 -1</clus>
<clus scale="  135.830">  1  5  2 -1</clus>
</clustering>
</event>
<event>
 9    2  0.6066854E-005  0.1200859E+03  0.7546771E-02  0.1246440E+00
         -3   -1    0    0    0  501 -0.00000000000E+00  0.00000000000E+00  0.10425172109E+03  0.10425172109E+03  0.00000000000E+00 0.  1.
          4   -1    0    0  502    0  0.00000000000E+00 -0.00000000000E+00 -0.41945378563E+03  0.41945378563E+03  0.00000000000E+00 0. -1.
         23    2    1    2    0    0  0.75800223692E+02  0.18215258768E+02  0.34769744289E+02  0.12473938543E+03  0.90958834621E+02 0.  0.
         24    2    1    2    0    0 -0.62567513013E+02 -0.75353383248E+02 -0.28298949334E+03  0.30993522503E+03  0.79899714140E+02 0.  0.
        -11    1    4    4    0    0  0.48966029171E+01 -0.39351553594E+02 -0.45085325224E+02  0.60043384655E+02  0.00000000000E+00 0.  1.
         12    1    4    4    0    0 -0.67464115930E+02 -0.36001829655E+02 -0.23790416812E+03  0.24989184037E+03  0.00000000000E+00 0. -1.
        -11    1    3    3    0    0  0.17305100683E+02 -0.35919675664E+02  0.15207092397E+02  0.42672535296E+02  0.00000000000E+00 0.  1.
         11    1    3    3    0    0  0.58495123009E+02  0.54134934432E+02  0.19562651892E+02  0.82066850133E+02  0.00000000000E+00 0. -1.
         21    1    1    2  502  501 -0.13232710679E+02  0.57138124481E+02 -0.66982315481E+02  0.89030896257E+02  0.00000000000E+00 0.  1.
<scales pt_clust_5="13000.00000" pt_clust_6="13000.00000" pt_clust_7="13000.00000" pt_clust_8="13000.00000" pt_clust_9="58.65040"></scales>
<clustering>
<clus scale="   58.650">  2  9  1 -1</clus>
<clus scale="   79.900">  5  6 -1 -1</clus>
<clus scale="   90.959">  7  8 -1 -1</clus>
<clus scale="  111.942">  2  5  1 -1</clus>
<clus scale="   58.650">  2  5  1 -1</clus>
</clustering>
</event>
<event>
 9    2  0.6066854E-005  0.1040174E+03  0.7546771E-02  0.1277612E+00
          2   -1    0    0  502    0  0.00000000000E+00  0.00000000000E+00  0.94479853605E+03  0.94479853605E+03  0.00000000000E+00 0. -1.
         -1   -1    0    0    0  501 -0.00000000000E+00 -0.00000000000E+00 -0.30025383492E+02  0.30025383492E+02  0.00000000000E+00 0.  1.
         23    2    1    2    0    0 -0.19794285904E+02 -0.78928719120E+01  0.10624688696E+03  0.14230377237E+03  0.92238015268E+02 0.  0.
         24    2    1    2    0    0  0.52614877346E+02  0.79484435515E+00  0.78657247328E+03  0.79240104680E+03  0.80213503516E+02 0.  0.
        -13    1    4    4    0    0 -0.83565101510E+01  0.21877643986E+02  0.95736434101E+02  0.98559258229E+02  0.00000000000E+00 0.  1.
         14    1    4    4    0    0  0.60971387497E+02 -0.21082799631E+02  0.69083603918E+03  0.69384178857E+03  0.00000000000E+00 0. -1.
        -11    1    3    3    0    0 -0.18439891447E+02 -0.47472285836E+02  0.79856006510E+02  0.94713406098E+02  0.00000000000E+00 0.  1.
         11    1    3    3    0    0 -0.13543944563E+01  0.39579413924E+02  0.26390880447E+02  0.47590366270E+02  0.00000000000E+00 0. -1.
         21    1    1    2  502  501 -0.32820591443E+02  0.70980275569E+01  0.21953792319E+02  0.40119100377E+02  0.00000000000E+00 0.  1.
<scales pt_clust_5="13000.00000" pt_clust_6="13000.00000" pt_clust_7="13000.00000" pt_clust_8="13000.00000" pt_clust_9="33.57936"></scales>
<clustering>
<clus scale="   33.579">  2  9  1 -1</clus>
<clus scale="   80.214">  5  6 -1 -1</clus>
<clus scale="   92.238">  7  8 -1 -1</clus>
<clus scale="   93.520">  1  5  2 -1</clus>
<clus scale="   93.520">  1  5  2 -1</clus>
</clustering>
</event>
<event>
 9    2  0.6066854E-005  0.9759946E+02  0.7546771E-02  0.1290399E+00
         -1   -1    0    0    0  501 -0.00000000000E+00  0.00000000000E+00  0.32954247127E+02  0.32954247127E+02  0.00000000000E+00 0.  1.
          2   -1    0    0  502    0  0.00000000000E+00 -0.00000000000E+00 -0.38648742220E+03  0.38648742220E+03  0.00000000000E+00 0. -1.
         24    2    1    2    0    0 -0.32500143714E+02 -0.21715710943E+02 -0.11071260547E+03  0.14156182927E+03  0.79086276002E+02 0.  0.
         23    2    1    2    0    0  0.44554638417E+02 -0.56452697663E+00 -0.22760310702E+03  0.24832834244E+03  0.88760108376E+02 0.  0.
        -11    1    3    3    0    0 -0.44803100016E+02 -0.17030810981E+02 -0.23537552196E+02  0.53398339460E+02  0.00000000000E+00 0.  1.
         12    1    3    3    0    0  0.12302956302E+02 -0.46848999624E+01 -0.87175053274E+02  0.88163489806E+02  0.00000000000E+00 0. -1.
        -11    1    4    4    0    0  0.68339647591E+01 -0.40358438717E+02 -0.65856678433E+02  0.77541013304E+02  0.00000000000E+00 0.  1.
         11    1    4    4    0    0  0.37720673658E+02  0.39793911741E+02 -0.16174642859E+03  0.17078732914E+03  0.00000000000E+00 0. -1.
         21    1    1    2  502  501 -0.12054494703E+02  0.22280237920E+02 -0.15217462587E+02  0.29551497625E+02  0.00000000000E+00 0.  1.
<scales pt_clust_5="13000.00000" pt_clust_6="13000.00000" pt_clust_7="13000.00000" pt_clust_8="13000.00000" pt_clust_9="25.33219"></scales>
<clustering>
<clus scale="   25.332">  1  9  2 -1</clus>
<clus scale="   79.086">  5  6 -1 -1</clus>
<clus scale="   88.760">  7  8 -1 -1</clus>
<clus scale="   88.893">  1  5  2 -1</clus>
<clus scale="   97.599">  2  5  1 -1</clus>
</clustering>
</event>
<event>
 9    2  0.6066854E-005  0.1117865E+03  0.7546771E-02  0.1261367E+00
          2   -1    0    0  502    0  0.00000000000E+00  0.00000000000E+00  0.56564184362E+03  0.56564184362E+03  0.00000000000E+00 0. -1.
         -1   -1    0    0    0  501 -0.00000000000E+00 -0.00000000000E+00 -0.11251667398E+03  0.11251667398E+03  0.00000000000E+00 0.  1.
         23    2    1    2    0    0  0.49255929135E+02 -0.60674775546E+02 -0.41774686876E+02  0.12569945036E+03  0.89149606926E+02 0.  0.
         24    2    1    2    0    0 -0.27456632389E+02  0.61049672377E+02  0.51356187624E+03  0.52376027169E+03  0.78090283076E+02 0.  0.
        -13    1    4    4    0    0 -0.42850716647E+02  0.32878509774E+02  0.16265423632E+03  0.17138722507E+03  0.00000000000E+00 0.  1.
         14    1    4    4    0    0  0.15394084258E+02  0.28171162603E+02  0.35090763992E+03  0.35237304662E+03  0.00000000000E+00 0. -1.
        -11    1    3    3    0    0  0.44229174032E+02 -0.81484755327E+02 -0.46580728372E+02  0.10375812952E+03  0.00000000000E+00 0.  1.
         11    1    3    3    0    0  0.50267551034E+01  0.20809979781E+02  0.48060414952E+01  0.21941320840E+02  0.00000000000E+00 0. -1.
         21    1    1    2  502  501 -0.21799296746E+02 -0.37489683099E+00 -0.18662019722E+02  0.28698795556E+02  0.00000000000E+00 0.  1.
<scales pt_clust_5="13000.00000" pt_clust_6="13000.00000" pt_clust_7="13000.00000" pt_clust_8="13000.00000" pt_clust_9="21.80252"></scales>
<clustering>
<clus scale="   21.803">  2  9  1 -1</clus>
<clus scale="   78.090">  5  6 -1 -1</clus>
<clus scale="   89.150">  7  8 -1 -1</clus>
<clus scale="  103.183">  1  5  2 -1</clus>
<clus scale="  103.183">  1  5  2 -1</clus>
</clustering>
</event>
<event>
 9    2  0.6066854E-005  0.4617146E+03  0.7546771E-02  0.1024285E+00
          2   -1    0    0  502    0  0.00000000000E+00  0.00000000000E+00  0.38749063711E+03  0.38749063711E+03  0.00000000000E+00 0. -1.
         -1   -1    0    0    0  501 -0.00000000000E+00 -0.00000000000E+00 -0.54451747183E+03  0.54451747183E+03  0.00000000000E+00 0.  1.
         24    2    1    2    0    0  0.12103235357E+03 -0.15172487057E+03 -0.98908455351E+01  0.21043604093E+03  0.80723178415E+02 0.  0.
         23    2    1    2    0    0  0.18648314667E+03 -0.13462271958E+03  0.58373253407E+02  0.25381703162E+03  0.90091110593E+02 0.  0.
        -11    1    3    3    0    0  0.63135615651E+02 -0.95428258444E+02  0.32880512445E+02  0.11905371297E+03  0.00000000000E+00 0.  1.
         12    1    3    3    0    0  0.57896737923E+02 -0.56296612128E+02 -0.42771357980E+02  0.91382327956E+02  0.00000000000E+00 0. -1.
        -11    1    4    4    0    0  0.60134081792E+02 -0.71777699103E+02 -0.14893068968E+02  0.94815343615E+02  0.00000000000E+00 0.  1.
         11    1    4    4    0    0  0.12634906488E+03 -0.62845020481E+02  0.73266322375E+02  0.15900168800E+03  0.00000000000E+00 0. -1.
         21    1    1    2  502  501 -0.30751550024E+03  0.28634759016E+03 -0.20550924260E+03  0.46775503639E+03  0.00000000000E+00 0.  1.
<scales pt_clust_5="13000.00000" pt_clust_6="13000.00000" pt_clust_7="13000.00000" pt_clust_8="13000.00000" pt_clust_9="420.19130"></scales>
<clustering>
<clus scale="   80.723">  5  6 -1 -1</clus>
<clus scale="   90.091">  7  8 -1 -1</clus>
<clus scale="  119.535">  5  7 -1 -1</clus>
<clus scale="  420.191">  2  9  1 -1</clus>
<clus scale="  461.715">  1  5  2 -1</clus>
</clustering>
</event>
<event>
 9    2  0.6066854E-005  0.1036022E+03  0.7546771E-02  0.1278372E+00
          2   -1    0    0  502    0  0.00000000000E+00  0.00000000000E+00  0.10595726031E+03  0.10595726031E+03  0.00000000000E+00 0. -1.
         -1   -1    0    0    0  501 -0.00000000000E+00 -0.00000000000E+00 -0.25903431050E+03  0.25903431050E+03  0.00000000000E+00 0.  1.
         24    2    1    2    0    0 -0.24031403035E+02 -0.48894944024E+02 -0.49441284864E+02  0.10887243872E+03  0.80252996084E+02 0.  0.
         23    2    1    2    0    0  0.35666449247E+01  0.45481635091E+02  0.40554299125E+02  0.11044404263E+03  0.92043116470E+02 0.  0.
        -13    1    3    3    0    0 -0.20585542735E+02 -0.34012313590E+02 -0.71635899951E+02  0.81928653151E+02  0.00000000000E+00 0.  1.
         14    1    3    3    0    0 -0.34458602995E+01 -0.14882630434E+02  0.22194615087E+02  0.26943785567E+02  0.00000000000E+00 0. -1.
        -13    1    4    4    0    0  0.21969528715E+02  0.59393727869E+02  0.54446286668E+02  0.83514509123E+02  0.00000000000E+00 0. -1.
         13    1    4    4    0    0 -0.18402883790E+02 -0.13912092778E+02 -0.13891987544E+02  0.26929533512E+02  0.00000000000E+00 0.  1.
         21    1    1    2  502  501  0.20464758110E+02  0.34133089333E+01 -0.14419006445E+03  0.14567508946E+03  0.00000000000E+00 0.  1.
<scales pt_clust_5="13000.00000" pt_clust_6="13000.00000" pt_clust_7="13000.00000" pt_clust_8="13000.00000" pt_clust_9="20.74746"></scales>
<clustering>
<clus scale="   20.747">  2  9  1 -1</clus>
<clus scale="   80.253">  5  6 -1 -1</clus>
<clus scale="   92.043">  7  8 -1 -1</clus>
<clus scale="   93.285">  2  5  1 -1</clus>
<clus scale="  103.602">  1  5  2 -1</clus>
</clustering>
</event>
<event>
 9    2  0.6066854E-005  0.1988322E+03  0.7546771E-02  0.1152118E+00
         -1   -1    0    0    0  501 -0.00000000000E+00  0.00000000000E+00  0.82765322823E+02  0.82765322823E+02  0.00000000000E+00 0.  1.
          2   -1    0    0  502    0  0.00000000000E+00 -0.00000000000E+00 -0.13295129554E+04  0.13295129554E+04  0.00000000000E+00 0. -1.
         23    2    1    2    0    0  0.42411944826E+02  0.15151619706E+03 -0.68381728103E+02  0.19626019166E+03  0.95320884690E+02 0.  0.
         24    2    1    2    0    0 -0.58568845652E+02 -0.16667736353E+03 -0.11779266233E+04  0.11938573243E+04  0.81071128556E+02 0.  0.
        -13    1    4    4    0    0 -0.39606209138E+02 -0.41917629610E+02 -0.21130234776E+03  0.21903064088E+03  0.00000000000E+00 0.  1.
         14    1    4    4    0    0 -0.18962636515E+02 -0.12475973392E+03 -0.96662427551E+03  0.97482668347E+03  0.00000000000E+00 0. -1.
        -11    1    3    3    0    0  0.17341695904E+02  0.12768992005E+03 -0.88427581513E+02  0.15628463543E+03  0.00000000000E+00 0.  1.
         11    1    3    3    0    0  0.25070248922E+02  0.23826277006E+02  0.20045853411E+02  0.39975556231E+02  0.00000000000E+00 0. -1.
         21    1    1    2  502  501  0.16156900826E+02  0.15161166475E+02 -0.43928118413E+00  0.22160762197E+02  0.00000000000E+00 0. -1.
<scales pt_clust_5="13000.00000" pt_clust_6="13000.00000" pt_clust_7="13000.00000" pt_clust_8="13000.00000" pt_clust_9="22.15641"></scales>
<clustering>
<clus scale="   22.156">  1  9  2 -1</clus>
<clus scale="   81.071">  5  6 -1 -1</clus>
<clus scale="   95.321">  7  8 -1 -1</clus>
<clus scale="  192.408">  2  5  1 -1</clus>
<clus scale="  192.408">  2  5  1 -1</clus>
</clustering>
</event>
<event>
 9    2  0.6066854E-005  0.9386933E+02  0.7546771E-02  0.1300485E+00
          2   -1    0    0  502    0  0.00000000000E+00  0.00000000000E+00  0.10777587860E+04  0.10777587860E+04  0.00000000000E+00 0. -1.
         -1   -1    0    0    0  501 -0.00000000000E+00 -0.00000000000E+00 -0.33140199822E+02  0.33140199822E+02  0.00000000000E+00 0.  1.
         23    2    1    2    0    0 -0.57191681095E+02  0.58775679215E+01  0.44617885295E+03  0.45896815947E+03  0.90943765026E+02 0.  0.
         24    2    1    2    0    0  0.90121534082E+01 -0.31249086662E-01  0.59806547260E+03  0.60339644267E+03  0.79521931696E+02 0.  0.
        -11    1    4    4    0    0  0.18529939044E+02 -0.32151511563E+02  0.16905539580E+03  0.17308034315E+03  0.00000000000E+00 0.  1.
         12    1    4    4    0    0 -0.95177856356E+01  0.32120262476E+02  0.42901007680E+03  0.43031609951E+03  0.00000000000E+00 0. -1.
        -11    1    3    3    0    0  0.23816569587E+02  0.86429268505E+01  0.79597191095E+02  0.83532281195E+02  0.00000000000E+00 0.  1.
         11    1    3    3    0    0 -0.81008250681E+02 -0.27653589290E+01  0.36658166185E+03  0.37543587828E+03  0.00000000000E+00 0. -1.
         21    1    1    2  502  501  0.48179527687E+02 -0.58463188348E+01  0.37426066332E+00  0.48534383720E+02  0.00000000000E+00 0.  1.
<scales pt_clust_5="13000.00000" pt_clust_6="13000.00000" pt_clust_7="13000.00000" pt_clust_8="13000.00000" pt_clust_9="48.53294"></scales>
<clustering>
<clus scale="   48.533">  2  9  1 -1</clus>
<clus scale="   79.522">  5  6 -1 -1</clus>
<clus scale="   82.852">  1  5  2 -1</clus>
<clus scale="   90.944">  7  8 -1 -1</clus>
<clus scale="   82.852">  1  5  2 -1</clus>
</clustering>
</event>
<event>
 9    2  0.6066854E-005  0.1205161E+03  0.7546771E-02  0.1245417E+00
          2   -1    0    0  502    0  0.00000000000E+00  0.00000000000E+00  0.82051634774E+03  0.82051634774E+03  0.00000000000E+00 0. -1.
         -1   -1    0    0    0  501 -0.00000000000E+00 -0.00000000000E+00 -0.25536573811E+02  0.25536573811E+02  0.00000000000E+00 0.  1.
         23    2    1    2    0    0 -0.26766450645E+02  0.58539921304E+02  0.16546781440E+03  0.19933508009E+03  0.90617389549E+02 0.  0.
         24    2    1    2    0    0  0.16472038853E+02 -0.83782476415E+02  0.55779248090E+03  0.56999206275E+03  0.80421815648E+02 0.  0.
        -11    1    4    4    0    0 -0.25662305537E+02 -0.62072106274E+01  0.84212130274E+02  0.88253987301E+02  0.00000000000E+00 0.  1.
         12    1    4    4    0    0  0.42134344389E+02 -0.77575265787E+02  0.47358035063E+03  0.48173807545E+03  0.00000000000E+00 0. -1.
        -11    1    3    3    0    0 -0.12478090040E+01  0.29404330557E+02  0.36938912470E-01  0.29430817985E+02  0.00000000000E+00 0.  1.
         11    1    3    3    0    0 -0.25518641641E+02  0.29135590747E+02  0.16543087548E+03  0.16990426211E+03  0.00000000000E+00 0. -1.
         21    1    1    2  502  501  0.10294411792E+02  0.25242555111E+02  0.71719478629E+02  0.76725778703E+02  0.00000000000E+00 0.  1.
<scales pt_clust_5="13000.00000" pt_clust_6="13000.00000" pt_clust_7="13000.00000" pt_clust_8="13000.00000" pt_clust_9="27.26099"></scales>
<clustering>
<clus scale="   27.261">  2  9  1 -1</clus>
<clus scale="   80.422">  5  6 -1 -1</clus>
<clus scale="   90.617">  7  8 -1 -1</clus>
<clus scale="  113.050">  1  5  2 -1</clus>
<clus scale="  113.050">  1  5  2 -1</clus>
</clustering>
</event>
<event>
 9    2  0.6066854E-005  0.1293004E+03  0.7546771E-02  0.1231662E+00
          2   -1    0    0  502    0  0.00000000000E+00  0.00000000000E+00  0.63053812973E+03  0.63053812973E+03  0.00000000000E+00 0. -1.
         -1   -1    0    0    0  501 -0.00000000000E+00 -0.00000000000E+00 -0.34983435924E+02  0.34983435924E+02  0.00000000000E+00 0.  1.
         23    2    1    2    0    0 -0.57598539946E+02 -0.67713551763E+02  0.15659577300E+03  0.20159919791E+03  0.90649233735E+02 0.  0.
         24    2    1    2    0    0  0.79063448899E+02  0.62471373127E+02  0.38361400415E+03  0.40432972934E+03  0.78543774024E+02 0.  0.
        -13    1    4    4    0    0  0.73280705748E+02  0.26492941897E+02  0.33279592852E+03  0.34179682246E+03  0.00000000000E+00 0.  1.
         14    1    4    4    0    0  0.57827431511E+01  0.35978431231E+02  0.50818075625E+02  0.62532906876E+02  0.00000000000E+00 0. -1.
        -13    1    3    3    0    0 -0.62270303815E+02 -0.32570090806E+02  0.14985127638E+03  0.16551074462E+03  0.00000000000E+00 0. -1.
         13    1    3    3    0    0  0.46717638691E+01 -0.35143460957E+02  0.67444966241E+01  0.36088453283E+02  0.00000000000E+00 0.  1.
         21    1    1    2  502  501 -0.21464908953E+02  0.52421786359E+01  0.55344916658E+02  0.59592638414E+02  0.00000000000E+00 0. -1.
<scales pt_clust_5="13000.00000" pt_clust_6="13000.00000" pt_clust_7="13000.00000" pt_clust_8="13000.00000" pt_clust_9="22.09576"></scales>
<clustering>
<clus scale="   22.096">  1  9  2 -1</clus>
<clus scale="   78.544">  5  6 -1 -1</clus>
<clus scale="   90.649">  7  8 -1 -1</clus>
<clus scale="  121.122">  1  5  2 -1</clus>
<clus scale="   22.096">  1  5  2 -1</clus>
</clustering>
</event>
<event>
 9    2  0.6066854E-005  0.1056410E+03  0.7546771E-02  0.1273998E+00
          2   -1    0    0  502    0  0.00000000000E+00  0.00000000000E+00  0.31331253924E+03  0.31331253924E+03  0.00000000000E+00 0. -1.
         -1   -1    0    0    0  501 -0.00000000000E+00 -0.00000000000E+00 -0.64993851045E+02  0.64993851045E+02  0.00000000000E+00 0.  1.
         24    2    1    2    0    0  0.10816598993E+02  0.42871524141E+02  0.35994122887E+02  0.98976178382E+02  0.80905751395E+02 0.  0.
         23    2    1    2    0    0 -0.32665813980E+02 -0.43834814771E+02  0.22825546274E+03  0.25227268768E+03  0.92479220863E+02 0.  0.
        -11    1    3    3    0    0  0.31358894382E+02  0.24723705107E+02 -0.13705086257E+02  0.42219323069E+02  0.00000000000E+00 0.  1.
         12    1    3    3    0    0 -0.20542295388E+02  0.18147819034E+02  0.49699209144E+02  0.56756855313E+02  0.00000000000E+00 0. -1.
        -11    1    4    4    0    0 -0.27690994388E+02  0.17707005167E+02  0.14466546717E+03  0.14835237306E+03  0.00000000000E+00 0.  1.
         11    1    4    4    0    0 -0.49748195912E+01 -0.61541819938E+02  0.83589995570E+02  0.10392031462E+03  0.00000000000E+00 0. -1.
         21    1    1    2  502  501  0.21849214986E+02  0.96329063046E+00 -0.15930897426E+02  0.27057524225E+02  0.00000000000E+00 0. -1.
<scales pt_clust_5="13000.00000" pt_clust_6="13000.00000" pt_clust_7="13000.00000" pt_clust_8="13000.00000" pt_clust_9="21.87044"></scales>
<clustering>
<clus scale="   21.870">  2  9  1 -1</clus>
<clus scale="   80.906">  5  6 -1 -1</clus>
<clus scale="   92.479">  7  8 -1 -1</clus>
<clus scale="   95.673">  2  5  1 -1</clus>
<clus scale="  105.641">  1  5  2 -1</clus>
</clustering>
</event>
<event>
 9    2  0.6066854E-005  0.1523423E+03  0.7546771E-02  0.1201816E+00
         -1   -1    0    0    0  501 -0.00000000000E+00  0.00000000000E+00  0.12968872184E+03  0.12968872184E+03  0.00000000000E+00 0.  1.
          2   -1    0    0  502    0  0.00000000000E+00 -0.00000000000E+00 -0.39825855900E+03  0.39825855900E+03  0.00000000000E+00 0. -1.
         24    2    1    2    0    0  0.64062201959E+02  0.68825786012E+02  0.50757814090E+02  0.13531281698E+03  0.83019565218E+02 0.  0.
         23    2    1    2    0    0 -0.77486645634E+02 -0.84712440771E+02 -0.33338060343E+03  0.36753293098E+03  0.10371813122E+03 0.  0.
        -13    1    3    3    0    0  0.30910208716E+02  0.29132464181E+02  0.68531684555E+02  0.80627124840E+02  0.00000000000E+00 0.  1.
         14    1    3    3    0    0  0.33151993243E+02  0.39693321831E+02 -0.17773870465E+02  0.54685692144E+02  0.00000000000E+00 0. -1.
        -13    1    4    4    0    0 -0.52115635003E+02 -0.33450742595E+02 -0.53404818466E+02  0.81774483963E+02  0.00000000000E+00 0.  1.
         13    1    4    4    0    0 -0.25371010631E+02 -0.51261698176E+02 -0.27997578496E+03  0.28575844702E+03  0.00000000000E+00 0. -1.
         21    1    1    2  502  501  0.13424443674E+02  0.15886654759E+02  0.14052952182E+02  0.25101532870E+02  0.00000000000E+00 0.  1.
<scales pt_clust_5="13000.00000" pt_clust_6="13000.00000" pt_clust_7="13000.00000" pt_clust_8="13000.00000" pt_clust_9="20.79907"></scales>
<clustering>
<clus scale="   20.799">  1  9  2 -1</clus>
<clus scale="   83.020">  5  6 -1 -1</clus>
<clus scale="  103.718">  7  8 -1 -1</clus>
<clus scale="  139.079">  1  5  2 -1</clus>
<clus scale="  152.342">  2  5  1 -1</clus>
</clustering>
</event>
<event>
 9    2  0.6066854E-005  0.2675338E+03  0.7546771E-02  0.1103653E+00
          2   -1    0    0  502    0  0.00000000000E+00  0.00000000000E+00  0.16010076082E+03  0.16010076082E+03  0.00000000000E+00 0. -1.
         -1   -1    0    0    0  501 -0.00000000000E+00 -0.00000000000E+00 -0.50958997876E+03  0.50958997876E+03  0.00000000000E+00 0.  1.
         24    2    1    2    0    0  0.23417024265E+03 -0.91273276229E+02 -0.23412830765E+03  0.35249718283E+03  0.79193976839E+02 0.  0.
         23    2    1    2    0    0 -0.23818745023E+03  0.61023641035E+02 -0.10554255807E+03  0.28513769260E+03  0.98524748000E+02 0.  0.
        -11    1    3    3    0    0  0.17371172374E+03 -0.28705961902E+02 -0.14699835612E+03  0.22936501894E+03  0.00000000000E+00 0.  1.
         12    1    3    3    0    0  0.60458518910E+02 -0.62567314327E+02 -0.87129951530E+02  0.12313216389E+03  0.00000000000E+00 0. -1.
        -13    1    4    4    0    0 -0.10711104027E+03  0.14349731528E+02  0.38638084238E+01  0.10813703694E+03  0.00000000000E+00 0. -1.
         13    1    4    4    0    0 -0.13107640996E+03  0.46673909508E+02 -0.10940636650E+03  0.17700065567E+03  0.00000000000E+00 0.  1.
         21    1    1    2  502  501  0.40172075760E+01  0.30249635194E+02 -0.98183522165E+01  0.32055864149E+02  0.00000000000E+00 0. -1.
<scales pt_clust_5="13000.00000" pt_clust_6="13000.00000" pt_clust_7="13000.00000" pt_clust_8="13000.00000" pt_clust_9="30.51522"></scales>
<clustering>
<clus scale="   30.515">  1  9  2 -1</clus>
<clus scale="   79.194">  5  6 -1 -1</clus>
<clus scale="   98.525">  7  8 -1 -1</clus>
<clus scale="  261.034">  2  5  1 -1</clus>
<clus scale="   30.515">  1  5  2 -1</clus>
</clustering>
</event>
<event>
 9    2  0.6066854E-005  0.1113028E+03  0.7546771E-02  0.1262325E+00
          2   -1    0    0  502    0  0.00000000000E+00  0.00000000000E+00  0.22690745267E+03  0.22690745267E+03  0.00000000000E+00 0. -1.
         -1   -1    0    0    0  501 -0.00000000000E+00 -0.00000000000E+00 -0.87713441267E+02  0.87713441267E+02  0.00000000000E+00 0.  1.
         23    2    1    2    0    0  0.39539983930E+02 -0.23987447515E+02 -0.12453907057E+02  0.10253869826E+03  0.90665742550E+02 0.  0.
         24    2    1    2    0    0 -0.61462908234E+02  0.33039960298E+02  0.15538556400E+03  0.18807110258E+03  0.79729154399E+02 0.  0.
        -13    1    4    4    0    0 -0.72687332000E+02  0.10102522859E+02  0.80398346478E+02  0.10885496460E+03  0.00000000000E+00 0.  1.
         14    1    4    4    0    0  0.11224423765E+02  0.22937437440E+02  0.74987217521E+02  0.79216137982E+02  0.00000000000E+00 0. -1.
        -13    1    3    3    0    0  0.51875744993E+02 -0.46870470457E+02 -0.24238343336E+02  0.73996156705E+02  0.00000000000E+00 0.  1.
         13    1    3    3    0    0 -0.12335761063E+02  0.22883022942E+02  0.11784436279E+02  0.28542541554E+02  0.00000000000E+00 0. -1.
         21    1    1    2  502  501  0.21922924304E+02 -0.90525127836E+01 -0.37376455351E+01  0.24011093101E+02  0.00000000000E+00 0.  1.
<scales pt_clust_5="13000.00000" pt_clust_6="13000.00000" pt_clust_7="13000.00000" pt_clust_8="13000.00000" pt_clust_9="23.71840"></scales>
<clustering>
<clus scale="   23.718">  2  9  1 -1</clus>
<clus scale="   79.729">  5  6 -1 -1</clus>
<clus scale="   90.666">  7  8 -1 -1</clus>
<clus scale="  102.590">  1  5  2 -1</clus>
<clus scale="  102.590">  1  5  2 -1</clus>
</clustering>
</event>
<event>
 9    2  0.6066854E-005  0.1609372E+03  0.7546771E-02  0.1192462E+00
          2   -1    0    0  502    0  0.00000000000E+00  0.00000000000E+00  0.60097331872E+03  0.60097331872E+03  0.00000000000E+00 0. -1.
         -1   -1    0    0    0  501 -0.00000000000E+00 -0.00000000000E+00 -0.50208903736E+02  0.50208903736E+02  0.00000000000E+00 0.  1.
         23    2    1    2    0    0 -0.64174467221E+02 -0.97253426075E+02  0.17291539137E+03  0.23660823736E+03  0.11183529983E+03 0.  0.
         24    2    1    2    0    0  0.80539119759E+02  0.83467196896E+02  0.35415942946E+03  0.38265128410E+03  0.86831912221E+02 0.  0.
        -13    1    4    4    0    0  0.62852556445E+02  0.35287395371E+01  0.14820925348E+03  0.16102446607E+03  0.00000000000E+00 0.  1.
         14    1    4    4    0    0  0.17686563314E+02  0.79938457359E+02  0.20595017597E+03  0.22162681803E+03  0.00000000000E+00 0. -1.
        -13    1    3    3    0    0 -0.52514976674E+02 -0.11795806381E+03  0.11094091093E+03  0.17023458318E+03  0.00000000000E+00 0.  1.
         13    1    3    3    0    0 -0.11659490547E+02  0.20704637730E+02  0.61974480447E+02  0.66373654186E+02  0.00000000000E+00 0. -1.
         21    1    1    2  502  501 -0.16364652538E+02  0.13786229179E+02  0.23689594155E+02  0.31922700996E+02  0.00000000000E+00 0. -1.
<scales pt_clust_5="13000.00000" pt_clust_6="13000.00000" pt_clust_7="13000.00000" pt_clust_8="13000.00000" pt_clust_9="21.39771"></scales>
<clustering>
<clus scale="   21.398">  2  9  1 -1</clus>
<clus scale="   86.832">  5  6 -1 -1</clus>
<clus scale="  111.835">  7  8 -1 -1</clus>
<clus scale="  144.684">  1  5  2 -1</clus>
<clus scale="  144.684">  1  5  2 -1</clus>
</clustering>
</event>
<event>
 9    2  0.6066854E-005  0.9550366E+02  0.7546771E-02  0.1296741E+00
         -1   -1    0    0    0  501 -0.00000000000E+00  0.00000000000E+00  0.34898989692E+02  0.34898989692E+02  0.00000000000E+00 0.  1.
          2   -1    0    0  502    0  0.00000000000E+00 -0.00000000000E+00 -0.40250952559E+03  0.40250952559E+03  0.00000000000E+00 0. -1.
         24    2    1    2    0    0 -0.10301506337E+02  0.62954828115E+01 -0.53406167690E+02  0.96918925840E+02  0.79970652755E+02 0.  0.
         23    2    1    2    0    0  0.32410966120E+02  0.75501684094E+01 -0.28547890241E+03  0.30168646257E+03  0.91700829928E+02 0.  0.
        -11    1    3    3    0    0  0.21315708459E+02  0.32891829134E+02 -0.21402477745E+02  0.44657562681E+02  0.00000000000E+00 0.  1.
         12    1    3    3    0    0 -0.31617214796E+02 -0.26596346323E+02 -0.32003689945E+02  0.52261363160E+02  0.00000000000E+00 0. -1.
        -13    1    4    4    0    0  0.22554609665E+02 -0.41265831283E+02 -0.15704866128E+03  0.16393858990E+03  0.00000000000E+00 0. -1.
         13    1    4    4    0    0  0.98563564555E+01  0.48815999693E+02 -0.12843024113E+03  0.13774787267E+03  0.00000000000E+00 0.  1.
         21    1    1    2  502  501 -0.22109459783E+02 -0.13845651221E+02 -0.28725465793E+02  0.38803126867E+02  0.00000000000E+00 0.  1.
<scales pt_clust_5="13000.00000" pt_clust_6="13000.00000" pt_clust_7="13000.00000" pt_clust_8="13000.00000" pt_clust_9="26.08698"></scales>
<clustering>
<clus scale="   26.087">  1  9  2 -1</clus>
<clus scale="   79.971">  5  6 -1 -1</clus>
<clus scale="   84.304">  1  5  2 -1</clus>
<clus scale="   91.701">  7  8 -1 -1</clus>
<clus scale="   95.504">  2  5  1 -1</clus>
</clustering>
</event>
<event>
 9    2  0.6066854E-005  0.1093722E+03  0.7546771E-02  0.1266002E+00
         -1   -1    0    0    0  501 -0.00000000000E+00  0.00000000000E+00  0.75738839382E+02  0.75738839382E+02  0.00000000000E+00 0.  1.
          2   -1    0    0  502    0  0.00000000000E+00 -0.00000000000E+00 -0.34921284763E+03  0.34921284763E+03  0.00000000000E+00 0. -1.
         23    2    1    2    0    0  0.29847447009E+02  0.82223829401E+02 -0.70162042103E+02  0.14422108204E+03  0.90693881486E+02 0.  0.
         24    2    1    2    0    0 -0.42531507309E+02 -0.36153713427E+02 -0.21090176295E+03  0.23234728153E+03  0.79935508447E+02 0.  0.
        -13    1    4    4    0    0 -0.24932207295E+02  0.17554453196E+02 -0.29817690717E+02  0.42648194185E+02  0.00000000000E+00 0.  1.
         14    1    4    4    0    0 -0.17599300013E+02 -0.53708166622E+02 -0.18108407223E+03  0.18969908734E+03  0.00000000000E+00 0. -1.
        -11    1    3    3    0    0  0.49138693453E+02  0.76448123248E+02 -0.80660438060E+02  0.12151145218E+03  0.00000000000E+00 0. -1.
         11    1    3    3    0    0 -0.19291246444E+02  0.57757061527E+01  0.10498395956E+02  0.22709629864E+02  0.00000000000E+00 0.  1.
         21    1    1    2  502  501  0.12684060300E+02 -0.46070115974E+02  0.75897968052E+01  0.48383323440E+02  0.00000000000E+00 0. -1.
<scales pt_clust_5="13000.00000" pt_clust_6="13000.00000" pt_clust_7="13000.00000" pt_clust_8="13000.00000" pt_clust_9="47.78432"></scales>
<clustering>
<clus scale="   47.784">  1  9  2 -1</clus>
<clus scale="   79.936">  5  6 -1 -1</clus>
<clus scale="   90.694">  7  8 -1 -1</clus>
<clus scale="  100.631">  2  5  1 -1</clus>
<clus scale="  100.631">  2  5  1 -1</clus>
</clustering>
</event>
<event>
 9    2  0.6066854E-005  0.2805739E+03  0.7546771E-02  0.1095786E+00
         -3   -1    0    0    0  501 -0.00000000000E+00  0.00000000000E+00  0.30643208095E+03  0.30643208095E+03  0.00000000000E+00 0.  1.
          4   -1    0    0  502    0  0.00000000000E+00 -0.00000000000E+00 -0.38921871755E+03  0.38921871755E+03  0.00000000000E+00 0. -1.
         23    2    1    2    0    0 -0.24304328835E+03 -0.12163502882E+03  0.14703589719E+03  0.32201090592E+03  0.90588896763E+02 0.  0.
         24    2    1    2    0    0  0.21290857270E+03  0.12242837501E+03 -0.22570970984E+03  0.34321546479E+03  0.80828304544E+02 0.  0.
        -11    1    4    4    0    0  0.88621940897E+02  0.66899512224E+02 -0.52245651207E+02  0.12271512219E+03  0.00000000000E+00 0.  1.
         12    1    4    4    0    0  0.12428663180E+03  0.55528862790E+02 -0.17346405864E+03  0.22050034260E+03  0.00000000000E+00 0. -1.
        -11    1    3    3    0    0 -0.12999517620E+03 -0.19014563544E+02  0.88939887045E+02  0.15865245970E+03  0.00000000000E+00 0.  1.
         11    1    3    3    0    0 -0.11304811215E+03 -0.10262046528E+03  0.58096010150E+02  0.16335844622E+03  0.00000000000E+00 0. -1.
         21    1    1    2  502  501  0.30134715653E+02 -0.79334619463E+00 -0.41128239506E+01  0.30424427793E+02  0.00000000000E+00 0.  1.
<scales pt_clust_5="13000.00000" pt_clust_6="13000.00000" pt_clust_7="13000.00000" pt_clust_8="13000.00000" pt_clust_9="30.14516"></scales>
<clustering>
<clus scale="   30.145">  2  9  1 -1</clus>
<clus scale="   80.828">  5  6 -1 -1</clus>
<clus scale="   90.589">  7  8 -1 -1</clus>
<clus scale="  277.576">  2  5  1 -1</clus>
<clus scale="   30.145">  2  5  1 -1</clus>
</clustering>
</event>
<event>
 9    2  0.6066854E-005  0.1018964E+03  0.7546771E-02  0.1280220E+00
          2   -1    0    0  502    0  0.00000000000E+00  0.00000000000E+00  0.20254529588E+03  0.20254529588E+03  0.00000000000E+00 0. -1.
         -1   -1    0    0    0  501 -0.00000000000E+00 -0.00000000000E+00 -0.10198158234E+03  0.10198158234E+03  0.00000000000E+00 0.  1.
         23    2    1    2    0    0  0.29710677013E+02 -0.58404622988E+01 -0.74183625397E+01  0.96840241444E+02  0.91685140191E+02 0.  0.
         24    2    1    2    0    0 -0.48731650657E+02 -0.11160746721E+01  0.13977593477E+03  0.16998994865E+03  0.83565850090E+02 0.  0.
        -13    1    4    4    0    0 -0.16900437076E+02  0.13932077770E+02 -0.37386612756E+01  0.22219476872E+02  0.00000000000E+00 0.  1.
         14    1    4    4    0    0 -0.31831213581E+02 -0.15048152442E+02  0.14351459605E+03  0.14777047177E+03  0.00000000000E+00 0. -1.
        -13    1    3    3    0    0 -0.23213268931E+02  0.11681747108E+02 -0.27263200027E+02  0.37664321919E+02  0.00000000000E+00 0. -1.
         13    1    3    3    0    0  0.52923945944E+02 -0.17522209407E+02  0.19844837487E+02  0.59175919525E+02  0.00000000000E+00 0.  1.
         21    1    1    2  502  501  0.19020973644E+02  0.69565369709E+01 -0.31793858693E+02  0.37696688125E+02  0.00000000000E+00 0.  1.
<scales pt_clust_5="13000.00000" pt_clust_6="13000.00000" pt_clust_7="13000.00000" pt_clust_8="13000.00000" pt_clust_9="20.25317"></scales>
<clustering>
<clus scale="   20.253">  2  9  1 -1</clus>
<clus scale="   83.566">  5  6 -1 -1</clus>
<clus scale="   91.685">  7  8 -1 -1</clus>
<clus scale="   94.657">  1  5  2 -1</clus>
<clus scale="   94.657">  1  5  2 -1</clus>
</clustering>
</event>
<event>
 9    2  0.6066854E-005  0.1716115E+03  0.7546771E-02  0.1178273E+00
         -1   -1    0    0    0  501 -0.00000000000E+00  0.00000000000E+00  0.34207497850E+02  0.34207497850E+02  0.00000000000E+00 0.  1.
          2   -1    0    0  502    0  0.00000000000E+00 -0.00000000000E+00 -0.12813967282E+04  0.12813967282E+04  0.00000000000E+00 0. -1.
         23    2    1    2    0    0  0.92332907568E+02  0.97987252561E+02 -0.42742718729E+03  0.45734504033E+03  0.91343407003E+02 0.  0.
         24    2    1    2    0    0 -0.84362444596E+02 -0.12681233345E+03 -0.80871258008E+03  0.82637652269E+03  0.75390517302E+02 0.  0.
        -13    1    4    4    0    0 -0.77680827798E+02 -0.12854872326E+03 -0.80425336324E+03  0.81815802724E+03  0.00000000000E+00 0.  1.
         14    1    4    4    0    0 -0.66816167985E+01  0.17363898116E+01 -0.44592168467E+01  0.82184954527E+01  0.00000000000E+00 0. -1.
        -11    1    3    3    0    0  0.71275657201E+02  0.73265501582E+02 -0.40544300182E+03  0.41812926321E+03  0.00000000000E+00 0.  1.
         11    1    3    3    0    0  0.21057250368E+02  0.24721750979E+02 -0.21984185466E+02  0.39215777120E+02  0.00000000000E+00 0. -1.
         21    1    1    2  502  501 -0.79704629721E+01  0.28825080885E+02 -0.11049462950E+02  0.31882662992E+02  0.00000000000E+00 0.  1.
<scales pt_clust_5="13000.00000" pt_clust_6="13000.00000" pt_clust_7="13000.00000" pt_clust_8="13000.00000" pt_clust_9="29.90675"></scales>
<clustering>
<clus scale="   29.907">  1  9  2 -1</clus>
<clus scale="   75.391">  5  6 -1 -1</clus>
<clus scale="   91.343">  7  8 -1 -1</clus>
<clus scale="  163.678">  2  5  1 -1</clus>
<clus scale="  163.678">  2  5  1 -1</clus>
</clustering>
</event>
<event>
 9    2  0.6066854E-005  0.1147614E+03  0.7546771E-02  0.1256123E+00
          2   -1    0    0  502    0  0.00000000000E+00  0.00000000000E+00  0.11568600792E+04  0.11568600792E+04  0.00000000000E+00 0. -1.
         -1   -1    0    0    0  501 -0.00000000000E+00 -0.00000000000E+00 -0.39613439444E+02  0.39613439444E+02  0.00000000000E+00 0.  1.
         23    2    1    2    0    0  0.40482854503E+02  0.49103997084E+02  0.13174107420E+03  0.17280244156E+03  0.91950579864E+02 0.  0.
         24    2    1    2    0    0 -0.23128725709E+02 -0.65906877335E+02  0.99275384903E+03  0.99845124001E+03  0.80411563087E+02 0.  0.
        -13    1    4    4    0    0  0.18032514896E+02 -0.15681599618E+02  0.82699945737E+02  0.86083478002E+02  0.00000000000E+00 0.  1.
         14    1    4    4    0    0 -0.41161240605E+02 -0.50225277717E+02  0.91005390330E+03  0.91236776201E+03  0.00000000000E+00 0. -1.
        -13    1    3    3    0    0 -0.69821248919E+01 -0.20332855348E+02  0.54579337903E+02  0.58660712582E+02  0.00000000000E+00 0. -1.
         13    1    3    3    0    0  0.47464979395E+02  0.69436852432E+02  0.77161736302E+02  0.11414172898E+03  0.00000000000E+00 0.  1.
         21    1    1    2  502  501 -0.17354128795E+02  0.16802880251E+02 -0.72482834458E+01  0.25219837110E+02  0.00000000000E+00 0.  1.
<scales pt_clust_5="13000.00000" pt_clust_6="13000.00000" pt_clust_7="13000.00000" pt_clust_8="13000.00000" pt_clust_9="24.15580"></scales>
<clustering>
<clus scale="   24.156">  2  9  1 -1</clus>
<clus scale="   80.412">  5  6 -1 -1</clus>
<clus scale="   91.951">  7  8 -1 -1</clus>
<clus scale="  105.742">  1  5  2 -1</clus>
<clus scale="  105.742">  1  5  2 -1</clus>
</clustering>
</event>
<event>
 9    2  0.6066854E-005  0.1010063E+03  0.7546771E-02  0.1282284E+00
          2   -1    0    0  502    0  0.00000000000E+00  0.00000000000E+00  0.69823183329E+03  0.69823183329E+03  0.00000000000E+00 0. -1.
         -1   -1    0    0    0  501 -0.00000000000E+00 -0.00000000000E+00 -0.25092782844E+03  0.25092782844E+03  0.00000000000E+00 0.  1.
         23    2    1    2    0    0 -0.28902909286E+02 -0.10667367024E+02 -0.22921123065E+03  0.24826457152E+03  0.90268146826E+02 0.  0.
         24    2    1    2    0    0  0.30653305896E+02  0.33712223139E+02  0.67052337398E+03  0.67701975385E+03  0.81719109742E+02 0.  0.
        -11    1    4    4    0    0  0.38587461671E+02 -0.16139734081E+02  0.24960053637E+03  0.25308083880E+03  0.00000000000E+00 0.  1.
         12    1    4    4    0    0 -0.79341557748E+01  0.49851957219E+02  0.42092283762E+03  0.42393891505E+03  0.00000000000E+00 0. -1.
        -11    1    3    3    0    0  0.87077056877E+01 -0.20458669599E+02 -0.79456298470E+01  0.23611741439E+02  0.00000000000E+00 0. -1.
         11    1    3    3    0    0 -0.37610614974E+02  0.97913025744E+01 -0.22126560080E+03  0.22465283008E+03  0.00000000000E+00 0.  1.
         21    1    1    2  502  501 -0.17503966102E+01 -0.23044856114E+02  0.59918615242E+01  0.23875336357E+02  0.00000000000E+00 0.  1.
<scales pt_clust_5="13000.00000" pt_clust_6="13000.00000" pt_clust_7="13000.00000" pt_clust_8="13000.00000" pt_clust_9="23.11124"></scales>
<clustering>
<clus scale="   23.111">  2  9  1 -1</clus>
<clus scale="   81.719">  5  6 -1 -1</clus>
<clus scale="   90.268">  7  8 -1 -1</clus>
<clus scale="   93.445">  1  5  2 -1</clus>
<clus scale="   93.445">  1  5  2 -1</clus>
</clustering>
</event>
<event>
 9    2  0.6066854E-005  0.1080872E+03  0.7546771E-02  0.1271201E+00
         -1   -1    0    0    0  501 -0.00000000000E+00  0.00000000000E+00  0.10956171892E+03  0.10956171892E+03  0.00000000000E+00 0.  1.
          2   -1    0    0  502    0  0.00000000000E+00 -0.00000000000E+00 -0.21533506917E+03  0.21533506917E+03  0.00000000000E+00 0. -1.
         23    2    1    2    0    0 -0.34354857927E+02  0.96514148662E+01  0.46777132492E+02  0.10993200783E+03  0.92863018199E+02 0.  0.
         24    2    1    2    0    0  0.54528973805E+02 -0.21549653296E+02 -0.16301537295E+03  0.18931176959E+03  0.76335691176E+02 0.  0.
        -11    1    4    4    0    0  0.51004199192E+02  0.32794643016E+01 -0.43263030303E+02  0.66961727966E+02  0.00000000000E+00 0.  1.
         12    1    4    4    0    0  0.35247746136E+01 -0.24829117597E+02 -0.11975234265E+03  0.12235004163E+03  0.00000000000E+00 0. -1.
        -13    1    3    3    0    0 -0.25194297287E+02  0.42374108799E+02  0.56112524361E+02  0.74692255974E+02  0.00000000000E+00 0.  1.
         13    1    3    3    0    0 -0.91605606407E+01 -0.32722693932E+02 -0.93353918699E+01  0.35239751855E+02  0.00000000000E+00 0. -1.
         21    1    1    2  502  501 -0.20174115878E+02  0.11898238429E+02  0.10464890213E+02  0.25653010668E+02  0.00000000000E+00 0.  1.
<scales pt_clust_5="13000.00000" pt_clust_6="13000.00000" pt_clust_7="13000.00000" pt_clust_8="13000.00000" pt_clust_9="23.42142"></scales>
<clustering>
<clus scale="   23.421">  1  9  2 -1</clus>
<clus scale="   76.336">  5  6 -1 -1</clus>
<clus scale="   92.863">  7  8 -1 -1</clus>
<clus scale="   94.268">  2  5  1 -1</clus>
<clus scale="   94.268">  2  5  1 -1</clus>
</clustering>
</event>
<event>
 9    2  0.6066854E-005  0.1019487E+03  0.7546771E-02  0.1280567E+00
         -1   -1    0    0    0  501 -0.00000000000E+00  0.00000000000E+00  0.13087261359E+03  0.13087261359E+03  0.00000000000E+00 0.  1.
          2   -1    0    0  502    0  0.00000000000E+00 -0.00000000000E+00 -0.19698058000E+03  0.19698058000E+03  0.00000000000E+00 0. -1.
         24    2    1    2    0    0  0.61444756728E+02 -0.99874025070E+01  0.29863879343E+02  0.10609970432E+03  0.80561092534E+02 0.  0.
         23    2    1    2    0    0 -0.45077988141E+02 -0.27974632328E+01 -0.14041450481E+03  0.17269766545E+03  0.89824271090E+02 0.  0.
        -13    1    3    3    0    0  0.72226541854E+02 -0.62621023410E+01  0.46353027447E+02  0.86049348791E+02  0.00000000000E+00 0.  1.
         14    1    3    3    0    0 -0.10781785126E+02 -0.37253001660E+01 -0.16489148104E+02  0.20050355534E+02  0.00000000000E+00 0. -1.
        -11    1    4    4    0    0 -0.21155173141E+02 -0.28575989000E+02 -0.90240363742E+01  0.36681899221E+02  0.00000000000E+00 0.  1.
         11    1    4    4    0    0 -0.23922815000E+02  0.25778525767E+02 -0.13139046843E+03  0.13601576623E+03  0.00000000000E+00 0. -1.
         21    1    1    2  502  501 -0.16366768587E+02  0.12784865740E+02  0.44442659052E+02  0.49055823809E+02  0.00000000000E+00 0. -1.
<scales pt_clust_5="13000.00000" pt_clust_6="13000.00000" pt_clust_7="13000.00000" pt_clust_8="13000.00000" pt_clust_9="20.76834"></scales>
<clustering>
<clus scale="   20.768">  1  9  2 -1</clus>
<clus scale="   80.561">  5  6 -1 -1</clus>
<clus scale="   89.824">  7  8 -1 -1</clus>
<clus scale="   93.889">  1  5  2 -1</clus>
<clus scale="  101.949">  2  5  1 -1</clus>
</clustering>
</event>
<event>
 9    2  0.6066854E-005  0.1216331E+03  0.7546771E-02  0.1244308E+00
         -1   -1    0    0    0  501 -0.00000000000E+00  0.00000000000E+00  0.11752935498E+03  0.11752935498E+03  0.00000000000E+00 0.  1.
          2   -1    0    0  502    0  0.00000000000E+00 -0.00000000000E+00 -0.15263390606E+04  0.15263390606E+04  0.00000000000E+00 0. -1.
         23    2    1    2    0    0 -0.78160965986E+02 -0.60187803167E+02 -0.17888055595E+03  0.22435417681E+03  0.92762250427E+02 0.  0.
         24    2    1    2    0    0  0.63006219580E+02  0.43634635110E+02 -0.13210308312E+04  0.13256889218E+04  0.80342362725E+02 0.  0.
        -11    1    4    4    0    0  0.12081916896E+02  0.36628075602E+02 -0.21283072887E+03  0.21629726718E+03  0.00000000000E+00 0.  1.
         12    1    4    4    0    0  0.50924302684E+02  0.70065595078E+01 -0.11082001024E+04  0.11093916546E+04  0.00000000000E+00 0. -1.
        -13    1    3    3    0    0 -0.22798176935E+02  0.35946124445E+01 -0.11801129399E+03  0.12024701086E+03  0.00000000000E+00 0. -1.
         13    1    3    3    0    0 -0.55362789052E+02 -0.63782415612E+02 -0.60869261954E+02  0.10410716596E+03  0.00000000000E+00 0.  1.
         21    1    1    2  502  501  0.15154746406E+02  0.16553168057E+02  0.91101681586E+02  0.93825316941E+02  0.00000000000E+00 0.  1.
<scales pt_clust_5="13000.00000" pt_clust_6="13000.00000" pt_clust_7="13000.00000" pt_clust_8="13000.00000" pt_clust_9="22.44268"></scales>
<clustering>
<clus scale="   22.443">  1  9  2 -1</clus>
<clus scale="   80.342">  5  6 -1 -1</clus>
<clus scale="   92.762">  7  8 -1 -1</clus>
<clus scale="  112.449">  2  5  1 -1</clus>
<clus scale="  112.449">  2  5  1 -1</clus>
</clustering>
</event>
<event>
 9    2  0.6066854E-005  0.1022738E+03  0.7546771E-02  0.1279994E+00
         -1   -1    0    0    0  501 -0.00000000000E+00  0.00000000000E+00  0.65399066143E+02  0.65399066143E+02  0.00000000000E+00 0.  1.
          2   -1    0    0  502    0  0.00000000000E+00 -0.00000000000E+00 -0.40959289338E+03  0.40959289338E+03  0.00000000000E+00 0. -1.
         24    2    1    2    0    0 -0.86426790076E+02 -0.33717349256E+02 -0.71245475422E+02  0.14236682857E+03  0.81153844183E+02 0.  0.
         23    2    1    2    0    0  0.31716258994E+02  0.17213252943E+02 -0.25455248672E+03  0.27259151321E+03  0.90592203958E+02 0.  0.
        -13    1    3    3    0    0 -0.78664986202E+02 -0.19169223897E+02 -0.13213892055E+02  0.82038077392E+02  0.00000000000E+00 0.  1.
         14    1    3    3    0    0 -0.77618038746E+01 -0.14548125359E+02 -0.58031583366E+02  0.60328751179E+02  0.00000000000E+00 0. -1.
        -11    1    4    4    0    0  0.56322058181E+02 -0.58291112525E+01 -0.10507997570E+03  0.11936479410E+03  0.00000000000E+00 0. -1.
         11    1    4    4    0    0 -0.24605799187E+02  0.23042364195E+02 -0.14947251101E+03  0.15322671911E+03  0.00000000000E+00 0.  1.
         21    1    1    2  502  501  0.54710531083E+02  0.16504096313E+02 -0.18395865096E+02  0.60033617741E+02  0.00000000000E+00 0.  1.
<scales pt_clust_5="13000.00000" pt_clust_6="13000.00000" pt_clust_7="13000.00000" pt_clust_8="13000.00000" pt_clust_9="57.14567"></scales>
<clustering>
<clus scale="   57.146">  1  9  2 -1</clus>
<clus scale="   81.154">  5  6 -1 -1</clus>
<clus scale="   90.592">  7  8 -1 -1</clus>
<clus scale="   94.016">  1  5  2 -1</clus>
<clus scale="  102.274">  2  5  1 -1</clus>
</clustering>
</event>
<event>
 9    2  0.6066854E-005  0.1005776E+03  0.7546771E-02  0.1284310E+00
         -1   -1    0    0    0  501 -0.00000000000E+00  0.00000000000E+00  0.88347496148E+02  0.88347496148E+02  0.00000000000E+00 0.  1.
          2   -1    0    0  502    0  0.00000000000E+00 -0.00000000000E+00 -0.28308676300E+03  0.28308676300E+03  0.00000000000E+00 0. -1.
         23    2    1    2    0    0 -0.47971499190E+02  0.76123486288E+02 -0.62198689347E+02  0.14248804515E+03  0.91313285747E+02 0.  0.
         24    2    1    2    0    0 -0.12847604567E+02 -0.30457999268E+02 -0.12511706123E+03  0.15253019029E+03  0.80736790102E+02 0.  0.
        -13    1    4    4    0    0 -0.13160655829E+02 -0.53616688759E+02 -0.52033910960E+02  0.75864880315E+02  0.00000000000E+00 0.  1.
         14    1    4    4    0    0  0.31305126197E+00  0.23158689491E+02 -0.73083150268E+02  0.76665309972E+02  0.00000000000E+00 0. -1.
        -13    1    3    3    0    0 -0.60274706116E+02  0.10303463834E+02 -0.32308878152E+02  0.69159707719E+02  0.00000000000E+00 0. -1.
         13    1    3    3    0    0  0.12303206927E+02  0.65820022454E+02 -0.29889811196E+02  0.73328337427E+02  0.00000000000E+00 0.  1.
         21    1    1    2  502  501  0.60819103757E+02 -0.45665487020E+02 -0.74235162777E+01  0.76416023715E+02  0.00000000000E+00 0.  1.
<scales pt_clust_5="13000.00000" pt_clust_6="13000.00000" pt_clust_7="13000.00000" pt_clust_8="13000.00000" pt_clust_9="76.05459"></scales>
<clustering>
<clus scale="   76.055">  1  9  2 -1</clus>
<clus scale="   80.737">  5  6 -1 -1</clus>
<clus scale="   91.083">  2  5  1 -1</clus>
<clus scale="   91.313">  7  8 -1 -1</clus>
<clus scale="   91.083">  2  5  1 -1</clus>
</clustering>
</event>
<event>
 9    2  0.6066854E-005  0.1590553E+03  0.7546771E-02  0.1198515E+00
         -1   -1    0    0    0  501 -0.00000000000E+00  0.00000000000E+00  0.46728932333E+03  0.46728932333E+03  0.00000000000E+00 0.  1.
          2   -1    0    0  502    0  0.00000000000E+00 -0.00000000000E+00 -0.13028064273E+03  0.13028064273E+03  0.00000000000E+00 0. -1.
         23    2    1    2    0    0  0.25056234268E+02  0.93280262948E+02  0.29603734076E+03  0.33442832516E+03  0.12196382747E+03 0.  0.
         24    2    1    2    0    0 -0.52103769949E+02 -0.89057691032E+02 -0.69526743416E+02  0.14930304594E+03  0.82530941476E+02 0.  0.
        -11    1    4    4    0    0 -0.30527129240E+02 -0.86533549262E+02 -0.18171800081E+02  0.93542370537E+02  0.00000000000E+00 0.  1.
         12    1    4    4    0    0 -0.21576640709E+02 -0.25241417700E+01 -0.51354943336E+02  0.55760675399E+02  0.00000000000E+00 0. -1.
        -11    1    3    3    0    0  0.22463913942E+02 -0.18282913617E+02  0.16257552605E+02  0.33214460354E+02  0.00000000000E+00 0. -1.
         11    1    3    3    0    0  0.25923203266E+01  0.11156317657E+03  0.27977978816E+03  0.30121386481E+03  0.00000000000E+00 0.  1.
         21    1    1    2  502  501  0.27047535681E+02 -0.42225719160E+01  0.11049808325E+03  0.11383859496E+03  0.00000000000E+00 0.  1.
<scales pt_clust_5="13000.00000" pt_clust_6="13000.00000" pt_clust_7="13000.00000" pt_clust_8="13000.00000" pt_clust_9="27.37516"></scales>
<clustering>
<clus scale="   27.375">  1  9  2 -1</clus>
<clus scale="   82.531">  5  6 -1 -1</clus>
<clus scale="  121.964">  7  8 -1 -1</clus>
<clus scale="  131.281">  2  5  1 -1</clus>
<clus scale="  131.281">  2  5  1 -1</clus>
</clustering>
</event>
<event>
 9    2  0.6066854E-005  0.1064551E+03  0.7546771E-02  0.1273465E+00
          4   -1    0    0  502    0  0.00000000000E+00  0.00000000000E+00  0.54722177366E+03  0.54722177366E+03  0.00000000000E+00 0. -1.
         -3   -1    0    0    0  501 -0.00000000000E+00 -0.00000000000E+00 -0.13092100497E+03  0.13092100497E+03  0.00000000000E+00 0.  1.
         23    2    1    2    0    0 -0.75543744323E+02  0.34097048009E+02 -0.77061535467E+02  0.14762957246E+03  0.94797386189E+02 0.  0.
         24    2    1    2    0    0  0.32788019679E+02 -0.34028038705E+02  0.47465197585E+03  0.48384273223E+03  0.81094572585E+02 0.  0.
        -13    1    4    4    0    0 -0.27262021200E+02 -0.11918533414E+02  0.16192982336E+03  0.16464062965E+03  0.00000000000E+00 0.  1.
         14    1    4    4    0    0  0.60050040879E+02 -0.22109505291E+02  0.31272215249E+03  0.31920210258E+03  0.00000000000E+00 0. -1.
        -11    1    3    3    0    0 -0.48315872038E+02 -0.27035336672E+02 -0.52626374545E+02  0.76386309098E+02  0.00000000000E+00 0.  1.
         11    1    3    3    0    0 -0.27227872285E+02  0.61132384681E+02 -0.24435160922E+02  0.71243263367E+02  0.00000000000E+00 0. -1.
         21    1    1    2  502  501  0.42755724645E+02 -0.69009303647E-01  0.18710328306E+02  0.46670473937E+02  0.00000000000E+00 0. -1.
<scales pt_clust_5="13000.00000" pt_clust_6="13000.00000" pt_clust_7="13000.00000" pt_clust_8="13000.00000" pt_clust_9="42.75578"></scales>
<clustering>
<clus scale="   42.756">  2  9  1 -1</clus>
<clus scale="   81.095">  5  6 -1 -1</clus>
<clus scale="   94.459">  1  5  2 -1</clus>
<clus scale="   94.797">  7  8 -1 -1</clus>
<clus scale="   94.459">  1  5  2 -1</clus>
</clustering>
</event>
<event>
 9    2  0.6066854E-005  0.1026277E+03  0.7546771E-02  0.1277770E+00
         -1   -1    0    0    0  501 -0.00000000000E+00  0.00000000000E+00  0.38782777120E+02  0.38782777120E+02  0.00000000000E+00 0.  1.
          2   -1    0    0  502    0  0.00000000000E+00 -0.00000000000E+00 -0.45649240320E+03  0.45649240320E+03  0.00000000000E+00 0. -1.
         23    2    1    2    0    0  0.56343940707E+02  0.24900180534E+02 -0.11729859066E+03  0.15907232218E+03  0.88036274721E+02 0.  0.
         24    2    1    2    0    0 -0.28880664990E+02 -0.43133590269E+02 -0.28275133339E+03  0.29880561467E+03  0.81497726363E+02 0.  0.
        -11    1    4    4    0    0  0.40333209460E+01 -0.29785933594E+02 -0.26399586190E+02  0.40005095538E+02  0.00000000000E+00 0.  1.
         12    1    4    4    0    0 -0.32913985936E+02 -0.13347656675E+02 -0.25635174720E+03  0.25880051913E+03  0.00000000000E+00 0. -1.
        -11    1    3    3    0    0  0.36250881467E+02  0.57350932965E+02 -0.62191822929E+02  0.92038463472E+02  0.00000000000E+00 0.  1.
         11    1    3    3    0    0  0.20093059240E+02 -0.32450752431E+02 -0.55106767733E+02  0.67033858705E+02  0.00000000000E+00 0. -1.
         21    1    1    2  502  501 -0.27463275717E+02  0.18233409736E+02 -0.17659702024E+02  0.37397243472E+02  0.00000000000E+00 0.  1.
<scales pt_clust_5="13000.00000" pt_clust_6="13000.00000" pt_clust_7="13000.00000" pt_clust_8="13000.00000" pt_clust_9="32.96496"></scales>
<clustering>
<clus scale="   32.965">  1  9  2 -1</clus>
<clus scale="   81.498">  5  6 -1 -1</clus>
<clus scale="   88.036">  7  8 -1 -1</clus>
<clus scale="   97.077">  2  5  1 -1</clus>
<clus scale="   97.077">  2  5  1 -1</clus>
</clustering>
</event>
<event>
 9    2  0.6066854E-005  0.1406349E+03  0.7546771E-02  0.1214260E+00
          4   -1    0    0  502    0  0.00000000000E+00  0.00000000000E+00  0.10728145056E+03  0.10728145056E+03  0.00000000000E+00 0. -1.
         -3   -1    0    0    0  501 -0.00000000000E+00 -0.00000000000E+00 -0.45178692810E+03  0.45178692810E+03  0.00000000000E+00 0.  1.
         24    2    1    2    0    0 -0.94083595715E+02 -0.26811472099E+02 -0.23484733630E+03  0.26726215444E+03  0.81885345496E+02 0.  0.
         23    2    1    2    0    0  0.98943404292E+02  0.48973139086E+02  0.33810159149E+02  0.14655502650E+03  0.90261195010E+02 0.  0.
        -11    1    3    3    0    0 -0.83002381051E+02 -0.42147117807E+02 -0.22940755306E+03  0.24757544345E+03  0.00000000000E+00 0.  1.
         12    1    3    3    0    0 -0.11081214665E+02  0.15335645708E+02 -0.54397832442E+01  0.19686710986E+02  0.00000000000E+00 0. -1.
        -11    1    4    4    0    0  0.75075990523E+02  0.71158828963E+02  0.58306440082E+01  0.10360492122E+03  0.00000000000E+00 0. -1.
         11    1    4    4    0    0  0.23867413769E+02 -0.22185689877E+02  0.27979515141E+02  0.42950105272E+02  0.00000000000E+00 0.  1.
         21    1    1    2  502  501 -0.48598085768E+01 -0.22161666987E+02 -0.14346830039E+03  0.14525119772E+03  0.00000000000E+00 0.  1.
<scales pt_clust_5="13000.00000" pt_clust_6="13000.00000" pt_clust_7="13000.00000" pt_clust_8="13000.00000" pt_clust_9="22.68826"></scales>
<clustering>
<clus scale="   22.688">  2  9  1 -1</clus>
<clus scale="   81.885">  5  6 -1 -1</clus>
<clus scale="   90.261">  7  8 -1 -1</clus>
<clus scale="  135.412">  2  5  1 -1</clus>
<clus scale="  140.635">  1  5  2 -1</clus>
</clustering>
</event>
<event>
 9    2  0.6066854E-005  0.1048868E+03  0.7546771E-02  0.1276202E+00
          2   -1    0    0  502    0  0.00000000000E+00  0.00000000000E+00  0.44863409300E+02  0.44863409300E+02  0.00000000000E+00 0. -1.
         -1   -1    0    0    0  501 -0.00000000000E+00 -0.00000000000E+00 -0.28581416057E+03  0.28581416057E+03  0.00000000000E+00 0.  1.
         23    2    1    2    0    0  0.61044389019E+02  0.14031288461E+02 -0.12125330572E+03  0.16423409961E+03  0.91362907341E+02 0.  0.
         24    2    1    2    0    0 -0.44367199740E+02 -0.19570523933E+01 -0.74697471797E+02  0.11695697255E+03  0.78274789477E+02 0.  0.
        -13    1    4    4    0    0 -0.45122280190E+02 -0.34132742267E+02 -0.56619880154E+02  0.80042957797E+02  0.00000000000E+00 0.  1.
         14    1    4    4    0    0  0.75508045014E+00  0.32175689874E+02 -0.18077591642E+02  0.36914014750E+02  0.00000000000E+00 0. -1.
        -11    1    3    3    0    0  0.13585526547E+02  0.45321224761E+02 -0.27876629213E+02  0.54915265653E+02  0.00000000000E+00 0. -1.
         11    1    3    3    0    0  0.47458862472E+02 -0.31289936300E+02 -0.93376676510E+02  0.10931883395E+03  0.00000000000E+00 0.  1.
         21    1    1    2  502  501 -0.16677189279E+02 -0.12074236067E+02 -0.44999973746E+02  0.49486497714E+02  0.00000000000E+00 0.  1.
<scales pt_clust_5="13000.00000" pt_clust_6="13000.00000" pt_clust_7="13000.00000" pt_clust_8="13000.00000" pt_clust_9="20.58922"></scales>
<clustering>
<clus scale="   20.589">  2  9  1 -1</clus>
<clus scale="   78.275">  5  6 -1 -1</clus>
<clus scale="   91.363">  7  8 -1 -1</clus>
<clus scale="   93.707">  1  5  2 -1</clus>
<clus scale="   93.707">  1  5  2 -1</clus>
</clustering>
</event>
<event>
 9    2  0.6066854E-005  0.1004826E+03  0.7546771E-02  0.1284788E+00
          2   -1    0    0  502    0  0.00000000000E+00  0.00000000000E+00  0.22031741385E+03  0.22031741385E+03  0.00000000000E+00 0. -1.
         -1   -1    0    0    0  501 -0.00000000000E+00 -0.00000000000E+00 -0.19872571923E+03  0.19872571923E+03  0.00000000000E+00 0.  1.
         24    2    1    2    0    0  0.48195313730E+02 -0.80153882817E+02 -0.11960348970E+03  0.17207335279E+03  0.80974136589E+02 0.  0.
         23    2    1    2    0    0  0.51066228179E+01  0.36358594236E+02  0.14753661661E+03  0.17769252930E+03  0.91975848764E+02 0.  0.
        -13    1    3    3    0    0 -0.17076082171E+02 -0.38130867684E+02 -0.64599555160E+02  0.76932816012E+02  0.00000000000E+00 0.  1.
         14    1    3    3    0    0  0.65271395901E+02 -0.42023015133E+02 -0.55003934535E+02  0.95140536776E+02  0.00000000000E+00 0. -1.
        -13    1    4    4    0    0 -0.97859145785E+01  0.52471841085E+02  0.36872036188E+02  0.64873764217E+02  0.00000000000E+00 0.  1.
         13    1    4    4    0    0  0.14892537396E+02 -0.16113246850E+02  0.11066458042E+03  0.11281876508E+03  0.00000000000E+00 0. -1.
         21    1    1    2  502  501 -0.53301936548E+02  0.43795288581E+02 -0.63414322947E+01  0.69277250993E+02  0.00000000000E+00 0.  1.
<scales pt_clust_5="13000.00000" pt_clust_6="13000.00000" pt_clust_7="13000.00000" pt_clust_8="13000.00000" pt_clust_9="68.98640"></scales>
<clustering>
<clus scale="   68.986">  2  9  1 -1</clus>
<clus scale="   80.974">  5  6 -1 -1</clus>
<clus scale="   90.521">  2  5  1 -1</clus>
<clus scale="   91.976">  7  8 -1 -1</clus>
<clus scale="  100.483">  1  5  2 -1</clus>
</clustering>
</event>
<event>
 9    2  0.6066854E-005  0.1663884E+03  0.7546771E-02  0.1182238E+00
          2   -1    0    0  502    0  0.00000000000E+00  0.00000000000E+00  0.37703175937E+03  0.37703175937E+03  0.00000000000E+00 0. -1.
         -1   -1    0    0    0  501 -0.00000000000E+00 -0.00000000000E+00 -0.10133852229E+03  0.10133852229E+03  0.00000000000E+00 0.  1.
         24    2    1    2    0    0  0.15107552534E+03  0.73056541891E+02  0.14389843727E+03  0.23715771137E+03  0.85883334480E+02 0.  0.
         23    2    1    2    0    0 -0.10087552065E+03 -0.61810900020E+02  0.11215837176E+03  0.18614811498E+03  0.89861906984E+02 0.  0.
        -11    1    3    3    0    0  0.46823144407E+02 -0.11351111783E+02  0.13388136851E+02  0.50004967745E+02  0.00000000000E+00 0.  1.
         12    1    3    3    0    0  0.10425238094E+03  0.84407653674E+02  0.13051030042E+03  0.18715274362E+03  0.00000000000E+00 0. -1.
        -13    1    4    4    0    0 -0.70442306433E+02  0.94059091266E+01  0.56104849849E+02  0.90544706299E+02  0.00000000000E+00 0.  1.
         13    1    4    4    0    0 -0.30433214214E+02 -0.71216809147E+02  0.56053521910E+02  0.95603408678E+02  0.00000000000E+00 0. -1.
         21    1    1    2  502  501 -0.50200004695E+02 -0.11245641871E+02  0.19636428043E+02  0.55064455312E+02  0.00000000000E+00 0.  1.
<scales pt_clust_5="13000.00000" pt_clust_6="13000.00000" pt_clust_7="13000.00000" pt_clust_8="13000.00000" pt_clust_9="51.44419"></scales>
<clustering>
<clus scale="   51.444">  2  9  1 -1</clus>
<clus scale="   85.883">  5  6 -1 -1</clus>
<clus scale="   89.862">  7  8 -1 -1</clus>
<clus scale="  164.274">  2  5  1 -1</clus>
<clus scale="  166.388">  1  5  2 -1</clus>
</clustering>
</event>
<event>
 9    2  0.6066854E-005  0.1106911E+03  0.7546771E-02  0.1262998E+00
          2   -1    0    0  502    0  0.00000000000E+00  0.00000000000E+00  0.86965220694E+03  0.86965220694E+03  0.00000000000E+00 0. -1.
         -1   -1    0    0    0  501 -0.00000000000E+00 -0.00000000000E+00 -0.20688744652E+02  0.20688744652E+02  0.00000000000E+00 0.  1.
         23    2    1    2    0    0  0.54846655772E+02  0.17910407507E+01  0.26810934890E+03  0.28820854651E+03  0.90389047098E+02 0.  0.
         24    2    1    2    0    0 -0.61076139442E+02 -0.37513959786E+02  0.52169078670E+03  0.53274052778E+03  0.80706883368E+02 0.  0.
        -13    1    4    4    0    0 -0.35770312180E+02 -0.20791548866E+02  0.80515288571E+02  0.90523562852E+02  0.00000000000E+00 0.  1.
         14    1    4    4    0    0 -0.25305827262E+02 -0.16722410920E+02  0.44117549813E+03  0.44221696493E+03  0.00000000000E+00 0. -1.
        -11    1    3    3    0    0  0.67336575726E+01  0.33005414039E+02  0.17967489465E+03  0.18280527144E+03  0.00000000000E+00 0.  1.
         11    1    3    3    0    0  0.48112998200E+02 -0.31214373288E+02  0.88434454255E+02  0.10540327507E+03  0.00000000000E+00 0. -1.
         21    1    1    2  502  501  0.62294836696E+01  0.35722919036E+02  0.59163326686E+02  0.69391877304E+02  0.00000000000E+00 0.  1.
<scales pt_clust_5="13000.00000" pt_clust_6="13000.00000" pt_clust_7="13000.00000" pt_clust_8="13000.00000" pt_clust_9="36.26201"></scales>
<clustering>
<clus scale="   36.262">  2  9  1 -1</clus>
<clus scale="   80.707">  5  6 -1 -1</clus>
<clus scale="   90.389">  7  8 -1 -1</clus>
<clus scale="  102.937">  1  5  2 -1</clus>
<clus scale="  102.937">  1  5  2 -1</clus>
</clustering>
</event>
<event>
 9    2  0.6066854E-005  0.1066309E+03  0.7546771E-02  0.1271734E+00
          2   -1    0    0  502    0  0.00000000000E+00  0.00000000000E+00  0.14739367930E+03  0.14739367930E+03  0.00000000000E+00 0. -1.
         -1   -1    0    0    0  501 -0.00000000000E+00 -0.00000000000E+00 -0.50191812333E+03  0.50191812333E+03  0.00000000000E+00 0.  1.
         23    2    1    2    0    0  0.57624989445E+02 -0.19236609046E+02 -0.43430381993E+03  0.44757417954E+03  0.89510623109E+02 0.  0.
         24    2    1    2    0    0 -0.57812892460E+02 -0.49693284952E+01  0.12021507617E+03  0.15461004543E+03  0.78010107352E+02 0.  0.
        -11    1    4    4    0    0 -0.33207840211E+02 -0.10371779564E+02  0.32255595627E+01  0.34939071214E+02  0.00000000000E+00 0.  1.
         12    1    4    4    0    0 -0.24605052249E+02  0.54024510688E+01  0.11698951661E+03  0.11967097422E+03  0.00000000000E+00 0. -1.
        -11    1    3    3    0    0  0.50888757821E+02  0.26992474160E+02 -0.29715725129E+03  0.30268910012E+03  0.00000000000E+00 0.  1.
         11    1    3    3    0    0  0.67362316245E+01 -0.46229083206E+02 -0.13714656864E+03  0.14488507942E+03  0.00000000000E+00 0. -1.
         21    1    1    2  502  501  0.18790301511E+00  0.24205937541E+02 -0.40435700267E+02  0.47127577658E+02  0.00000000000E+00 0. -1.
<scales pt_clust_5="13000.00000" pt_clust_6="13000.00000" pt_clust_7="13000.00000" pt_clust_8="13000.00000" pt_clust_9="24.20667"></scales>
<clustering>
<clus scale="   24.207">  2  9  1 -1</clus>
<clus scale="   78.010">  5  6 -1 -1</clus>
<clus scale="   89.511">  7  8 -1 -1</clus>
<clus scale="   97.178">  1  5  2 -1</clus>
<clus scale="   97.178">  1  5  2 -1</clus>
</clustering>
</event>
<event>
 9    2  0.6066854E-005  0.1336548E+03  0.7546771E-02  0.1225344E+00
          2   -1    0    0  502    0  0.00000000000E+00  0.00000000000E+00  0.17509814976E+03  0.17509814976E+03  0.00000000000E+00 0. -1.
         -1   -1    0    0    0  501 -0.00000000000E+00 -0.00000000000E+00 -0.19577489253E+03  0.19577489253E+03  0.00000000000E+00 0.  1.
         23    2    1    2    0    0  0.10480057765E+03  0.32992095544E+02 -0.94707435417E+02  0.17109733806E+03  0.90736769406E+02 0.  0.
         24    2    1    2    0    0 -0.85744381049E+02 -0.42866282037E+02  0.10514406717E+03  0.16197781722E+03  0.77407502189E+02 0.  0.
        -11    1    4    4    0    0 -0.22032481372E+02  0.81717422156E+01 -0.58307970306E+01  0.24211687266E+02  0.00000000000E+00 0.  1.
         12    1    4    4    0    0 -0.63711899677E+02 -0.51038024253E+02  0.11097486420E+03  0.13776612996E+03  0.00000000000E+00 0. -1.
        -13    1    3    3    0    0  0.32350988779E+02  0.44719584083E+02 -0.78457815869E+02  0.95927350357E+02  0.00000000000E+00 0. -1.
         13    1    3    3    0    0  0.72449588875E+02 -0.11727488539E+02 -0.16249619548E+02  0.75169987702E+02  0.00000000000E+00 0.  1.
         21    1    1    2  502  501 -0.19056196605E+02  0.98741864929E+01 -0.31113374524E+02  0.37797887007E+02  0.00000000000E+00 0. -1.
<scales pt_clust_5="13000.00000" pt_clust_6="13000.00000" pt_clust_7="13000.00000" pt_clust_8="13000.00000" pt_clust_9="21.46248"></scales>
<clustering>
<clus scale="   21.462">  2  9  1 -1</clus>
<clus scale="   77.408">  5  6 -1 -1</clus>
<clus scale="   90.737">  7  8 -1 -1</clus>
<clus scale="  124.989">  1  5  2 -1</clus>
<clus scale="  124.989">  1  5  2 -1</clus>
</clustering>
</event>
<event>
 9    2  0.6066854E-005  0.1093202E+03  0.7546771E-02  0.1265392E+00
          2   -1    0    0  502    0  0.00000000000E+00  0.00000000000E+00  0.12679753910E+04  0.12679753910E+04  0.00000000000E+00 0. -1.
         -1   -1    0    0    0  501 -0.00000000000E+00 -0.00000000000E+00 -0.46021390856E+02  0.46021390856E+02  0.00000000000E+00 0.  1.
         23    2    1    2    0    0  0.36532949432E+02  0.23806544006E+02  0.32866684573E+02  0.10389904271E+03  0.88393349238E+02 0.  0.
         24    2    1    2    0    0 -0.57352717329E+02  0.35619466767E+02  0.10730213807E+04  0.10780514793E+04  0.79132977183E+02 0.  0.
        -11    1    4    4    0    0 -0.12475469703E+02 -0.19853438167E+02  0.11439743803E+03  0.11677572599E+03  0.00000000000E+00 0.  1.
         12    1    4    4    0    0 -0.44877247626E+02  0.55472904934E+02  0.95862394264E+03  0.96127575333E+03  0.00000000000E+00 0. -1.
        -13    1    3    3    0    0 -0.22322739742E+02  0.56758355617E+01  0.35432178374E+02  0.42260609121E+02  0.00000000000E+00 0. -1.
         13    1    3    3    0    0  0.58855689174E+02  0.18130708445E+02 -0.25654938017E+01  0.61638433589E+02  0.00000000000E+00 0.  1.
         21    1    1    2  502  501  0.20819767897E+02 -0.59426010774E+02  0.11606593492E+03  0.13204625985E+03  0.00000000000E+00 0. -1.
<scales pt_clust_5="13000.00000" pt_clust_6="13000.00000" pt_clust_7="13000.00000" pt_clust_8="13000.00000" pt_clust_9="62.96756"></scales>
<clustering>
<clus scale="   62.968">  2  9  1 -1</clus>
<clus scale="   79.133">  5  6 -1 -1</clus>
<clus scale="   88.393">  7  8 -1 -1</clus>
<clus scale="  101.978">  1  5  2 -1</clus>
<clus scale="  101.978">  1  5  2 -1</clus>
</clustering>
</event>
<event>
 9    2  0.6066854E-005  0.9397618E+02  0.7546771E-02  0.1299204E+00
         -1   -1    0    0    0  501 -0.00000000000E+00  0.00000000000E+00  0.54967603134E+03  0.54967603134E+03  0.00000000000E+00 0.  1.
          2   -1    0    0  502    0  0.00000000000E+00 -0.00000000000E+00 -0.34126685175E+02  0.34126685175E+02  0.00000000000E+00 0. -1.
         24    2    1    2    0    0 -0.98476703528E+00  0.26427927445E+01  0.28809990307E+03  0.29927651055E+03  0.80974820145E+02 0.  0.
         23    2    1    2    0    0 -0.77582121181E+01  0.31370547382E+02  0.60178864407E+02  0.11360870105E+03  0.90780725573E+02 0.  0.
        -13    1    3    3    0    0 -0.36930402132E+02 -0.16023582252E+02  0.13154876242E+03  0.13757066070E+03  0.00000000000E+00 0.  1.
         14    1    3    3    0    0  0.35945635097E+02  0.18666374997E+02  0.15655114065E+03  0.16170584986E+03  0.00000000000E+00 0. -1.
        -11    1    4    4    0    0 -0.27084425819E+00 -0.26113794602E+02  0.47594640288E+02  0.54288612151E+02  0.00000000000E+00 0.  1.
         11    1    4    4    0    0 -0.74873678599E+01  0.57484341984E+02  0.12584224119E+02  0.59320088903E+02  0.00000000000E+00 0. -1.
         21    1    1    2  502  501  0.87429791534E+01 -0.34013340127E+02  0.16727057869E+03  0.17091750491E+03  0.00000000000E+00 0.  1.
<scales pt_clust_5="13000.00000" pt_clust_6="13000.00000" pt_clust_7="13000.00000" pt_clust_8="13000.00000" pt_clust_9="35.11904"></scales>
<clustering>
<clus scale="   35.119">  1  9  2 -1</clus>
<clus scale="   80.975">  5  6 -1 -1</clus>
<clus scale="   84.542">  1  5  2 -1</clus>
<clus scale="   90.781">  7  8 -1 -1</clus>
<clus scale="   93.976">  2  5  1 -1</clus>
</clustering>
</event>
<event>
 9    2  0.6066854E-005  0.1613607E+03  0.7546771E-02  0.1189376E+00
          2   -1    0    0  502    0  0.00000000000E+00  0.00000000000E+00  0.15497732268E+03  0.15497732268E+03  0.00000000000E+00 0. -1.
         -1   -1    0    0    0  501 -0.00000000000E+00 -0.00000000000E+00 -0.26256618363E+03  0.26256618363E+03  0.00000000000E+00 0.  1.
         24    2    1    2    0    0 -0.10261457427E+03 -0.58205912694E+02 -0.14860041681E+03  0.20502055416E+03  0.77676667184E+02 0.  0.
         23    2    1    2    0    0  0.10727788323E+03  0.86334121160E+02  0.62312274409E+02  0.17693274041E+03  0.91979619374E+02 0.  0.
        -13    1    3    3    0    0 -0.60690184622E+02 -0.62922362293E+02 -0.13473538798E+03  0.16061178961E+03  0.00000000000E+00 0.  1.
         14    1    3    3    0    0 -0.41924389649E+02  0.47164495995E+01 -0.13865028827E+02  0.44408764547E+02  0.00000000000E+00 0. -1.
        -13    1    4    4    0    0  0.13647222596E+02 -0.19357841640E+02  0.14915011559E+02  0.27989824711E+02  0.00000000000E+00 0.  1.
         13    1    4    4    0    0  0.93630660630E+02  0.10569196280E+03  0.47397262850E+02  0.14894291570E+03  0.00000000000E+00 0. -1.
         21    1    1    2  502  501 -0.46633089553E+01 -0.28128208466E+02 -0.21300718541E+02  0.35590211748E+02  0.00000000000E+00 0.  1.
<scales pt_clust_5="13000.00000" pt_clust_6="13000.00000" pt_clust_7="13000.00000" pt_clust_8="13000.00000" pt_clust_9="28.51215"></scales>
<clustering>
<clus scale="   28.512">  2  9  1 -1</clus>
<clus scale="   77.677">  5  6 -1 -1</clus>
<clus scale="   91.980">  7  8 -1 -1</clus>
<clus scale="  153.658">  2  5  1 -1</clus>
<clus scale="  161.361">  1  5  2 -1</clus>
</clustering>
</event>
<event>
 9    2  0.6066854E-005  0.9465461E+02  0.7546771E-02  0.1298853E+00
          2   -1    0    0  502    0  0.00000000000E+00  0.00000000000E+00  0.26466308888E+03  0.26466308888E+03  0.00000000000E+00 0. -1.
         -1   -1    0    0    0  501 -0.00000000000E+00 -0.00000000000E+00 -0.19318620868E+03  0.19318620868E+03  0.00000000000E+00 0.  1.
         23    2    1    2    0    0  0.17778503423E+02 -0.21143909238E+02 -0.11192044639E+03  0.14722468033E+03  0.91573905099E+02 0.  0.
         24    2    1    2    0    0 -0.11560185098E+02 -0.23179269215E+02  0.23072122169E+03  0.24548812456E+03  0.79757261476E+02 0.  0.
        -11    1    4    4    0    0 -0.22929339253E+02 -0.92263194725E+01  0.14779844543E+02  0.28797975177E+02  0.00000000000E+00 0.  1.
         12    1    4    4    0    0  0.11369154155E+02 -0.13952949743E+02  0.21594137715E+03  0.21669014938E+03  0.00000000000E+00 0. -1.
        -13    1    3    3    0    0  0.52205668179E+02 -0.28717042288E+02 -0.79359226664E+02  0.99237025169E+02  0.00000000000E+00 0.  1.
         13    1    3    3    0    0 -0.34427164756E+02  0.75731330501E+01 -0.32561219728E+02  0.47987655157E+02  0.00000000000E+00 0. -1.
         21    1    1    2  502  501 -0.62183183248E+01  0.44323178454E+02 -0.47323895102E+02  0.65136492680E+02  0.00000000000E+00 0.  1.
<scales pt_clust_5="13000.00000" pt_clust_6="13000.00000" pt_clust_7="13000.00000" pt_clust_8="13000.00000" pt_clust_9="44.75725"></scales>
<clustering>
<clus scale="   44.757">  2  9  1 -1</clus>
<clus scale="   79.757">  5  6 -1 -1</clus>
<clus scale="   83.276">  1  5  2 -1</clus>
<clus scale="   91.574">  7  8 -1 -1</clus>
<clus scale="   83.276">  1  5  2 -1</clus>
</clustering>
</event>
<event>
 9    2  0.6066854E-005  0.9445243E+02  0.7546771E-02  0.1302193E+00
         -1   -1    0    0    0  501 -0.00000000000E+00  0.00000000000E+00  0.12125830661E+03  0.12125830661E+03  0.00000000000E+00 0.  1.
          2   -1    0    0  502    0  0.00000000000E+00 -0.00000000000E+00 -0.17646339541E+03  0.17646339541E+03  0.00000000000E+00 0. -1.
         23    2    1    2    0    0  0.62998529817E+01  0.24616495886E+02  0.64157122703E+02  0.11399885884E+03  0.90741078939E+02 0.  0.
         24    2    1    2    0    0 -0.25631226860E+02 -0.99667107800E+01 -0.13379159581E+03  0.15550006247E+03  0.74322158239E+02 0.  0.
        -13    1    4    4    0    0  0.58547421609E+01 -0.26107297631E+02 -0.13218729316E+02  0.29842985777E+02  0.00000000000E+00 0.  1.
         14    1    4    4    0    0 -0.31485969021E+02  0.16140586851E+02 -0.12057286649E+03  0.12565707669E+03  0.00000000000E+00 0. -1.
        -11    1    3    3    0    0 -0.14392061035E+02  0.49641906481E+02  0.12816960621E+02  0.53251523729E+02  0.00000000000E+00 0. -1.
         11    1    3    3    0    0  0.20691914016E+02 -0.25025410594E+02  0.51340162082E+02  0.60747335116E+02  0.00000000000E+00 0.  1.
         21    1    1    2  502  501  0.19331373878E+02 -0.14649785106E+02  0.14429384306E+02  0.28222780712E+02  0.00000000000E+00 0.  1.
<scales pt_clust_5="13000.00000" pt_clust_6="13000.00000" pt_clust_7="13000.00000" pt_clust_8="13000.00000" pt_clust_9="24.25527"></scales>
<clustering>
<clus scale="   24.255">  1  9  2 -1</clus>
<clus scale="   74.322">  5  6 -1 -1</clus>
<clus scale="   78.811">  2  5  1 -1</clus>
<clus scale="   90.741">  7  8 -1 -1</clus>
<clus scale="   78.811">  2  5  1 -1</clus>
</clustering>
</event>
<event>
 9    2  0.6066854E-005  0.1023349E+03  0.7546771E-02  0.1280935E+00
         -1   -1    0    0    0  501 -0.00000000000E+00  0.00000000000E+00  0.31709804452E+03  0.31709804452E+03  0.00000000000E+00 0.  1.
          2   -1    0    0  502    0  0.00000000000E+00 -0.00000000000E+00 -0.44767014650E+03  0.44767014650E+03  0.00000000000E+00 0. -1.
         24    2    1    2    0    0 -0.18242157446E+02  0.10268750503E+03  0.21684768170E+02  0.13419438064E+03  0.81611289826E+02 0.  0.
         23    2    1    2    0    0 -0.31862753126E+01 -0.37831566897E+02 -0.37988232549E+03  0.39292108399E+03  0.92924793388E+02 0.  0.
        -11    1    3    3    0    0  0.30837422458E+02  0.45205912989E+02 -0.26591613096E+01  0.54786789757E+02  0.00000000000E+00 0.  1.
         12    1    3    3    0    0 -0.49079579905E+02  0.57481592040E+02  0.24343929479E+02  0.79407590882E+02  0.00000000000E+00 0. -1.
        -13    1    4    4    0    0  0.37588377803E+02 -0.43637396509E+02 -0.25497173297E+03  0.26139566395E+03  0.00000000000E+00 0. -1.
         13    1    4    4    0    0 -0.40774653115E+02  0.58058296123E+01 -0.12491059252E+03  0.13152542004E+03  0.00000000000E+00 0.  1.
         21    1    1    2  502  501  0.21428432759E+02 -0.64855938132E+02  0.22762545534E+03  0.23765272639E+03  0.00000000000E+00 0.  1.
<scales pt_clust_5="13000.00000" pt_clust_6="13000.00000" pt_clust_7="13000.00000" pt_clust_8="13000.00000" pt_clust_9="68.30425"></scales>
<clustering>
<clus scale="   68.304">  1  9  2 -1</clus>
<clus scale="   81.611">  5  6 -1 -1</clus>
<clus scale="   92.184">  1  5  2 -1</clus>
<clus scale="   92.925">  7  8 -1 -1</clus>
<clus scale="  102.335">  2  5  1 -1</clus>
</clustering>
</event>
<event>
 9    2  0.6066854E-005  0.9369525E+02  0.7546771E-02  0.1302178E+00
          2   -1    0    0  502    0  0.00000000000E+00  0.00000000000E+00  0.58744342320E+03  0.58744342320E+03  0.00000000000E+00 0. -1.
         -1   -1    0    0    0  501 -0.00000000000E+00 -0.00000000000E+00 -0.45630738650E+02  0.45630738650E+02  0.00000000000E+00 0.  1.
         23    2    1    2    0    0 -0.31789522693E+01  0.23541548312E+02  0.32739090213E+02  0.10125733501E+03  0.92827203077E+02 0.  0.
         24    2    1    2    0    0 -0.59925630563E+01  0.39866725033E+02  0.31590494366E+03  0.32830060285E+03  0.79750146252E+02 0.  0.
        -11    1    4    4    0    0  0.98130289936E+01  0.27655628497E+02  0.30963157020E+02  0.42659657971E+02  0.00000000000E+00 0.  1.
         12    1    4    4    0    0 -0.15805592050E+02  0.12211096536E+02  0.28494178664E+03  0.28564094488E+03  0.00000000000E+00 0. -1.
        -13    1    3    3    0    0  0.35585107984E+02 -0.42987974540E+01  0.39176270352E+02  0.53099526632E+02  0.00000000000E+00 0.  1.
         13    1    3    3    0    0 -0.38764060254E+02  0.27840345766E+02 -0.64371801390E+01  0.48157808379E+02  0.00000000000E+00 0. -1.
         21    1    1    2  502  501  0.91715153256E+01 -0.63408273345E+02  0.19316865068E+03  0.20351622399E+03  0.00000000000E+00 0.  1.
<scales pt_clust_5="13000.00000" pt_clust_6="13000.00000" pt_clust_7="13000.00000" pt_clust_8="13000.00000" pt_clust_9="64.06813"></scales>
<clustering>
<clus scale="   64.068">  1  9  2 -1</clus>
<clus scale="   79.750">  5  6 -1 -1</clus>
<clus scale="   80.759">  1  5  2 -1</clus>
<clus scale="   92.827">  7  8 -1 -1</clus>
<clus scale="   64.068">  1  5  2 -1</clus>
</clustering>
</event>
<event>
 9    2  0.6066854E-005  0.1180205E+03  0.7546771E-02  0.1257298E+00
         -1   -1    0    0    0  501 -0.00000000000E+00  0.00000000000E+00  0.16237316934E+03  0.16237316934E+03  0.00000000000E+00 0.  1.
          2   -1    0    0  502    0  0.00000000000E+00 -0.00000000000E+00 -0.49446025282E+03  0.49446025282E+03  0.00000000000E+00 0. -1.
         23    2    1    2    0    0  0.41085661611E+02 -0.55642792569E+02  0.11115343722E+03  0.16982953597E+03  0.10817963175E+03 0.  0.
         24    2    1    2    0    0 -0.31624949702E+02  0.33992393728E+02 -0.45200614152E+03  0.46180307374E+03  0.82443354305E+02 0.  0.
        -13    1    4    4    0    0 -0.26629970763E+02  0.47634288130E+02 -0.15294900970E+03  0.16239328901E+03  0.00000000000E+00 0.  1.
         14    1    4    4    0    0 -0.49949789385E+01 -0.13641894403E+02 -0.29905713182E+03  0.29940978472E+03  0.00000000000E+00 0. -1.
        -13    1    3    3    0    0  0.11838413262E+02 -0.71934037689E+02  0.24458743626E+02  0.76895279092E+02  0.00000000000E+00 0. -1.
         13    1    3    3    0    0  0.29247248349E+02  0.16291245120E+02  0.86694693594E+02  0.92934256875E+02  0.00000000000E+00 0.  1.
         21    1    1    2  502  501 -0.94607119095E+01  0.21650398842E+02  0.87656208175E+01  0.25200812450E+02  0.00000000000E+00 0. -1.
<scales pt_clust_5="13000.00000" pt_clust_6="13000.00000" pt_clust_7="13000.00000" pt_clust_8="13000.00000" pt_clust_9="23.62721"></scales>
<clustering>
<clus scale="   23.627">  1  9  2 -1</clus>
<clus scale="   82.443">  5  6 -1 -1</clus>
<clus scale="   94.989">  2  5  1 -1</clus>
<clus scale="  108.180">  7  8 -1 -1</clus>
<clus scale="   94.989">  2  5  1 -1</clus>
</clustering>
</event>
<event>
 9    2  0.6066854E-005  0.8871814E+02  0.7546771E-02  0.1310183E+00
         -1   -1    0    0    0  501 -0.00000000000E+00  0.00000000000E+00  0.41111855503E+02  0.41111855503E+02  0.00000000000E+00 0.  1.
          2   -1    0    0  502    0  0.00000000000E+00 -0.00000000000E+00 -0.70810742850E+03  0.70810742850E+03  0.00000000000E+00 0. -1.
         23    2    1    2    0    0 -0.20953954007E+02  0.39513511842E+02 -0.10857098731E+03  0.14481878947E+03  0.84761056458E+02 0.  0.
         24    2    1    2    0    0 -0.32674654769E+02 -0.44225461125E+01 -0.52565707896E+03  0.53242054558E+03  0.77904304839E+02 0.  0.
        -13    1    4    4    0    0  0.19765895970E+02 -0.70837062605E+01 -0.55475522265E+02  0.59316128570E+02  0.00000000000E+00 0.  1.
         14    1    4    4    0    0 -0.52440550739E+02  0.26611601480E+01 -0.47018155669E+03  0.47310441701E+03  0.00000000000E+00 0. -1.
        -11    1    3    3    0    0  0.22075964679E+02 -0.11029389626E+02 -0.11508764296E+02  0.27229530067E+02  0.00000000000E+00 0.  1.
         11    1    3    3    0    0 -0.43029918686E+02  0.50542901468E+02 -0.97062223010E+02  0.11758925940E+03  0.00000000000E+00 0. -1.
         21    1    1    2  502  501  0.53628608776E+02 -0.35090965730E+02 -0.32767506736E+02  0.71979948964E+02  0.00000000000E+00 0.  1.
<scales pt_clust_5="13000.00000" pt_clust_6="13000.00000" pt_clust_7="13000.00000" pt_clust_8="13000.00000" pt_clust_9="64.08903"></scales>
<clustering>
<clus scale="   64.089">  1  9  2 -1</clus>
<clus scale="   77.904">  5  6 -1 -1</clus>
<clus scale="   82.192">  2  5  1 -1</clus>
<clus scale="   84.761">  7  8 -1 -1</clus>
<clus scale="   82.192">  2  5  1 -1</clus>
</clustering>
</event>
<event>
 9    2  0.6066854E-005  0.1030330E+03  0.7546771E-02  0.1279952E+00
          2   -1    0    0  502    0  0.00000000000E+00  0.00000000000E+00  0.76169504886E+03  0.76169504886E+03  0.00000000000E+00 0. -1.
         -1   -1    0    0    0  501 -0.00000000000E+00 -0.00000000000E+00 -0.21558965207E+02  0.21558965207E+02  0.00000000000E+00 0.  1.
         23    2    1    2    0    0 -0.33529575160E+02 -0.37150683306E+02  0.15257000485E+03  0.18525146779E+03  0.92390985796E+02 0.  0.
         24    2    1    2    0    0  0.13525225948E+02  0.30253600646E+02  0.52151795781E+03  0.52864767606E+03  0.79932302593E+02 0.  0.
        -11    1    4    4    0    0 -0.31597764022E+02  0.22684298330E+02  0.18593396500E+03  0.18995903617E+03  0.00000000000E+00 0.  1.
         12    1    4    4    0    0  0.45122989970E+02  0.75693023159E+01  0.33558399281E+03  0.33868863989E+03  0.00000000000E+00 0. -1.
        -13    1    3    3    0    0  0.26751027812E+02 -0.35533033908E+02  0.71677299768E+02  0.84355493537E+02  0.00000000000E+00 0.  1.
         13    1    3    3    0    0 -0.60280602972E+02 -0.16176493979E+01  0.80892705086E+02  0.10089597425E+03  0.00000000000E+00 0. -1.
         21    1    1    2  502  501  0.20004349212E+02  0.68970826596E+01  0.66048120990E+02  0.69354870218E+02  0.00000000000E+00 0.  1.
<scales pt_clust_5="13000.00000" pt_clust_6="13000.00000" pt_clust_7="13000.00000" pt_clust_8="13000.00000" pt_clust_9="21.15996"></scales>
<clustering>
<clus scale="   21.160">  1  9  2 -1</clus>
<clus scale="   79.932">  5  6 -1 -1</clus>
<clus scale="   92.026">  1  5  2 -1</clus>
<clus scale="   92.391">  7  8 -1 -1</clus>
<clus scale="   21.160">  1  5  2 -1</clus>
</clustering>
</event>
<event>
 9    2  0.6066854E-005  0.1038835E+03  0.7546771E-02  0.1278069E+00
         -1   -1    0    0    0  501 -0.00000000000E+00  0.00000000000E+00  0.80466012903E+02  0.80466012903E+02  0.00000000000E+00 0.  1.
          2   -1    0    0  502    0  0.00000000000E+00 -0.00000000000E+00 -0.86690477633E+03  0.86690477633E+03  0.00000000000E+00 0. -1.
         23    2    1    2    0    0  0.40947870305E+02 -0.27697336149E+02  0.34782364881E+02  0.11100327137E+03  0.93102324542E+02 0.  0.
         24    2    1    2    0    0  0.12158466290E+02 -0.11443376349E+01 -0.64300467791E+03  0.64818349005E+03  0.80855940704E+02 0.  0.
        -13    1    4    4    0    0  0.88858673329E+01 -0.39158090674E+02 -0.23571529469E+03  0.23911088401E+03  0.00000000000E+00 0.  1.
         14    1    4    4    0    0  0.32725989569E+01  0.38013753039E+02 -0.40728938322E+03  0.40907260603E+03  0.00000000000E+00 0. -1.
        -13    1    3    3    0    0  0.71205827395E+02 -0.17057717790E+02  0.26594575356E+02  0.77900622781E+02  0.00000000000E+00 0.  1.
         13    1    3    3    0    0 -0.30257957090E+02 -0.10639618358E+02  0.81877895250E+01  0.33102648586E+02  0.00000000000E+00 0. -1.
         21    1    1    2  502  501 -0.53106336595E+02  0.28841673783E+02 -0.17821645040E+03  0.18818402782E+03  0.00000000000E+00 0. -1.
<scales pt_clust_5="13000.00000" pt_clust_6="13000.00000" pt_clust_7="13000.00000" pt_clust_8="13000.00000" pt_clust_9="60.43282"></scales>
<clustering>
<clus scale="   60.433">  2  9  1 -1</clus>
<clus scale="   80.856">  5  6 -1 -1</clus>
<clus scale="   93.067">  2  5  1 -1</clus>
<clus scale="   93.102">  7  8 -1 -1</clus>
<clus scale="   60.433">  2  5  1 -1</clus>
</clustering>
</event>
<event>
 9    2  0.6066854E-005  0.1178840E+03  0.7546771E-02  0.1249873E+00
          2   -1    0    0  502    0  0.00000000000E+00  0.00000000000E+00  0.28656223809E+03  0.28656223809E+03  0.00000000000E+00 0. -1.
         -1   -1    0    0    0  501 -0.00000000000E+00 -0.00000000000E+00 -0.10025945701E+03  0.10025945701E+03  0.00000000000E+00 0.  1.
         23    2    1    2    0    0  0.67722694693E+01 -0.52542714574E+02 -0.27191001986E+02  0.10869065363E+03  0.90926932799E+02 0.  0.
         24    2    1    2    0    0 -0.31172755633E+02  0.73590398404E+02  0.21766269082E+03  0.24563844983E+03  0.81079674567E+02 0.  0.
        -11    1    4    4    0    0  0.27523324390E+02  0.29955960206E+02  0.75167720646E+02  0.85469755846E+02  0.00000000000E+00 0.  1.
         12    1    4    4    0    0 -0.58696080023E+02  0.43634438199E+02  0.14249497018E+03  0.16016869399E+03  0.00000000000E+00 0. -1.
        -13    1    3    3    0    0 -0.33509268782E+01 -0.75409619600E+02 -0.56680606289E+01  0.75696541206E+02  0.00000000000E+00 0. -1.
         13    1    3    3    0    0  0.10123196347E+02  0.22866905026E+02 -0.21522941357E+02  0.32994112421E+02  0.00000000000E+00 0.  1.
         21    1    1    2  502  501  0.24400486164E+02 -0.21047683830E+02 -0.41689077668E+01  0.32492591642E+02  0.00000000000E+00 0. -1.
<scales pt_clust_5="13000.00000" pt_clust_6="13000.00000" pt_clust_7="13000.00000" pt_clust_8="13000.00000" pt_clust_9="32.22404"></scales>
<clustering>
<clus scale="   32.224">  2  9  1 -1</clus>
<clus scale="   81.080">  5  6 -1 -1</clus>
<clus scale="   90.927">  7  8 -1 -1</clus>
<clus scale="  110.466">  1  5  2 -1</clus>
<clus scale="  110.466">  1  5  2 -1</clus>
</clustering>
</event>
<event>
 9    2  0.6066854E-005  0.9253712E+02  0.7546771E-02  0.1302895E+00
          2   -1    0    0  502    0  0.00000000000E+00  0.00000000000E+00  0.60115044552E+02  0.60115044552E+02  0.00000000000E+00 0. -1.
         -1   -1    0    0    0  501 -0.00000000000E+00 -0.00000000000E+00 -0.33979998812E+03  0.33979998812E+03  0.00000000000E+00 0.  1.
         24    2    1    2    0    0 -0.30504270608E+02  0.15457383074E+02 -0.12037066834E+03  0.14943684235E+03  0.81687397052E+02 0.  0.
         23    2    1    2    0    0  0.62483658582E+01  0.46858175515E+00 -0.33939755088E+01  0.91880822330E+02  0.91604065398E+02 0.  0.
        -11    1    3    3    0    0 -0.57947402631E+02  0.20188154467E+01 -0.77420633792E+02  0.96726064864E+02  0.00000000000E+00 0.  1.
         12    1    3    3    0    0  0.27443132023E+02  0.13438567627E+02 -0.42950034553E+02  0.52710777486E+02  0.00000000000E+00 0. -1.
        -13    1    4    4    0    0  0.25879766813E+02  0.38670835273E+02  0.85258948498E+01  0.47306307339E+02  0.00000000000E+00 0. -1.
         13    1    4    4    0    0 -0.19631400955E+02 -0.38202253518E+02 -0.11919870359E+02  0.44574514991E+02  0.00000000000E+00 0.  1.
         21    1    1    2  502  501  0.24255904750E+02 -0.15925964829E+02 -0.15592029972E+03  0.15859736799E+03  0.00000000000E+00 0. -1.
<scales pt_clust_5="13000.00000" pt_clust_6="13000.00000" pt_clust_7="13000.00000" pt_clust_8="13000.00000" pt_clust_9="29.01698"></scales>
<clustering>
<clus scale="   29.017">  2  9  1 -1</clus>
<clus scale="   81.687">  5  6 -1 -1</clus>
<clus scale="   82.732">  2  5  1 -1</clus>
<clus scale="   91.604">  7  8 -1 -1</clus>
<clus scale="   92.537">  1  5  2 -1</clus>
</clustering>
</event>
<event>
 9    2  0.6066854E-005  0.1061889E+03  0.7546771E-02  0.1273152E+00
         -1   -1    0    0    0  501 -0.00000000000E+00  0.00000000000E+00  0.51557162617E+03  0.51557162617E+03  0.00000000000E+00 0.  1.
          2   -1    0    0  502    0  0.00000000000E+00 -0.00000000000E+00 -0.28248631570E+02  0.28248631570E+02  0.00000000000E+00 0. -1.
         23    2    1    2    0    0 -0.60894329979E+02  0.73263959949E+01  0.22460046771E+03  0.25051176295E+03  0.92460682335E+02 0.  0.
         24    2    1    2    0    0  0.46668886253E+02  0.79683115889E+01  0.13587756029E+03  0.16475524948E+03  0.80250245523E+02 0.  0.
        -13    1    4    4    0    0  0.15760166088E+02  0.38215982798E+02  0.10121671085E+03  0.10933282550E+03  0.00000000000E+00 0.  1.
         14    1    4    4    0    0  0.30908720166E+02 -0.30247671209E+02  0.34660849444E+02  0.55422423982E+02  0.00000000000E+00 0. -1.
        -11    1    3    3    0    0 -0.67279679835E+02  0.39470352648E+02  0.15151358828E+03  0.17041370687E+03  0.00000000000E+00 0.  1.
         11    1    3    3    0    0  0.63853498558E+01 -0.32143956653E+02  0.73086879439E+02  0.80098056082E+02  0.00000000000E+00 0. -1.
         21    1    1    2  502  501  0.14225443726E+02 -0.15294707584E+02  0.12684496659E+03  0.12855324531E+03  0.00000000000E+00 0. -1.
<scales pt_clust_5="13000.00000" pt_clust_6="13000.00000" pt_clust_7="13000.00000" pt_clust_8="13000.00000" pt_clust_9="20.88759"></scales>
<clustering>
<clus scale="   20.888">  1  9  2 -1</clus>
<clus scale="   80.250">  5  6 -1 -1</clus>
<clus scale="   92.461">  7  8 -1 -1</clus>
<clus scale="   95.746">  2  5  1 -1</clus>
<clus scale="   95.746">  2  5  1 -1</clus>
</clustering>
</event>
<event>
 9    2  0.6066854E-005  0.9662633E+02  0.7546771E-02  0.1292967E+00
          2   -1    0    0  502    0  0.00000000000E+00  0.00000000000E+00  0.55749287780E+03  0.55749287780E+03  0.00000000000E+00 0. -1.
         -1   -1    0    0    0  501 -0.00000000000E+00 -0.00000000000E+00 -0.11796362799E+03  0.11796362799E+03  0.00000000000E+00 0.  1.
         23    2    1    2    0    0  0.98469836272E+01  0.18186398950E+02 -0.74021738533E+02  0.11834923761E+03  0.89997867052E+02 0.  0.
         24    2    1    2    0    0  0.94475614896E+01 -0.34669513470E+02  0.52280398841E+03  0.53009633436E+03  0.79917969375E+02 0.  0.
        -11    1    4    4    0    0 -0.34102703431E+02 -0.43030911679E+01  0.19002805107E+03  0.19311181002E+03  0.00000000000E+00 0.  1.
         12    1    4    4    0    0  0.43550264920E+02 -0.30366422302E+02  0.33277593734E+03  0.33698452434E+03  0.00000000000E+00 0. -1.
        -11    1    3    3    0    0  0.48351993985E+01  0.48197792717E+02 -0.73366720028E+02  0.87915197683E+02  0.00000000000E+00 0.  1.
         11    1    3    3    0    0  0.50117842287E+01 -0.30011393767E+02 -0.65501850502E+00  0.30434039926E+02  0.00000000000E+00 0. -1.
         21    1    1    2  502  501 -0.19294545117E+02  0.16483114520E+02 -0.92530000690E+01  0.27010933820E+02  0.00000000000E+00 0. -1.
<scales pt_clust_5="13000.00000" pt_clust_6="13000.00000" pt_clust_7="13000.00000" pt_clust_8="13000.00000" pt_clust_9="25.37661"></scales>
<clustering>
<clus scale="   25.377">  2  9  1 -1</clus>
<clus scale="   79.918">  5  6 -1 -1</clus>
<clus scale="   87.315">  1  5  2 -1</clus>
<clus scale="   89.998">  7  8 -1 -1</clus>
<clus scale="   87.315">  1  5  2 -1</clus>
</clustering>
</event>
<event>
 9    2  0.8256692E-005  0.1206248E+03  0.7546771E-02  0.1243768E+00
         -1   -1    0    0    0  501 -0.00000000000E+00  0.00000000000E+00  0.34454652883E+03  0.34454652883E+03  0.00000000000E+00 0.  1.
          2   -1    0    0  502    0  0.00000000000E+00 -0.00000000000E+00 -0.12108681532E+04  0.12108681532E+04  0.00000000000E+00 0. -1.
         23    2    1    2    0    0  0.60378655341E+02 -0.25572330546E+02  0.31505738559E+03  0.33291453301E+03  0.85272527610E+02 0.  0.
         24    2    1    2    0    0 -0.81588529290E+02  0.25541307135E+02 -0.11927435467E+04  0.11984374723E+04  0.79411336174E+02 0.  0.
        -11    1    4    4    0    0 -0.38583843772E+02  0.14267874184E+02 -0.17684559042E+03  0.18156719991E+03  0.00000000000E+00 0.  1.
         12    1    4    4    0    0 -0.43004685519E+02  0.11273432951E+02 -0.10158979563E+04  0.10168702724E+04  0.00000000000E+00 0. -1.
        -13    1    3    3    0    0  0.61569821193E+02  0.48961728457E+01  0.27870716125E+03  0.28546890746E+03  0.00000000000E+00 0.  1.
         13    1    3    3    0    0 -0.11911658526E+01 -0.30468503391E+02  0.36350224337E+02  0.47445625556E+02  0.00000000000E+00 0. -1.
         21    1    1    2  502  501  0.21209873950E+02  0.31023410933E-01  0.11364536746E+02  0.24062676718E+02  0.00000000000E+00 0.  1.
<scales pt_clust_5="13000.00000" pt_clust_6="13000.00000" pt_clust_7="13000.00000" pt_clust_8="13000.00000" pt_clust_9="21.20990"></scales>
<clustering>
<clus scale="   21.210">  1  9  2 -1</clus>
<clus scale="   79.411">  5  6 -1 -1</clus>
<clus scale="   85.273">  7  8 -1 -1</clus>
<clus scale="  116.555">  2  5  1 -1</clus>
<clus scale="  116.555">  2  5  1 -1</clus>
</clustering>
</event>
<event>
 9    2  0.6066854E-005  0.9298720E+02  0.7546771E-02  0.1299782E+00
          2   -1    0    0  502    0  0.00000000000E+00  0.00000000000E+00  0.30286821406E+03  0.30286821406E+03  0.00000000000E+00 0. -1.
         -1   -1    0    0    0  501 -0.00000000000E+00 -0.00000000000E+00 -0.20531132081E+03  0.20531132081E+03  0.00000000000E+00 0.  1.
         23    2    1    2    0    0 -0.32095834727E+02 -0.14608718612E+02 -0.11997124735E+03  0.15416585320E+03  0.90169023700E+02 0.  0.
         24    2    1    2    0    0  0.21994309882E+02 -0.43176222857E+01  0.27735312514E+03  0.29045838325E+03  0.83300209157E+02 0.  0.
        -13    1    4    4    0    0  0.33525487819E+02 -0.27204011003E+02  0.75402042903E+02  0.86887770268E+02  0.00000000000E+00 0.  1.
         14    1    4    4    0    0 -0.11531177937E+02  0.22886388717E+02  0.20195108223E+03  0.20357061298E+03  0.00000000000E+00 0. -1.
        -13    1    3    3    0    0 -0.30974908272E+02 -0.46709107497E+02 -0.42619277137E+02  0.70410144505E+02  0.00000000000E+00 0. -1.
         13    1    3    3    0    0 -0.11209264555E+01  0.32100388885E+02 -0.77351970211E+02  0.83755708690E+02  0.00000000000E+00 0.  1.
         21    1    1    2  502  501  0.10101524845E+02  0.18926340898E+02 -0.59824984535E+02  0.63555298430E+02  0.00000000000E+00 0. -1.
<scales pt_clust_5="13000.00000" pt_clust_6="13000.00000" pt_clust_7="13000.00000" pt_clust_8="13000.00000" pt_clust_9="21.45337"></scales>
<clustering>
<clus scale="   21.453">  2  9  1 -1</clus>
<clus scale="   83.300">  5  6 -1 -1</clus>
<clus scale="   86.343">  1  5  2 -1</clus>
<clus scale="   90.169">  7  8 -1 -1</clus>
<clus scale="   86.343">  1  5  2 -1</clus>
</clustering>
</event>
<event>
 9    2  0.6066854E-005  0.1048693E+03  0.7546771E-02  0.1273627E+00
         -1   -1    0    0    0  501 -0.00000000000E+00  0.00000000000E+00  0.16955972471E+03  0.16955972471E+03  0.00000000000E+00 0.  1.
          2   -1    0    0  502    0  0.00000000000E+00 -0.00000000000E+00 -0.10044500602E+03  0.10044500602E+03  0.00000000000E+00 0. -1.
         23    2    1    2    0    0 -0.68031530544E+01 -0.32775582167E+02  0.73181867046E+02  0.12087102343E+03  0.90187011048E+02 0.  0.
         24    2    1    2    0    0  0.16640780499E+02  0.58930574579E+02 -0.33820793527E+02  0.10831530529E+03  0.82696016159E+02 0.  0.
        -13    1    4    4    0    0 -0.28613542271E+02  0.16748469293E+02  0.74059913730E+01  0.33971969815E+02  0.00000000000E+00 0.  1.
         14    1    4    4    0    0  0.45254322770E+02  0.42182105286E+02 -0.41226784900E+02  0.74343335471E+02  0.00000000000E+00 0. -1.
        -11    1    3    3    0    0 -0.22447119482E+02 -0.96573122732E+01 -0.14798901862E+02  0.28568240228E+02  0.00000000000E+00 0. -1.
         11    1    3    3    0    0  0.15643966428E+02 -0.23118269894E+02  0.87980768908E+02  0.92302783198E+02  0.00000000000E+00 0.  1.
         21    1    1    2  502  501 -0.98376274446E+01 -0.26154992412E+02  0.29753645170E+02  0.40818402011E+02  0.00000000000E+00 0.  1.
<scales pt_clust_5="13000.00000" pt_clust_6="13000.00000" pt_clust_7="13000.00000" pt_clust_8="13000.00000" pt_clust_9="27.94392"></scales>
<clustering>
<clus scale="   27.944">  1  9  2 -1</clus>
<clus scale="   82.696">  5  6 -1 -1</clus>
<clus scale="   90.187">  7  8 -1 -1</clus>
<clus scale="   98.501">  2  5  1 -1</clus>
<clus scale="   98.501">  2  5  1 -1</clus>
</clustering>
</event>
<event>
 9    2  0.6066854E-005  0.9960119E+02  0.7546771E-02  0.1288954E+00
          2   -1    0    0  502    0  0.00000000000E+00  0.00000000000E+00  0.95050515213E+02  0.95050515213E+02  0.00000000000E+00 0. -1.
         -1   -1    0    0    0  501 -0.00000000000E+00 -0.00000000000E+00 -0.19831335470E+03  0.19831335470E+03  0.00000000000E+00 0.  1.
         23    2    1    2    0    0  0.53581611773E+02 -0.12381521250E+01 -0.12237204557E+03  0.16235467713E+03  0.92258341134E+02 0.  0.
         24    2    1    2    0    0 -0.33902995498E+02  0.81363770315E+01  0.46395903302E+02  0.96666838605E+02  0.77306429925E+02 0.  0.
        -13    1    4    4    0    0  0.45112622909E+01  0.29262244181E+02 -0.39931610408E+01  0.29876006378E+02  0.00000000000E+00 0.  1.
         14    1    4    4    0    0 -0.38414257789E+02 -0.21125867150E+02  0.50389064342E+02  0.66790832227E+02  0.00000000000E+00 0. -1.
        -13    1    3    3    0    0  0.79751198667E+02  0.42982210472E+01 -0.88887081460E+02  0.11949745455E+03  0.00000000000E+00 0.  1.
         13    1    3    3    0    0 -0.26169586895E+02 -0.55363731722E+01 -0.33484964106E+02  0.42857222581E+02  0.00000000000E+00 0. -1.
         21    1    1    2  502  501 -0.19678616275E+02 -0.68982249064E+01 -0.27286697227E+02  0.34342354184E+02  0.00000000000E+00 0.  1.
<scales pt_clust_5="13000.00000" pt_clust_6="13000.00000" pt_clust_7="13000.00000" pt_clust_8="13000.00000" pt_clust_9="20.85266"></scales>
<clustering>
<clus scale="   20.853">  2  9  1 -1</clus>
<clus scale="   77.306">  5  6 -1 -1</clus>
<clus scale="   85.936">  1  5  2 -1</clus>
<clus scale="   92.258">  7  8 -1 -1</clus>
<clus scale="   85.936">  1  5  2 -1</clus>
</clustering>
</event>
<event>
 9    2  0.6066854E-005  0.9636913E+02  0.7546771E-02  0.1295033E+00
         -1   -1    0    0    0  501 -0.00000000000E+00  0.00000000000E+00  0.84649265973E+02  0.84649265973E+02  0.00000000000E+00 0.  1.
          2   -1    0    0  502    0  0.00000000000E+00 -0.00000000000E+00 -0.44336045306E+03  0.44336045306E+03  0.00000000000E+00 0. -1.
         24    2    1    2    0    0 -0.20630873442E+02 -0.13018584152E+02 -0.92636289958E+02  0.12428536541E+03  0.79184931424E+02 0.  0.
         23    2    1    2    0    0  0.74538935773E+01  0.34456005153E+02 -0.32508725722E+03  0.33957098690E+03  0.91563931314E+02 0.  0.
        -11    1    3    3    0    0  0.27237812097E+02 -0.17108748299E+02 -0.53025143945E+02  0.62018332504E+02  0.00000000000E+00 0.  1.
         12    1    3    3    0    0 -0.47868685539E+02  0.40901641470E+01 -0.39611146014E+02  0.62267032903E+02  0.00000000000E+00 0. -1.
        -11    1    4    4    0    0 -0.37838557933E+02 -0.34058348840E+01 -0.15273561337E+03  0.15738971939E+03  0.00000000000E+00 0.  1.
         11    1    4    4    0    0  0.45292451510E+02  0.37861840037E+02 -0.17235164385E+03  0.18218126751E+03  0.00000000000E+00 0. -1.
         21    1    1    2  502  501  0.13176979865E+02 -0.21437421001E+02  0.59012360096E+02  0.64153366721E+02  0.00000000000E+00 0.  1.
<scales pt_clust_5="13000.00000" pt_clust_6="13000.00000" pt_clust_7="13000.00000" pt_clust_8="13000.00000" pt_clust_9="25.16338"></scales>
<clustering>
<clus scale="   25.163">  1  9  2 -1</clus>
<clus scale="   79.185">  5  6 -1 -1</clus>
<clus scale="   84.695">  1  5  2 -1</clus>
<clus scale="   91.564">  7  8 -1 -1</clus>
<clus scale="   96.369">  2  5  1 -1</clus>
</clustering>
</event>
<event>
 9    2  0.6066854E-005  0.1114060E+03  0.7546771E-02  0.1264176E+00
         -1   -1    0    0    0  501 -0.00000000000E+00  0.00000000000E+00  0.27351994646E+03  0.27351994646E+03  0.00000000000E+00 0.  1.
          2   -1    0    0  502    0  0.00000000000E+00 -0.00000000000E+00 -0.91405189047E+02  0.91405189047E+02  0.00000000000E+00 0. -1.
         23    2    1    2    0    0  0.18821361974E+02 -0.39354775728E+01  0.12193192080E+03  0.15315151695E+03  0.90654631340E+02 0.  0.
         24    2    1    2    0    0 -0.77628403352E+02  0.18260010198E+02 -0.20403074661E+02  0.11098894985E+03  0.74449073559E+02 0.  0.
        -11    1    4    4    0    0 -0.48663521546E+02 -0.26285769201E+02 -0.43380731180E+01  0.55478814606E+02  0.00000000000E+00 0.  1.
         12    1    4    4    0    0 -0.28964881806E+02  0.44545779399E+02 -0.16065001543E+02  0.55510135244E+02  0.00000000000E+00 0. -1.
        -13    1    3    3    0    0  0.25330709282E+02  0.26316181340E+02  0.11603799976E+03  0.12165115545E+03  0.00000000000E+00 0.  1.
         13    1    3    3    0    0 -0.65093473079E+01 -0.30251658913E+02  0.58939210348E+01  0.31500361498E+02  0.00000000000E+00 0. -1.
         21    1    1    2  502  501  0.58807041378E+02 -0.14324532625E+02  0.80585911272E+02  0.10078466871E+03  0.00000000000E+00 0.  1.
<scales pt_clust_5="13000.00000" pt_clust_6="13000.00000" pt_clust_7="13000.00000" pt_clust_8="13000.00000" pt_clust_9="60.52653"></scales>
<clustering>
<clus scale="   60.527">  1  9  2 -1</clus>
<clus scale="   74.449">  5  6 -1 -1</clus>
<clus scale="   90.655">  7  8 -1 -1</clus>
<clus scale="   98.670">  2  5  1 -1</clus>
<clus scale="   98.670">  2  5  1 -1</clus>
</clustering>
</event>
<event>
 9    2  0.6066854E-005  0.9527866E+02  0.7546771E-02  0.1296635E+00
          2   -1    0    0  502    0  0.00000000000E+00  0.00000000000E+00  0.42225876215E+02  0.42225876215E+02  0.00000000000E+00 0. -1.
         -1   -1    0    0    0  501 -0.00000000000E+00 -0.00000000000E+00 -0.34386649608E+03  0.34386649608E+03  0.00000000000E+00 0.  1.
         23    2    1    2    0    0 -0.18963883559E+01  0.66322210368E+01 -0.16344732576E+03  0.18749890873E+03  0.91614572153E+02 0.  0.
         24    2    1    2    0    0 -0.10721310275E+02 -0.32407441123E+02 -0.40430820498E+02  0.96705929811E+02  0.80945641516E+02 0.  0.
        -11    1    4    4    0    0 -0.42969299783E+02 -0.34944487620E+02 -0.27908796251E+02  0.62019181283E+02  0.00000000000E+00 0.  1.
         12    1    4    4    0    0  0.32247989508E+02  0.25370464975E+01 -0.12522024247E+02  0.34686748528E+02  0.00000000000E+00 0. -1.
        -13    1    3    3    0    0 -0.34812069500E+02 -0.14795285499E+02 -0.13161674311E+03  0.13694432344E+03  0.00000000000E+00 0.  1.
         13    1    3    3    0    0  0.32915681144E+02  0.21427506536E+02 -0.31830582652E+02  0.50554585287E+02  0.00000000000E+00 0. -1.
         21    1    1    2  502  501  0.12617698631E+02  0.25775220086E+02 -0.97762473604E+02  0.10188753375E+03  0.00000000000E+00 0. -1.
<scales pt_clust_5="13000.00000" pt_clust_6="13000.00000" pt_clust_7="13000.00000" pt_clust_8="13000.00000" pt_clust_9="28.69788"></scales>
<clustering>
<clus scale="   28.698">  2  9  1 -1</clus>
<clus scale="   80.946">  5  6 -1 -1</clus>
<clus scale="   85.070">  1  5  2 -1</clus>
<clus scale="   91.615">  7  8 -1 -1</clus>
<clus scale="   85.070">  1  5  2 -1</clus>
</clustering>
</event>
<event>
 9    2  0.6066854E-005  0.1493155E+03  0.7546771E-02  0.1204023E+00
          2   -1    0    0  502    0  0.00000000000E+00  0.00000000000E+00  0.39916597247E+03  0.39916597247E+03  0.00000000000E+00 0. -1.
         -1   -1    0    0    0  501 -0.00000000000E+00 -0.00000000000E+00 -0.21897994360E+03  0.21897994360E+03  0.00000000000E+00 0.  1.
         23    2    1    2    0    0 -0.15457037169E+03  0.98319629459E+02  0.81467208181E+01  0.20665713522E+03  0.95299806586E+02 0.  0.
         24    2    1    2    0    0  0.93153796960E+02 -0.46677101019E+02  0.26045859461E+03  0.29208644992E+03  0.81359898422E+02 0.  0.
        -13    1    4    4    0    0  0.24836990859E+02  0.23506704129E+02  0.63753590231E+02  0.72346123056E+02  0.00000000000E+00 0.  1.
         14    1    4    4    0    0  0.68316806101E+02 -0.70183805149E+02  0.19670500438E+03  0.21974032686E+03  0.00000000000E+00 0. -1.
        -11    1    3    3    0    0 -0.51434030417E+02  0.15961818725E+02 -0.39013241245E+02  0.66500166424E+02  0.00000000000E+00 0.  1.
         11    1    3    3    0    0 -0.10313634127E+03  0.82357810734E+02  0.47159962063E+02  0.14015696880E+03  0.00000000000E+00 0. -1.
         21    1    1    2  502  501  0.61416574733E+02 -0.51642528440E+02 -0.88419286561E+02  0.11940233093E+03  0.00000000000E+00 0.  1.
<scales pt_clust_5="13000.00000" pt_clust_6="13000.00000" pt_clust_7="13000.00000" pt_clust_8="13000.00000" pt_clust_9="80.24305"></scales>
<clustering>
<clus scale="   80.243">  2  9  1 -1</clus>
<clus scale="   81.360">  5  6 -1 -1</clus>
<clus scale="   95.300">  7  8 -1 -1</clus>
<clus scale="  140.828">  1  5  2 -1</clus>
<clus scale="  140.828">  1  5  2 -1</clus>
</clustering>
</event>
<event>
 9    2  0.6066854E-005  0.1123581E+03  0.7546771E-02  0.1261433E+00
          2   -1    0    0  502    0  0.00000000000E+00  0.00000000000E+00  0.34610081379E+03  0.34610081379E+03  0.00000000000E+00 0. -1.
         -1   -1    0    0    0  501 -0.00000000000E+00 -0.00000000000E+00 -0.40447861539E+02  0.40447861539E+02  0.00000000000E+00 0.  1.
         23    2    1    2    0    0 -0.60824297454E+01  0.51405047237E+02  0.13045732108E+03  0.16890853052E+03  0.93976083258E+02 0.  0.
         24    2    1    2    0    0  0.11009365676E+02 -0.71551769915E+02  0.14653908352E+03  0.18226553732E+03  0.80660778476E+02 0.  0.
        -13    1    4    4    0    0  0.14307910939E+02 -0.19137449312E+02 -0.27081582331E+01  0.24047710964E+02  0.00000000000E+00 0.  1.
         14    1    4    4    0    0 -0.32985452622E+01 -0.52414320603E+02  0.14924724175E+03  0.15821782635E+03  0.00000000000E+00 0. -1.
        -13    1    3    3    0    0  0.28318535122E+02  0.63981320657E+02  0.76256582013E+02  0.10349210175E+03  0.00000000000E+00 0.  1.
         13    1    3    3    0    0 -0.34400964867E+02 -0.12576273420E+02  0.54200739069E+02  0.65416428766E+02  0.00000000000E+00 0. -1.
         21    1    1    2  502  501 -0.49269359309E+01  0.20146722677E+02  0.28656547652E+02  0.35374607498E+02  0.00000000000E+00 0. -1.
<scales pt_clust_5="13000.00000" pt_clust_6="13000.00000" pt_clust_7="13000.00000" pt_clust_8="13000.00000" pt_clust_9="20.74042"></scales>
<clustering>
<clus scale="   20.740">  1  9  2 -1</clus>
<clus scale="   80.661">  5  6 -1 -1</clus>
<clus scale="   93.976">  7  8 -1 -1</clus>
<clus scale="  101.484">  1  5  2 -1</clus>
<clus scale="   20.740">  1  5  2 -1</clus>
</clustering>
</event>
<event>
 9    2  0.6066854E-005  0.1050637E+03  0.7546771E-02  0.1276119E+00
          2   -1    0    0  502    0  0.00000000000E+00  0.00000000000E+00  0.18391404799E+03  0.18391404799E+03  0.00000000000E+00 0. -1.
         -1   -1    0    0    0  501 -0.00000000000E+00 -0.00000000000E+00 -0.29714914865E+03  0.29714914865E+03  0.00000000000E+00 0.  1.
         23    2    1    2    0    0 -0.44354208896E+02  0.56030880463E+02 -0.10691183859E+03  0.15880522501E+03  0.93178338946E+02 0.  0.
         24    2    1    2    0    0  0.11854248568E+02 -0.45186645031E+02  0.14232446181E+03  0.16971292687E+03  0.79773861753E+02 0.  0.
        -13    1    4    4    0    0 -0.25273679206E+02 -0.11888714010E+02  0.12426032988E+02  0.30569701949E+02  0.00000000000E+00 0.  1.
         14    1    4    4    0    0  0.37127927774E+02 -0.33297931020E+02  0.12989842882E+03  0.13914322492E+03  0.00000000000E+00 0. -1.
        -13    1    3    3    0    0 -0.64211097394E+02  0.47149601354E+02 -0.11104415485E+03  0.13666365377E+03  0.00000000000E+00 0.  1.
         13    1    3    3    0    0  0.19856888498E+02  0.88812791092E+01  0.41323162570E+01  0.22141571243E+02  0.00000000000E+00 0. -1.
         21    1    1    2  502  501  0.32499960328E+02 -0.10844235433E+02 -0.14864772388E+03  0.15254504475E+03  0.00000000000E+00 0.  1.
<scales pt_clust_5="13000.00000" pt_clust_6="13000.00000" pt_clust_7="13000.00000" pt_clust_8="13000.00000" pt_clust_9="34.26142"></scales>
<clustering>
<clus scale="   34.261">  2  9  1 -1</clus>
<clus scale="   79.774">  5  6 -1 -1</clus>
<clus scale="   93.178">  7  8 -1 -1</clus>
<clus scale="   93.381">  1  5  2 -1</clus>
<clus scale="   93.381">  1  5  2 -1</clus>
</clustering>
</event>
<event>
 9    2  0.6066854E-005  0.1200850E+03  0.7546771E-02  0.1247670E+00
         -1   -1    0    0    0  501 -0.00000000000E+00  0.00000000000E+00  0.22380645402E+02  0.22380645402E+02  0.00000000000E+00 0.  1.
          2   -1    0    0  502    0  0.00000000000E+00 -0.00000000000E+00 -0.95946655418E+03  0.95946655418E+03  0.00000000000E+00 0. -1.
         24    2    1    2    0    0 -0.60963149528E+02 -0.76224329547E+01 -0.34675341585E+03  0.36115571089E+03  0.80130574784E+02 0.  0.
         23    2    1    2    0    0  0.84320440280E+02  0.21588723475E+02 -0.57559103429E+03  0.58974102982E+03  0.94410983799E+02 0.  0.
        -11    1    3    3    0    0 -0.95122536707E+01 -0.36507044247E+02 -0.87744606637E+02  0.95511063461E+02  0.00000000000E+00 0.  1.
         12    1    3    3    0    0 -0.51450895857E+02  0.28884611292E+02 -0.25900880922E+03  0.26564464743E+03  0.00000000000E+00 0. -1.
        -11    1    4    4    0    0  0.48870049023E+02 -0.34412194160E+02 -0.32970782954E+03  0.33508168207E+03  0.00000000000E+00 0.  1.
         11    1    4    4    0    0  0.35450391257E+02  0.56000917634E+02 -0.24588320475E+03  0.25465934775E+03  0.00000000000E+00 0. -1.
         21    1    1    2  502  501 -0.23357290753E+02 -0.13966290520E+02 -0.14741458635E+02  0.30950458880E+02  0.00000000000E+00 0.  1.
<scales pt_clust_5="13000.00000" pt_clust_6="13000.00000" pt_clust_7="13000.00000" pt_clust_8="13000.00000" pt_clust_9="27.21434"></scales>
<clustering>
<clus scale="   27.214">  1  9  2 -1</clus>
<clus scale="   80.131">  5  6 -1 -1</clus>
<clus scale="   94.411">  7  8 -1 -1</clus>
<clus scale="  109.215">  1  5  2 -1</clus>
<clus scale="  120.085">  2  5  1 -1</clus>
</clustering>
</event>
<event>
 9    2  0.6066854E-005  0.1074799E+03  0.7546771E-02  0.1270720E+00
         -3   -1    0    0    0  501 -0.00000000000E+00  0.00000000000E+00  0.46434023647E+03  0.46434023647E+03  0.00000000000E+00 0.  1.
          4   -1    0    0  502    0  0.00000000000E+00 -0.00000000000E+00 -0.35912396465E+02  0.35912396465E+02  0.00000000000E+00 0. -1.
         23    2    1    2    0    0  0.31714938991E+02 -0.27749220497E+02  0.27794010682E+03  0.29536889668E+03  0.90643397745E+02 0.  0.
         24    2    1    2    0    0 -0.36346065059E+02  0.52119640268E+02  0.74545590828E+02  0.12499272503E+03  0.77644335605E+02 0.  0.
        -13    1    4    4    0    0  0.16830320310E+02  0.38924440055E+02  0.48196133049E+02  0.64196876530E+02  0.00000000000E+00 0.  1.
         14    1    4    4    0    0 -0.53176385369E+02  0.13195200213E+02  0.26349457779E+02  0.60795848500E+02  0.00000000000E+00 0. -1.
        -13    1    3    3    0    0  0.18445414277E+02  0.25833613508E+02  0.18143971581E+03  0.18419549226E+03  0.00000000000E+00 0.  1.
         13    1    3    3    0    0  0.13269524714E+02 -0.53582834005E+02  0.96500391004E+02  0.11117340442E+03  0.00000000000E+00 0. -1.
         21    1    1    2  502  501  0.46311260679E+01 -0.24370419771E+02  0.75942142357E+02  0.79891011223E+02  0.00000000000E+00 0. -1.
<scales pt_clust_5="13000.00000" pt_clust_6="13000.00000" pt_clust_7="13000.00000" pt_clust_8="13000.00000" pt_clust_9="24.80655"></scales>
<clustering>
<clus scale="   24.807">  1  9  2 -1</clus>
<clus scale="   77.644">  5  6 -1 -1</clus>
<clus scale="   90.643">  7  8 -1 -1</clus>
<clus scale="   96.770">  2  5  1 -1</clus>
<clus scale="   96.770">  2  5  1 -1</clus>
</clustering>
</event>
<event>
 9    2  0.6066854E-005  0.1008377E+03  0.7546771E-02  0.1280006E+00
         -1   -1    0    0    0  501 -0.00000000000E+00  0.00000000000E+00  0.40869544106E+02  0.40869544106E+02  0.00000000000E+00 0.  1.
          2   -1    0    0  502    0  0.00000000000E+00 -0.00000000000E+00 -0.87669525896E+03  0.87669525896E+03  0.00000000000E+00 0. -1.
         23    2    1    2    0    0  0.19694112470E+02  0.33157970490E+02 -0.26436023861E+03  0.28187072335E+03  0.89874689698E+02 0.  0.
         24    2    1    2    0    0  0.16682328513E+02 -0.51798247122E+02 -0.58402327457E+03  0.59293424260E+03  0.86755243771E+02 0.  0.
        -13    1    4    4    0    0 -0.11863714607E+02 -0.33629882237E+02 -0.77825773851E+02  0.85607054493E+02  0.00000000000E+00 0.  1.
         14    1    4    4    0    0  0.28546043120E+02 -0.18168364885E+02 -0.50619750072E+03  0.50732718811E+03  0.00000000000E+00 0. -1.
        -11    1    3    3    0    0  0.52349300084E+02  0.13103864214E+02 -0.19818310405E+03  0.20539888804E+03  0.00000000000E+00 0.  1.
         11    1    3    3    0    0 -0.32655187613E+02  0.20054106276E+02 -0.66177134558E+02  0.76471835305E+02  0.00000000000E+00 0. -1.
         21    1    1    2  502  501 -0.36376440983E+02  0.18640276633E+02  0.12557798326E+02  0.42759837118E+02  0.00000000000E+00 0.  1.
<scales pt_clust_5="13000.00000" pt_clust_6="13000.00000" pt_clust_7="13000.00000" pt_clust_8="13000.00000" pt_clust_9="40.87426"></scales>
<clustering>
<clus scale="   40.874">  1  9  2 -1</clus>
<clus scale="   86.755">  5  6 -1 -1</clus>
<clus scale="   89.875">  7  8 -1 -1</clus>
<clus scale="   98.068">  2  5  1 -1</clus>
<clus scale="   98.068">  2  5  1 -1</clus>
</clustering>
</event>
<event>
 9    2  0.6066854E-005  0.8871393E+02  0.7546771E-02  0.1310276E+00
          2   -1    0    0  502    0  0.00000000000E+00  0.00000000000E+00  0.31215597348E+03  0.31215597348E+03  0.00000000000E+00 0. -1.
         -1   -1    0    0    0  501 -0.00000000000E+00 -0.00000000000E+00 -0.12936552951E+03  0.12936552951E+03  0.00000000000E+00 0.  1.
         24    2    1    2    0    0  0.13979113909E+02  0.39970957756E+02  0.71465148035E+02  0.11571489498E+03  0.80557907419E+02 0.  0.
         23    2    1    2    0    0  0.12169163624E+02 -0.46835690867E+01  0.20452993316E+03  0.22277245532E+03  0.87321526139E+02 0.  0.
        -13    1    3    3    0    0 -0.43449541383E+01  0.42110717937E+02  0.44386068359E+00  0.42336605957E+02  0.00000000000E+00 0.  1.
         14    1    3    3    0    0  0.18324068047E+02 -0.21397601812E+01  0.71021287352E+02  0.73378289027E+02  0.00000000000E+00 0. -1.
        -13    1    4    4    0    0  0.60297835294E+01 -0.35157274142E+02  0.17907810372E+03  0.18259616493E+03  0.00000000000E+00 0. -1.
         13    1    4    4    0    0  0.61393800947E+01  0.30473705055E+02  0.25451829444E+02  0.40176290393E+02  0.00000000000E+00 0.  1.
         21    1    1    2  502  501 -0.26148277533E+02 -0.35287388669E+02 -0.93204637229E+02  0.10303415268E+03  0.00000000000E+00 0.  1.
<scales pt_clust_5="13000.00000" pt_clust_6="13000.00000" pt_clust_7="13000.00000" pt_clust_8="13000.00000" pt_clust_9="43.91961"></scales>
<clustering>
<clus scale="   43.920">  2  9  1 -1</clus>
<clus scale="   80.558">  5  6 -1 -1</clus>
<clus scale="   82.065">  2  5  1 -1</clus>
<clus scale="   87.322">  7  8 -1 -1</clus>
<clus scale="   88.714">  1  5  2 -1</clus>
</clustering>
</event>
<event>
 9    2  0.6066854E-005  0.9524883E+02  0.7546771E-02  0.1299096E+00
          2   -1    0    0  502    0  0.00000000000E+00  0.00000000000E+00  0.16451796725E+03  0.16451796725E+03  0.00000000000E+00 0. -1.
         -1   -1    0    0    0  501 -0.00000000000E+00 -0.00000000000E+00 -0.73605569594E+02  0.73605569594E+02  0.00000000000E+00 0.  1.
         24    2    1    2    0    0 -0.10156693036E+02  0.83191634468E+01  0.20952945407E+01  0.81123795711E+02  0.80026952194E+02 0.  0.
         23    2    1    2    0    0 -0.86080837774E+01 -0.17628920428E+02  0.95003753532E+02  0.13515796768E+03  0.94112087967E+02 0.  0.
        -13    1    3    3    0    0 -0.42657866026E+02  0.19202187686E+02  0.24886134788E+01  0.46846672698E+02  0.00000000000E+00 0.  1.
         14    1    3    3    0    0  0.32501172989E+02 -0.10883024239E+02 -0.39331893811E+00  0.34277123013E+02  0.00000000000E+00 0. -1.
        -11    1    4    4    0    0  0.36343536113E+02  0.25683038090E+01  0.72168300581E+02  0.80843753070E+02  0.00000000000E+00 0. -1.
         11    1    4    4    0    0 -0.44951619891E+02 -0.20197224236E+02  0.22835452951E+02  0.54314214614E+02  0.00000000000E+00 0.  1.
         21    1    1    2  502  501  0.18764776814E+02  0.93097569807E+01 -0.61866504198E+01  0.21841773447E+02  0.00000000000E+00 0. -1.
<scales pt_clust_5="13000.00000" pt_clust_6="13000.00000" pt_clust_7="13000.00000" pt_clust_8="13000.00000" pt_clust_9="20.94728"></scales>
<clustering>
<clus scale="   20.947">  2  9  1 -1</clus>
<clus scale="   80.027">  5  6 -1 -1</clus>
<clus scale="   81.361">  2  5  1 -1</clus>
<clus scale="   94.112">  7  8 -1 -1</clus>
<clus scale="   95.249">  1  5  2 -1</clus>
</clustering>
</event>
<event>
 9    2  0.6066854E-005  0.1051409E+03  0.7546771E-02  0.1274298E+00
         -1   -1    0    0    0  501 -0.00000000000E+00  0.00000000000E+00  0.57952094019E+02  0.57952094019E+02  0.00000000000E+00 0.  1.
          2   -1    0    0  502    0  0.00000000000E+00 -0.00000000000E+00 -0.45540428134E+03  0.45540428134E+03  0.00000000000E+00 0. -1.
         24    2    1    2    0    0  0.29684564818E+02 -0.19080015628E+02 -0.23930638083E+02  0.90953323613E+02  0.80340595296E+02 0.  0.
         23    2    1    2    0    0 -0.56835431943E+02  0.11401649987E+02 -0.37874355800E+03  0.39370816963E+03  0.90549302355E+02 0.  0.
        -13    1    3    3    0    0  0.51857758671E+02 -0.17331716024E+02  0.44929579366E+01  0.54861664081E+02  0.00000000000E+00 0.  1.
         14    1    3    3    0    0 -0.22173193853E+02 -0.17482996044E+01 -0.28423596019E+02  0.36091659532E+02  0.00000000000E+00 0. -1.
        -13    1    4    4    0    0 -0.29058644579E+02 -0.39119570523E+02 -0.14545641027E+03  0.15340245406E+03  0.00000000000E+00 0.  1.
         13    1    4    4    0    0 -0.27776787364E+02  0.50521220510E+02 -0.23328714773E+03  0.24030571557E+03  0.00000000000E+00 0. -1.
         21    1    1    2  502  501  0.27150867125E+02  0.76783656409E+01  0.52220087582E+01  0.28694882123E+02  0.00000000000E+00 0.  1.
<scales pt_clust_5="13000.00000" pt_clust_6="13000.00000" pt_clust_7="13000.00000" pt_clust_8="13000.00000" pt_clust_9="28.21572"></scales>
<clustering>
<clus scale="   28.216">  1  9  2 -1</clus>
<clus scale="   80.341">  5  6 -1 -1</clus>
<clus scale="   90.549">  7  8 -1 -1</clus>
<clus scale="   96.489">  1  5  2 -1</clus>
<clus scale="  105.141">  2  5  1 -1</clus>
</clustering>
</event>
<event>
 9    2  0.6066854E-005  0.9561644E+02  0.7546771E-02  0.1294982E+00
          2   -1    0    0  502    0  0.00000000000E+00  0.00000000000E+00  0.32621365331E+03  0.32621365331E+03  0.00000000000E+00 0. -1.
         -1   -1    0    0    0  501 -0.00000000000E+00 -0.00000000000E+00 -0.40860276470E+02  0.40860276470E+02  0.00000000000E+00 0.  1.
         23    2    1    2    0    0  0.34642739307E+02  0.26071718370E+02  0.64199642269E+02  0.11980102741E+03  0.91382920812E+02 0.  0.
         24    2    1    2    0    0 -0.21956048273E+02 -0.87073410776E+01  0.19814045296E+03  0.21577552377E+03  0.82106952892E+02 0.  0.
        -11    1    4    4    0    0  0.30454371465E+02 -0.63098113811E+00  0.95583786249E+02  0.10032012297E+03  0.00000000000E+00 0.  1.
         12    1    4    4    0    0 -0.52410419737E+02 -0.80763599394E+01  0.10255666671E+03  0.11545540080E+03  0.00000000000E+00 0. -1.
        -11    1    3    3    0    0  0.33495902777E+02 -0.16038001290E+01 -0.14376171089E+02  0.36485914719E+02  0.00000000000E+00 0.  1.
         11    1    3    3    0    0  0.11468365294E+01  0.27675518499E+02  0.78575813358E+02  0.83315112693E+02  0.00000000000E+00 0. -1.
         21    1    1    2  502  501 -0.12686691034E+02 -0.17364377292E+02  0.23013281602E+02  0.31497378593E+02  0.00000000000E+00 0.  1.
<scales pt_clust_5="13000.00000" pt_clust_6="13000.00000" pt_clust_7="13000.00000" pt_clust_8="13000.00000" pt_clust_9="21.50520"></scales>
<clustering>
<clus scale="   21.505">  2  9  1 -1</clus>
<clus scale="   82.107">  5  6 -1 -1</clus>
<clus scale="   86.794">  1  5  2 -1</clus>
<clus scale="   91.383">  7  8 -1 -1</clus>
<clus scale="   86.794">  1  5  2 -1</clus>
</clustering>
</event>
<event>
 9    2  0.6066854E-005  0.8136128E+02  0.7546771E-02  0.1331183E+00
         -1   -1    0    0    0  501 -0.00000000000E+00  0.00000000000E+00  0.29213806976E+03  0.29213806976E+03  0.00000000000E+00 0.  1.
          2   -1    0    0  502    0  0.00000000000E+00 -0.00000000000E+00 -0.98614594733E+02  0.98614594733E+02  0.00000000000E+00 0. -1.
         23    2    1    2    0    0 -0.29862021663E+02  0.19647430265E+02  0.54850535875E+02  0.97974724040E+02  0.72888294061E+02 0.  0.
         24    2    1    2    0    0 -0.96420598959E+01  0.15573305841E+02 -0.49904580295E+02  0.96914330887E+02  0.81033469770E+02 0.  0.
        -13    1    4    4    0    0 -0.91687734520E+01  0.19755228158E+02  0.18381070690E+02  0.28499108861E+02  0.00000000000E+00 0.  1.
         14    1    4    4    0    0 -0.47328644382E+00 -0.41819223164E+01 -0.68285650986E+02  0.68415222026E+02  0.00000000000E+00 0. -1.
        -11    1    3    3    0    0  0.19051479939E+02 -0.98910601846E+01  0.26750670999E+02  0.34298547467E+02  0.00000000000E+00 0. -1.
         11    1    3    3    0    0 -0.48913501602E+02  0.29538490449E+02  0.28099864876E+02  0.63676176573E+02  0.00000000000E+00 0.  1.
         21    1    1    2  502  501  0.39504081559E+02 -0.35220736106E+02  0.18857751945E+03  0.19586360957E+03  0.00000000000E+00 0.  1.
<scales pt_clust_5="13000.00000" pt_clust_6="13000.00000" pt_clust_7="13000.00000" pt_clust_8="13000.00000" pt_clust_9="52.92516"></scales>
<clustering>
<clus scale="   52.925">  1  9  2 -1</clus>
<clus scale="   72.888">  7  8 -1 -1</clus>
<clus scale="   73.253">  1  7  2 -1</clus>
<clus scale="   81.033">  5  6 -1 -1</clus>
<clus scale="   81.361">  2  5  1 -1</clus>
</clustering>
</event>
<event>
 9    2  0.6066854E-005  0.9281250E+02  0.7546771E-02  0.1299520E+00
          2   -1    0    0  502    0  0.00000000000E+00  0.00000000000E+00  0.77121208894E+03  0.77121208894E+03  0.00000000000E+00 0. -1.
         -1   -1    0    0    0  501 -0.00000000000E+00 -0.00000000000E+00 -0.19992495409E+02  0.19992495409E+02  0.00000000000E+00 0.  1.
         23    2    1    2    0    0 -0.19426858036E+02  0.40885748257E+02  0.16533701464E+03  0.18699251858E+03  0.74704928688E+02 0.  0.
         24    2    1    2    0    0  0.50719566627E+02 -0.86176402741E+01  0.47401191892E+03  0.48364876718E+03  0.81130096506E+02 0.  0.
        -13    1    4    4    0    0  0.45662351829E+02  0.26127451386E+02  0.17948086595E+03  0.18703228420E+03  0.00000000000E+00 0.  1.
         14    1    4    4    0    0  0.50572147983E+01 -0.34745091660E+02  0.29453105296E+03  0.29661648298E+03  0.00000000000E+00 0. -1.
        -11    1    3    3    0    0 -0.22532099053E+02 -0.17714585158E+02  0.55172883526E+02  0.62173540125E+02  0.00000000000E+00 0. -1.
         11    1    3    3    0    0  0.31052410162E+01  0.58600333414E+02  0.11016413111E+03  0.12481897845E+03  0.00000000000E+00 0.  1.
         21    1    1    2  502  501 -0.31292708590E+02 -0.32268107982E+02  0.11187065998E+03  0.12056329860E+03  0.00000000000E+00 0. -1.
<scales pt_clust_5="13000.00000" pt_clust_6="13000.00000" pt_clust_7="13000.00000" pt_clust_8="13000.00000" pt_clust_9="44.94958"></scales>
<clustering>
<clus scale="   44.950">  2  9  1 -1</clus>
<clus scale="   74.705">  7  8 -1 -1</clus>
<clus scale="   81.130">  5  6 -1 -1</clus>
<clus scale="   87.252">  2  7  1 -1</clus>
<clus scale="   92.813">  1  5  2 -1</clus>
</clustering>
</event>
<event>
 9    2  0.6066854E-005  0.2832215E+03  0.7546771E-02  0.1133867E+00
          4   -1    0    0  502    0  0.00000000000E+00  0.00000000000E+00  0.45586038928E+03  0.45586038928E+03  0.00000000000E+00 0. -1.
         -3   -1    0    0    0  501 -0.00000000000E+00 -0.00000000000E+00 -0.25945430928E+03  0.25945430928E+03  0.00000000000E+00 0.  1.
         23    2    1    2    0    0  0.24499652884E+03  0.10267237552E+03 -0.80889090489E+01  0.28127957429E+03  0.92129542635E+02 0.  0.
         24    2    1    2    0    0 -0.21975384340E+02  0.61134842035E+02  0.32186494938E+02  0.10805743705E+03  0.80125232097E+02 0.  0.
        -13    1    4    4    0    0 -0.78360551845E+01  0.26879311065E+02 -0.26564449124E+02  0.38594961866E+02  0.00000000000E+00 0.  1.
         14    1    4    4    0    0 -0.14139329155E+02  0.34255530970E+02  0.58750944062E+02  0.69462475187E+02  0.00000000000E+00 0. -1.
        -11    1    3    3    0    0  0.89356406695E+02  0.58704026569E+00 -0.29071092864E+02  0.93968295047E+02  0.00000000000E+00 0. -1.
         11    1    3    3    0    0  0.15564012215E+03  0.10208533525E+03  0.20982183816E+02  0.18731127925E+03  0.00000000000E+00 0.  1.
         21    1    1    2  502  501 -0.22302114450E+03 -0.16380721755E+03  0.17230849411E+03  0.32597768721E+03  0.00000000000E+00 0. -1.
<scales pt_clust_5="13000.00000" pt_clust_6="13000.00000" pt_clust_7="13000.00000" pt_clust_8="13000.00000" pt_clust_9="267.81815"></scales>
<clustering>
<clus scale="   80.125">  5  6 -1 -1</clus>
<clus scale="   92.130">  7  8 -1 -1</clus>
<clus scale="  103.153">  1  5  2 -1</clus>
<clus scale="  267.818">  1  9  2 -1</clus>
<clus scale="  103.153">  1  5  2 -1</clus>
</clustering>
</event>
<event>
 9    2  0.6066854E-005  0.9820103E+02  0.7546771E-02  0.1290182E+00
         -1   -1    0    0    0  501 -0.00000000000E+00  0.00000000000E+00  0.29363085873E+02  0.29363085873E+02  0.00000000000E+00 0.  1.
          2   -1    0    0  502    0  0.00000000000E+00 -0.00000000000E+00 -0.75889630074E+03  0.75889630074E+03  0.00000000000E+00 0. -1.
         24    2    1    2    0    0  0.34814670920E+02  0.40441022188E+02 -0.14102256827E+03  0.17246796201E+03  0.83727507857E+02 0.  0.
         23    2    1    2    0    0  0.18549573256E+02  0.21718810155E+02 -0.30196003999E+03  0.31775981980E+03  0.94739875164E+02 0.  0.
        -11    1    3    3    0    0  0.30929075441E+02 -0.13622397897E+02 -0.18585160911E+02  0.38569231755E+02  0.00000000000E+00 0.  1.
         12    1    3    3    0    0  0.38855954794E+01  0.54063420085E+02 -0.12243740736E+03  0.13389873026E+03  0.00000000000E+00 0. -1.
        -13    1    4    4    0    0 -0.57504357520E+01  0.47825126930E+02 -0.25086793938E+03  0.25545064746E+03  0.00000000000E+00 0.  1.
         13    1    4    4    0    0  0.24300009007E+02 -0.26106316775E+02 -0.51092100606E+02  0.62309172339E+02  0.00000000000E+00 0. -1.
         21    1    1    2  502  501 -0.53364244176E+02 -0.62159832343E+02 -0.28655060661E+03  0.29803160480E+03  0.00000000000E+00 0. -1.
<scales pt_clust_5="13000.00000" pt_clust_6="13000.00000" pt_clust_7="13000.00000" pt_clust_8="13000.00000" pt_clust_9="81.92428"></scales>
<clustering>
<clus scale="   81.924">  2  9  1 -1</clus>
<clus scale="   83.728">  5  6 -1 -1</clus>
<clus scale="   87.625">  1  5  2 -1</clus>
<clus scale="   94.740">  7  8 -1 -1</clus>
<clus scale="   81.924">  2  5  1 -1</clus>
</clustering>
</event>
<event>
 9    2  0.6066854E-005  0.1080235E+03  0.7546771E-02  0.1266359E+00
          2   -1    0    0  502    0  0.00000000000E+00  0.00000000000E+00  0.42199204057E+03  0.42199204057E+03  0.00000000000E+00 0. -1.
         -1   -1    0    0    0  501 -0.00000000000E+00 -0.00000000000E+00 -0.85037496483E+02  0.85037496483E+02  0.00000000000E+00 0.  1.
         23    2    1    2    0    0  0.27558048002E+02  0.34324119445E+01 -0.26043572737E+01  0.95364469628E+02  0.91194144161E+02 0.  0.
         24    2    1    2    0    0 -0.54739802670E+01  0.68904046856E+02  0.31236267716E+03  0.33129153987E+03  0.86057598028E+02 0.  0.
        -13    1    4    4    0    0  0.27372915769E+01  0.29780910225E+02  0.19475362464E+02  0.35688725420E+02  0.00000000000E+00 0.  1.
         14    1    4    4    0    0 -0.82112718439E+01  0.39123136631E+02  0.29288731469E+03  0.29560281445E+03  0.00000000000E+00 0. -1.
        -11    1    3    3    0    0  0.54109334165E+02  0.25990510741E+02  0.28726233280E+01  0.60096411350E+02  0.00000000000E+00 0. -1.
         11    1    3    3    0    0 -0.26551286163E+02 -0.22558098796E+02 -0.54769806017E+01  0.35268058278E+02  0.00000000000E+00 0.  1.
         21    1    1    2  502  501 -0.22084067735E+02 -0.72336458801E+02  0.27196224200E+02  0.80373527547E+02  0.00000000000E+00 0.  1.
<scales pt_clust_5="13000.00000" pt_clust_6="13000.00000" pt_clust_7="13000.00000" pt_clust_8="13000.00000" pt_clust_9="75.63246"></scales>
<clustering>
<clus scale="   75.632">  2  9  1 -1</clus>
<clus scale="   86.058">  5  6 -1 -1</clus>
<clus scale="   91.194">  7  8 -1 -1</clus>
<clus scale="  103.724">  1  5  2 -1</clus>
<clus scale="  103.724">  1  5  2 -1</clus>
</clustering>
</event>
<event>
 9    2  0.6066854E-005  0.1084237E+03  0.7546771E-02  0.1280271E+00
          2   -1    0    0  502    0  0.00000000000E+00  0.00000000000E+00  0.60662593228E+03  0.60662593228E+03  0.00000000000E+00 0. -1.
         -1   -1    0    0    0  501 -0.00000000000E+00 -0.00000000000E+00 -0.32280877480E+02  0.32280877480E+02  0.00000000000E+00 0.  1.
         23    2    1    2    0    0  0.43116755990E+02 -0.56157733800E+02  0.20849800289E+03  0.24301769591E+03  0.10282722211E+03 0.  0.
         24    2    1    2    0    0 -0.49325862861E+01  0.25868690922E+02  0.32079526004E+03  0.32951802914E+03  0.70562122165E+02 0.  0.
        -11    1    4    4    0    0  0.18338580221E+01 -0.20815102341E+02  0.43730551747E+02  0.48466407715E+02  0.00000000000E+00 0.  1.
         12    1    4    4    0    0 -0.67664443083E+01  0.46683793263E+02  0.27706470829E+03  0.28105162142E+03  0.00000000000E+00 0. -1.
        -11    1    3    3    0    0 -0.21287106631E+02 -0.37759892947E+02  0.14265048429E+03  0.14909094907E+03  0.00000000000E+00 0. -1.
         11    1    3    3    0    0  0.64403862621E+02 -0.18397840853E+02  0.65847518593E+02  0.93926746848E+02  0.00000000000E+00 0.  1.
         21    1    1    2  502  501 -0.38184169704E+02  0.30289042879E+02  0.45051791874E+02  0.66371084710E+02  0.00000000000E+00 0.  1.
<scales pt_clust_5="13000.00000" pt_clust_6="13000.00000" pt_clust_7="13000.00000" pt_clust_8="13000.00000" pt_clust_9="48.73866"></scales>
<clustering>
<clus scale="   48.739">  2  9  1 -1</clus>
<clus scale="   70.562">  5  6 -1 -1</clus>
<clus scale="   78.494">  1  5  2 -1</clus>
<clus scale="  102.827">  7  8 -1 -1</clus>
<clus scale="   78.494">  1  5  2 -1</clus>
</clustering>
</event>
<event>
 9    2  0.6066854E-005  0.9800054E+02  0.7546771E-02  0.1290527E+00
         -1   -1    0    0    0  501 -0.00000000000E+00  0.00000000000E+00  0.12470477037E+03  0.12470477037E+03  0.00000000000E+00 0.  1.
          2   -1    0    0  502    0  0.00000000000E+00 -0.00000000000E+00 -0.14853404318E+03  0.14853404318E+03  0.00000000000E+00 0. -1.
         24    2    1    2    0    0  0.35134642141E+02  0.41753881188E+02  0.48862502636E+02  0.10936116732E+03  0.81206471910E+02 0.  0.
         23    2    1    2    0    0 -0.22377348333E+02 -0.15727995907E+02 -0.88562697063E+02  0.13083250434E+03  0.92334594313E+02 0.  0.
        -13    1    3    3    0    0  0.57189669410E+02  0.16322078669E+02  0.14412345470E+02  0.61194642259E+02  0.00000000000E+00 0.  1.
         14    1    3    3    0    0 -0.22055027269E+02  0.25431802519E+02  0.34450157167E+02  0.48166525056E+02  0.00000000000E+00 0. -1.
        -13    1    4    4    0    0 -0.95417787686E+01 -0.47133735730E+02 -0.15918335997E+02  0.50655977010E+02  0.00000000000E+00 0. -1.
         13    1    4    4    0    0 -0.12835569565E+02  0.31405739823E+02 -0.72644361066E+02  0.80176527329E+02  0.00000000000E+00 0.  1.
         21    1    1    2  502  501 -0.12757293807E+02 -0.26025885282E+02  0.15870921619E+02  0.33045141897E+02  0.00000000000E+00 0.  1.
<scales pt_clust_5="13000.00000" pt_clust_6="13000.00000" pt_clust_7="13000.00000" pt_clust_8="13000.00000" pt_clust_9="28.98440"></scales>
<clustering>
<clus scale="   28.984">  1  9  2 -1</clus>
<clus scale="   81.206">  5  6 -1 -1</clus>
<clus scale="   87.595">  1  5  2 -1</clus>
<clus scale="   92.335">  7  8 -1 -1</clus>
<clus scale="   98.001">  2  5  1 -1</clus>
</clustering>
</event>
<event>
 9    2  0.6066854E-005  0.1044772E+03  0.7546771E-02  0.1276840E+00
         -1   -1    0    0    0  501 -0.00000000000E+00  0.00000000000E+00  0.26509159850E+02  0.26509159850E+02  0.00000000000E+00 0.  1.
          2   -1    0    0  502    0  0.00000000000E+00 -0.00000000000E+00 -0.11445323830E+04  0.11445323830E+04  0.00000000000E+00 0. -1.
         23    2    1    2    0    0  0.66284174914E+02 -0.64827028016E+00 -0.17843347033E+03  0.21123600433E+03  0.91586757177E+02 0.  0.
         24    2    1    2    0    0 -0.44398251519E+02 -0.20079519314E+02 -0.91810895495E+03  0.92279122261E+03  0.79026549573E+02 0.  0.
        -11    1    4    4    0    0 -0.38912281477E+02 -0.35447841183E+02 -0.30810480744E+03  0.31256885235E+03  0.00000000000E+00 0.  1.
         12    1    4    4    0    0 -0.54859700421E+01  0.15368321869E+02 -0.61000414751E+03  0.61022237026E+03  0.00000000000E+00 0. -1.
        -13    1    3    3    0    0  0.65422698272E+02  0.27461727788E+02 -0.16592056097E+03  0.18045472699E+03  0.00000000000E+00 0.  1.
         13    1    3    3    0    0  0.86147664138E+00 -0.28109998069E+02 -0.12512909364E+02  0.30781277332E+02  0.00000000000E+00 0. -1.
         21    1    1    2  502  501 -0.21885923395E+02  0.20727789594E+02 -0.21480797832E+02  0.37014315876E+02  0.00000000000E+00 0. -1.
<scales pt_clust_5="13000.00000" pt_clust_6="13000.00000" pt_clust_7="13000.00000" pt_clust_8="13000.00000" pt_clust_9="30.14357"></scales>
<clustering>
<clus scale="   30.144">  1  9  2 -1</clus>
<clus scale="   79.027">  5  6 -1 -1</clus>
<clus scale="   91.587">  7  8 -1 -1</clus>
<clus scale="   93.662">  2  5  1 -1</clus>
<clus scale="   93.662">  2  5  1 -1</clus>
</clustering>
</event>
<event>
 9    2  0.6066854E-005  0.1014901E+03  0.7546771E-02  0.1282572E+00
         -1   -1    0    0    0  501 -0.00000000000E+00  0.00000000000E+00  0.64653595393E+03  0.64653595393E+03  0.00000000000E+00 0.  1.
          2   -1    0    0  502    0  0.00000000000E+00 -0.00000000000E+00 -0.39481810736E+02  0.39481810736E+02  0.00000000000E+00 0. -1.
         23    2    1    2    0    0  0.20241605187E+02  0.43980793444E+02  0.36206027274E+03  0.37678606264E+03  0.92390817330E+02 0.  0.
         24    2    1    2    0    0  0.21183147429E+02 -0.38549270081E+02  0.41369825032E+02  0.10136572730E+03  0.81417297239E+02 0.  0.
        -13    1    4    4    0    0 -0.13138136317E+02 -0.16039288382E+02  0.54469060559E+02  0.58281626228E+02  0.00000000000E+00 0.  1.
         14    1    4    4    0    0  0.34321283746E+02 -0.22509981698E+02 -0.13099235527E+02  0.43084101075E+02  0.00000000000E+00 0. -1.
        -11    1    3    3    0    0  0.45740518539E+02  0.40591068903E+02  0.33030959253E+03  0.33592299241E+03  0.00000000000E+00 0.  1.
         11    1    3    3    0    0 -0.25498913352E+02  0.33897245403E+01  0.31750680209E+02  0.40863070227E+02  0.00000000000E+00 0. -1.
         21    1    1    2  502  501 -0.41424752616E+02 -0.54315233631E+01  0.20362404542E+03  0.20786597473E+03  0.00000000000E+00 0.  1.
<scales pt_clust_5="13000.00000" pt_clust_6="13000.00000" pt_clust_7="13000.00000" pt_clust_8="13000.00000" pt_clust_9="41.77932"></scales>
<clustering>
<clus scale="   41.779">  1  9  2 -1</clus>
<clus scale="   81.417">  5  6 -1 -1</clus>
<clus scale="   91.613">  2  5  1 -1</clus>
<clus scale="   92.391">  7  8 -1 -1</clus>
<clus scale="   91.613">  2  5  1 -1</clus>
</clustering>
</event>
<event>
 9    2  0.6066854E-005  0.9853367E+02  0.7546771E-02  0.1287822E+00
          2   -1    0    0  502    0  0.00000000000E+00  0.00000000000E+00  0.12830296608E+04  0.12830296608E+04  0.00000000000E+00 0. -1.
         -1   -1    0    0    0  501 -0.00000000000E+00 -0.00000000000E+00 -0.41018118940E+02  0.41018118940E+02  0.00000000000E+00 0.  1.
         23    2    1    2    0    0 -0.94952834727E+01 -0.60002482986E+02  0.13689859952E+03  0.17439529139E+03  0.89342222593E+02 0.  0.
         24    2    1    2    0    0 -0.35365363224E+02  0.24113431083E+02  0.10849301990E+04  0.10887604134E+04  0.80582470842E+02 0.  0.
        -11    1    4    4    0    0 -0.26077675292E+02 -0.93666646996E+01  0.11813437483E+03  0.12134047170E+03  0.00000000000E+00 0.  1.
         12    1    4    4    0    0 -0.92876879321E+01  0.33480095782E+02  0.96679582415E+03  0.96741994167E+03  0.00000000000E+00 0. -1.
        -13    1    3    3    0    0  0.31093683095E+02 -0.68672476051E+01  0.14640705697E+02  0.35047488945E+02  0.00000000000E+00 0. -1.
         13    1    3    3    0    0 -0.40588966567E+02 -0.53135235381E+02  0.12225789382E+03  0.13934780245E+03  0.00000000000E+00 0.  1.
         21    1    1    2  502  501  0.44860646697E+02  0.35889051904E+02  0.20182743419E+02  0.60892075023E+02  0.00000000000E+00 0.  1.
<scales pt_clust_5="13000.00000" pt_clust_6="13000.00000" pt_clust_7="13000.00000" pt_clust_8="13000.00000" pt_clust_9="57.44999"></scales>
<clustering>
<clus scale="   57.450">  2  9  1 -1</clus>
<clus scale="   80.582">  5  6 -1 -1</clus>
<clus scale="   89.342">  7  8 -1 -1</clus>
<clus scale="   90.666">  1  5  2 -1</clus>
<clus scale="   90.666">  1  5  2 -1</clus>
</clustering>
</event>
<event>
 9    2  0.6066854E-005  0.1115500E+03  0.7546771E-02  0.1263922E+00
         -1   -1    0    0    0  501 -0.00000000000E+00  0.00000000000E+00  0.10408096341E+03  0.10408096341E+03  0.00000000000E+00 0.  1.
          2   -1    0    0  502    0  0.00000000000E+00 -0.00000000000E+00 -0.27738800457E+03  0.27738800457E+03  0.00000000000E+00 0. -1.
         24    2    1    2    0    0 -0.67955684606E+02 -0.16307126335E+02 -0.94680577948E+02  0.14374019279E+03  0.82540497596E+02 0.  0.
         23    2    1    2    0    0  0.19252539591E+02  0.50078642897E+02 -0.12137679752E+03  0.16465276853E+03  0.97466283667E+02 0.  0.
        -13    1    3    3    0    0 -0.21081048094E+02  0.99474407654E+01 -0.86264655054E+02  0.89358563541E+02  0.00000000000E+00 0.  1.
         14    1    3    3    0    0 -0.46874636512E+02 -0.26254567100E+02 -0.84159228946E+01  0.54381629250E+02  0.00000000000E+00 0. -1.
        -11    1    4    4    0    0 -0.26912910116E+02  0.21769328254E+02 -0.33274682294E+01  0.34774709608E+02  0.00000000000E+00 0.  1.
         11    1    4    4    0    0  0.46165449706E+02  0.28309314643E+02 -0.11804932929E+03  0.12987805892E+03  0.00000000000E+00 0. -1.
         21    1    1    2  502  501  0.48703145016E+02 -0.33771516562E+02  0.42750334310E+02  0.73076006657E+02  0.00000000000E+00 0.  1.
<scales pt_clust_5="13000.00000" pt_clust_6="13000.00000" pt_clust_7="13000.00000" pt_clust_8="13000.00000" pt_clust_9="59.26645"></scales>
<clustering>
<clus scale="   59.266">  1  9  2 -1</clus>
<clus scale="   82.540">  5  6 -1 -1</clus>
<clus scale="   97.466">  7  8 -1 -1</clus>
<clus scale="   98.776">  1  5  2 -1</clus>
<clus scale="  111.550">  2  5  1 -1</clus>
</clustering>
</event>
<event>
 9    2  0.6066854E-005  0.4472555E+03  0.7546771E-02  0.1028544E+00
          2   -1    0    0  502    0  0.00000000000E+00  0.00000000000E+00  0.83694829077E+03  0.83694829077E+03  0.00000000000E+00 0. -1.
         -1   -1    0    0    0  501 -0.00000000000E+00 -0.00000000000E+00 -0.24110032466E+03  0.24110032466E+03  0.00000000000E+00 0.  1.
         24    2    1    2    0    0 -0.10725051073E+03  0.74732573695E+02  0.92375061051E+02  0.17847003300E+03  0.78935233894E+02 0.  0.
         23    2    1    2    0    0 -0.93797300940E+02  0.25040420054E+03  0.18989997895E+02  0.28244178086E+03  0.88952471803E+02 0.  0.
        -11    1    3    3    0    0  0.74447257593E+01  0.22789627341E+02  0.32155174547E+01  0.24189473092E+02  0.00000000000E+00 0.  1.
         12    1    3    3    0    0 -0.11469523649E+03  0.51942946354E+02  0.89159543596E+02  0.15428055990E+03  0.00000000000E+00 0. -1.
        -11    1    4    4    0    0 -0.73276903199E+02  0.21715935730E+03  0.47522164624E+02  0.23406419447E+03  0.00000000000E+00 0.  1.
         11    1    4    4    0    0 -0.20520397741E+02  0.33244843247E+02 -0.28532166730E+02  0.48377586383E+02  0.00000000000E+00 0. -1.
         21    1    1    2  502  501  0.20104781167E+03 -0.32513677424E+03  0.48448290716E+03  0.61713680159E+03  0.00000000000E+00 0. -1.
<scales pt_clust_5="13000.00000" pt_clust_6="13000.00000" pt_clust_7="13000.00000" pt_clust_8="13000.00000" pt_clust_9="382.27496"></scales>
<clustering>
<clus scale="   78.935">  5  6 -1 -1</clus>
<clus scale="   88.952">  7  8 -1 -1</clus>
<clus scale="  136.980">  5  7 -1 -1</clus>
<clus scale="  382.275">  1  9  2 -1</clus>
<clus scale="  382.275">  1  5  2 -1</clus>
</clustering>
</event>
<event>
 9    2  0.6066854E-005  0.1438075E+03  0.7546771E-02  0.1211467E+00
         -1   -1    0    0    0  501 -0.00000000000E+00  0.00000000000E+00  0.17785793632E+03  0.17785793632E+03  0.00000000000E+00 0.  1.
          2   -1    0    0  502    0  0.00000000000E+00 -0.00000000000E+00 -0.34027763173E+03  0.34027763173E+03  0.00000000000E+00 0. -1.
         23    2    1    2    0    0  0.97877269362E+02  0.31179999725E+02  0.88002559977E+02  0.16542681915E+03  0.95233553383E+02 0.  0.
         24    2    1    2    0    0 -0.10830181851E+03 -0.87369851062E+01 -0.28193733771E+03  0.31263930239E+03  0.80305991086E+02 0.  0.
        -13    1    4    4    0    0 -0.25390830862E+02 -0.74923654392E+01 -0.99308858555E+01  0.28274587983E+02  0.00000000000E+00 0.  1.
         14    1    4    4    0    0 -0.82910987648E+02 -0.12446196670E+01 -0.27200645185E+03  0.28436471441E+03  0.00000000000E+00 0. -1.
        -13    1    3    3    0    0  0.82312642677E+02 -0.36412378959E+01  0.95944418343E+02  0.12646723358E+03  0.00000000000E+00 0.  1.
         13    1    3    3    0    0  0.15564626685E+02  0.34821237621E+02 -0.79418583666E+01  0.38959585568E+02  0.00000000000E+00 0. -1.
         21    1    1    2  502  501  0.10424549148E+02 -0.22443014619E+02  0.31515082322E+02  0.40069446513E+02  0.00000000000E+00 0.  1.
<scales pt_clust_5="13000.00000" pt_clust_6="13000.00000" pt_clust_7="13000.00000" pt_clust_8="13000.00000" pt_clust_9="24.74591"></scales>
<clustering>
<clus scale="   24.746">  1  9  2 -1</clus>
<clus scale="   80.306">  5  6 -1 -1</clus>
<clus scale="   95.234">  7  8 -1 -1</clus>
<clus scale="  134.388">  2  5  1 -1</clus>
<clus scale="  134.388">  2  5  1 -1</clus>
</clustering>
</event>
<event>
 9    2  0.6066854E-005  0.1018337E+03  0.7546771E-02  0.1283068E+00
          2   -1    0    0  502    0  0.00000000000E+00  0.00000000000E+00  0.40953257641E+03  0.40953257641E+03  0.00000000000E+00 0. -1.
         -1   -1    0    0    0  501 -0.00000000000E+00 -0.00000000000E+00 -0.13021001802E+03  0.13021001802E+03  0.00000000000E+00 0.  1.
         23    2    1    2    0    0 -0.29316119448E+02  0.13310739535E+02 -0.92895137139E+02  0.13635159775E+03  0.94475610923E+02 0.  0.
         24    2    1    2    0    0  0.13016112594E+02 -0.36491389444E+02  0.36232985157E+03  0.37337762946E+03  0.81405725557E+02 0.  0.
        -11    1    4    4    0    0  0.25225396810E+02  0.67797363702E+01  0.39015172935E+02  0.46951775139E+02  0.00000000000E+00 0.  1.
         12    1    4    4    0    0 -0.12209284217E+02 -0.43271125814E+02  0.32331467863E+03  0.32642585432E+03  0.00000000000E+00 0. -1.
        -11    1    3    3    0    0  0.15932079685E+02 -0.21285428121E+02  0.91522203144E+00  0.26603350255E+02  0.00000000000E+00 0. -1.
         11    1    3    3    0    0 -0.45248199133E+02  0.34596167656E+02 -0.93810359171E+02  0.10974824750E+03  0.00000000000E+00 0.  1.
         21    1    1    2  502  501  0.16300006854E+02  0.23180649909E+02  0.98878439575E+01  0.30013367218E+02  0.00000000000E+00 0. -1.
<scales pt_clust_5="13000.00000" pt_clust_6="13000.00000" pt_clust_7="13000.00000" pt_clust_8="13000.00000" pt_clust_9="28.33783"></scales>
<clustering>
<clus scale="   28.338">  2  9  1 -1</clus>
<clus scale="   81.406">  5  6 -1 -1</clus>
<clus scale="   89.841">  1  5  2 -1</clus>
<clus scale="   94.476">  7  8 -1 -1</clus>
<clus scale="   89.841">  1  5  2 -1</clus>
</clustering>
</event>
<event>
 9    2  0.6066854E-005  0.1070283E+03  0.7546771E-02  0.1269919E+00
          2   -1    0    0  502    0  0.00000000000E+00  0.00000000000E+00  0.29408658322E+03  0.29408658322E+03  0.00000000000E+00 0. -1.
         -1   -1    0    0    0  501 -0.00000000000E+00 -0.00000000000E+00 -0.12756765874E+03  0.12756765874E+03  0.00000000000E+00 0.  1.
         23    2    1    2    0    0  0.27731133579E+02  0.24512998430E+02 -0.84108544814E+02  0.12994645936E+03  0.91879987634E+02 0.  0.
         24    2    1    2    0    0 -0.18318503259E+02 -0.54022156480E+02  0.23766544114E+03  0.25813097227E+03  0.83022743741E+02 0.  0.
        -11    1    4    4    0    0 -0.13727826064E+02  0.20230650663E+02  0.39417571809E+02  0.46384020977E+02  0.00000000000E+00 0.  1.
         12    1    4    4    0    0 -0.45906771949E+01 -0.74252807143E+02  0.19824786933E+03  0.21174695129E+03  0.00000000000E+00 0. -1.
        -11    1    3    3    0    0 -0.29515102875E+02  0.77957557967E+01 -0.56519559223E+02  0.64236871662E+02  0.00000000000E+00 0. -1.
         11    1    3    3    0    0  0.57246236454E+02  0.16717242633E+02 -0.27588985592E+02  0.65709587697E+02  0.00000000000E+00 0.  1.
         21    1    1    2  502  501 -0.94126303197E+01  0.29509158050E+02  0.12962028150E+02  0.33576810332E+02  0.00000000000E+00 0.  1.
<scales pt_clust_5="13000.00000" pt_clust_6="13000.00000" pt_clust_7="13000.00000" pt_clust_8="13000.00000" pt_clust_9="30.97399"></scales>
<clustering>
<clus scale="   30.974">  2  9  1 -1</clus>
<clus scale="   83.023">  5  6 -1 -1</clus>
<clus scale="   91.880">  7  8 -1 -1</clus>
<clus scale="   99.528">  1  5  2 -1</clus>
<clus scale="   99.528">  1  5  2 -1</clus>
</clustering>
</event>
<event>
 9    2  0.6066854E-005  0.1039719E+03  0.7546771E-02  0.1275964E+00
         -1   -1    0    0    0  501 -0.00000000000E+00  0.00000000000E+00  0.13532075692E+03  0.13532075692E+03  0.00000000000E+00 0.  1.
          2   -1    0    0  502    0  0.00000000000E+00 -0.00000000000E+00 -0.23927369052E+03  0.23927369052E+03  0.00000000000E+00 0. -1.
         23    2    1    2    0    0 -0.23230646890E+02  0.41256716987E+02  0.86028607956E+02  0.13352385521E+03  0.90476067949E+02 0.  0.
         24    2    1    2    0    0  0.30204086183E+01 -0.52003248998E+02 -0.19481714335E+03  0.21767562000E+03  0.81948126429E+02 0.  0.
        -13    1    4    4    0    0  0.75746847849E+01 -0.38063757464E+02 -0.22753725089E+02  0.44988415035E+02  0.00000000000E+00 0.  1.
         14    1    4    4    0    0 -0.45542761666E+01 -0.13939491534E+02 -0.17206341826E+03  0.17268720496E+03  0.00000000000E+00 0. -1.
        -13    1    3    3    0    0 -0.34460342220E+02  0.20867078936E+02 -0.40474849206E+01  0.40488668827E+02  0.00000000000E+00 0. -1.
         13    1    3    3    0    0  0.11229695330E+02  0.20389638051E+02  0.90076092876E+02  0.93035186381E+02  0.00000000000E+00 0.  1.
         21    1    1    2  502  501  0.20210238271E+02  0.10746532012E+02  0.48356017878E+01  0.23394972236E+02  0.00000000000E+00 0.  1.
<scales pt_clust_5="13000.00000" pt_clust_6="13000.00000" pt_clust_7="13000.00000" pt_clust_8="13000.00000" pt_clust_9="22.88977"></scales>
<clustering>
<clus scale="   22.890">  1  9  2 -1</clus>
<clus scale="   81.948">  5  6 -1 -1</clus>
<clus scale="   90.476">  7  8 -1 -1</clus>
<clus scale="   96.642">  2  5  1 -1</clus>
<clus scale="   96.642">  2  5  1 -1</clus>
</clustering>
</event>
<event>
 9    2  0.6066854E-005  0.1080493E+03  0.7546771E-02  0.1268284E+00
         -1   -1    0    0    0  501 -0.00000000000E+00  0.00000000000E+00  0.50546630939E+02  0.50546630939E+02  0.00000000000E+00 0.  1.
          2   -1    0    0  502    0  0.00000000000E+00 -0.00000000000E+00 -0.44903502417E+03  0.44903502417E+03  0.00000000000E+00 0. -1.
         24    2    1    2    0    0 -0.40672085585E+02  0.88950253388E+01 -0.36150881688E+02  0.98759151392E+02  0.81933776400E+02 0.  0.
         23    2    1    2    0    0  0.61234267074E+02 -0.18323975413E+01 -0.36266899161E+03  0.37907867935E+03  0.91754316086E+02 0.  0.
        -11    1    3    3    0    0 -0.36428749343E+02  0.39471530864E+00  0.20170537899E+02  0.41642048197E+02  0.00000000000E+00 0.  1.
         12    1    3    3    0    0 -0.42433362419E+01  0.85003100301E+01 -0.56321419587E+02  0.57117103195E+02  0.00000000000E+00 0. -1.
        -13    1    4    4    0    0  0.25786036797E+02  0.41306711363E+02 -0.23071568246E+03  0.23579841015E+03  0.00000000000E+00 0. -1.
         13    1    4    4    0    0  0.35448230277E+02 -0.43139108904E+02 -0.13195330914E+03  0.14328026920E+03  0.00000000000E+00 0.  1.
         21    1    1    2  502  501 -0.20562181488E+02 -0.70626277975E+01  0.33148006598E+00  0.21743824365E+02  0.00000000000E+00 0.  1.
<scales pt_clust_5="13000.00000" pt_clust_6="13000.00000" pt_clust_7="13000.00000" pt_clust_8="13000.00000" pt_clust_9="21.74130"></scales>
<clustering>
<clus scale="   21.741">  1  9  2 -1</clus>
<clus scale="   81.934">  5  6 -1 -1</clus>
<clus scale="   91.754">  7  8 -1 -1</clus>
<clus scale="   99.845">  1  5  2 -1</clus>
<clus scale="  108.049">  2  5  1 -1</clus>
</clustering>
</event>
<event>
 9    2  0.6066854E-005  0.1062032E+03  0.7546771E-02  0.1271555E+00
          2   -1    0    0  502    0  0.00000000000E+00  0.00000000000E+00  0.34320416192E+03  0.34320416192E+03  0.00000000000E+00 0. -1.
         -1   -1    0    0    0  501 -0.00000000000E+00 -0.00000000000E+00 -0.59794987473E+02  0.59794987473E+02  0.00000000000E+00 0.  1.
         24    2    1    2    0    0 -0.92412113046E+01 -0.13474418702E+02  0.48264726491E+02  0.11433769361E+03  0.10235557831E+03 0.  0.
         23    2    1    2    0    0  0.33958417894E+02 -0.25788940579E+00  0.23981177598E+03  0.26000311427E+03  0.94544650184E+02 0.  0.
        -13    1    3    3    0    0 -0.34429663848E+02  0.18402258199E+02 -0.12720276188E+02  0.41059107221E+02  0.00000000000E+00 0.  1.
         14    1    3    3    0    0  0.25188452543E+02 -0.31876676900E+02  0.60985002679E+02  0.73278586391E+02  0.00000000000E+00 0. -1.
        -13    1    4    4    0    0 -0.30134146956E+02  0.82507908657E+00  0.39527407180E+02  0.49710798491E+02  0.00000000000E+00 0.  1.
         13    1    4    4    0    0  0.64092564850E+02 -0.10829684924E+01  0.20028436880E+03  0.21029231578E+03  0.00000000000E+00 0. -1.
         21    1    1    2  502  501 -0.24717206589E+02  0.13732308107E+02 -0.46673280207E+01  0.28658341515E+02  0.00000000000E+00 0.  1.
<scales pt_clust_5="13000.00000" pt_clust_6="13000.00000" pt_clust_7="13000.00000" pt_clust_8="13000.00000" pt_clust_9="28.27572"></scales>
<clustering>
<clus scale="   28.276">  2  9  1 -1</clus>
<clus scale="   94.545">  7  8 -1 -1</clus>
<clus scale="   98.697">  1  7  2 -1</clus>
<clus scale="  102.356">  5  6 -1 -1</clus>
<clus scale="   98.697">  1  5  2 -1</clus>
</clustering>
</event>
<event>
 9    2  0.6066854E-005  0.1262279E+03  0.7546771E-02  0.1238034E+00
         -1   -1    0    0    0  501 -0.00000000000E+00  0.00000000000E+00  0.38611395442E+02  0.38611395442E+02  0.00000000000E+00 0.  1.
          2   -1    0    0  502    0  0.00000000000E+00 -0.00000000000E+00 -0.45490001189E+03  0.45490001189E+03  0.00000000000E+00 0. -1.
         23    2    1    2    0    0 -0.56343420544E+02  0.78338882135E+02 -0.22668805565E+03  0.26290919287E+03  0.91772586479E+02 0.  0.
         24    2    1    2    0    0  0.52502178015E+02 -0.58404978879E+02 -0.17438343882E+03  0.20523143512E+03  0.74449566632E+02 0.  0.
        -11    1    4    4    0    0  0.43404264023E+02 -0.76492218905E+02 -0.14323710239E+03  0.16808288785E+03  0.00000000000E+00 0.  1.
         12    1    4    4    0    0  0.90979139913E+01  0.18087240026E+02 -0.31146336434E+02  0.37148547267E+02  0.00000000000E+00 0. -1.
        -11    1    3    3    0    0 -0.61692582591E+02  0.42581295385E+02 -0.21021016541E+03  0.22317583898E+03  0.00000000000E+00 0.  1.
         11    1    3    3    0    0  0.53491620462E+01  0.35757586749E+02 -0.16477890244E+02  0.39733353893E+02  0.00000000000E+00 0. -1.
         21    1    1    2  502  501  0.38412425295E+01 -0.19933903256E+02 -0.15217121977E+02  0.25370779342E+02  0.00000000000E+00 0.  1.
<scales pt_clust_5="13000.00000" pt_clust_6="13000.00000" pt_clust_7="13000.00000" pt_clust_8="13000.00000" pt_clust_9="20.30063"></scales>
<clustering>
<clus scale="   20.301">  1  9  2 -1</clus>
<clus scale="   74.450">  5  6 -1 -1</clus>
<clus scale="   91.773">  7  8 -1 -1</clus>
<clus scale="  114.254">  2  5  1 -1</clus>
<clus scale="  114.254">  2  5  1 -1</clus>
</clustering>
</event>
<event>
 9    2  0.6066854E-005  0.1089442E+03  0.7546771E-02  0.1266817E+00
         -1   -1    0    0    0  501 -0.00000000000E+00  0.00000000000E+00  0.11027130558E+03  0.11027130558E+03  0.00000000000E+00 0.  1.
          2   -1    0    0  502    0  0.00000000000E+00 -0.00000000000E+00 -0.37438847303E+03  0.37438847303E+03  0.00000000000E+00 0. -1.
         23    2    1    2    0    0 -0.55716416621E+02  0.69232440067E+02 -0.10990925576E+02  0.12787065446E+03  0.91283371915E+02 0.  0.
         24    2    1    2    0    0 -0.19650659105E+00 -0.57562499645E+02 -0.27751734795E+03  0.29468140686E+03  0.80670770158E+02 0.  0.
        -11    1    4    4    0    0 -0.32300176218E+02 -0.14907822173E+02 -0.52499031017E+02  0.63416817986E+02  0.00000000000E+00 0.  1.
         12    1    4    4    0    0  0.32103669627E+02 -0.42654677471E+02 -0.22501831693E+03  0.23126458888E+03  0.00000000000E+00 0. -1.
        -11    1    3    3    0    0 -0.33103070694E+02  0.86090565292E+02  0.99079612280E+01  0.92766192211E+02  0.00000000000E+00 0.  1.
         11    1    3    3    0    0 -0.22613345927E+02 -0.16858125225E+02 -0.20898886804E+02  0.35104462249E+02  0.00000000000E+00 0. -1.
         21    1    1    2  502  501  0.55912923212E+02 -0.11669940422E+02  0.24391106078E+02  0.62107717293E+02  0.00000000000E+00 0.  1.
<scales pt_clust_5="13000.00000" pt_clust_6="13000.00000" pt_clust_7="13000.00000" pt_clust_8="13000.00000" pt_clust_9="57.11779"></scales>
<clustering>
<clus scale="   57.118">  1  9  2 -1</clus>
<clus scale="   80.671">  5  6 -1 -1</clus>
<clus scale="   91.283">  7  8 -1 -1</clus>
<clus scale="  100.220">  2  5  1 -1</clus>
<clus scale="  100.220">  2  5  1 -1</clus>
</clustering>
</event>
<event>
 9    2  0.6066854E-005  0.1007981E+03  0.7546771E-02  0.1287222E+00
         -1   -1    0    0    0  501 -0.00000000000E+00  0.00000000000E+00  0.82107708050E+02  0.82107708050E+02  0.00000000000E+00 0.  1.
          2   -1    0    0  502    0  0.00000000000E+00 -0.00000000000E+00 -0.10438384346E+04  0.10438384346E+04  0.00000000000E+00 0. -1.
         23    2    1    2    0    0 -0.61324717944E+02 -0.16614220468E+02  0.28739355877E+02  0.11542510716E+03  0.91979625099E+02 0.  0.
         24    2    1    2    0    0  0.39400100312E+02  0.10037330683E+02 -0.98262033218E+03  0.98632262820E+03  0.75076586059E+02 0.  0.
        -11    1    4    4    0    0  0.55746130379E+01 -0.22197537169E+02 -0.10528164672E+03  0.10774057780E+03  0.00000000000E+00 0.  1.
         12    1    4    4    0    0  0.33825487274E+02  0.32234867852E+02 -0.87733868546E+03  0.87858205041E+03  0.00000000000E+00 0. -1.
        -11    1    3    3    0    0 -0.42182501314E+02  0.14834259244E+02  0.54496641072E+02  0.70493280194E+02  0.00000000000E+00 0.  1.
         11    1    3    3    0    0 -0.19142216629E+02 -0.31448479712E+02 -0.25757285194E+02  0.44931826963E+02  0.00000000000E+00 0. -1.
         21    1    1    2  502  501  0.21924617632E+02  0.65768897850E+01 -0.78497502791E+01  0.24198407323E+02  0.00000000000E+00 0. -1.
<scales pt_clust_5="13000.00000" pt_clust_6="13000.00000" pt_clust_7="13000.00000" pt_clust_8="13000.00000" pt_clust_9="22.88983"></scales>
<clustering>
<clus scale="   22.890">  1  9  2 -1</clus>
<clus scale="   75.077">  5  6 -1 -1</clus>
<clus scale="   85.653">  2  5  1 -1</clus>
<clus scale="   91.980">  7  8 -1 -1</clus>
<clus scale="   85.653">  2  5  1 -1</clus>
</clustering>
</event>
<event>
 9    2  0.6066854E-005  0.9814593E+02  0.7546771E-02  0.1289300E+00
          2   -1    0    0  502    0  0.00000000000E+00  0.00000000000E+00  0.97500951893E+03  0.97500951893E+03  0.00000000000E+00 0. -1.
         -1   -1    0    0    0  501 -0.00000000000E+00 -0.00000000000E+00 -0.27939395904E+02  0.27939395904E+02  0.00000000000E+00 0.  1.
         23    2    1    2    0    0 -0.14596605507E+01 -0.26083025951E+01  0.84994599208E+02  0.12513399544E+03  0.91790528212E+02 0.  0.
         24    2    1    2    0    0  0.87569980395E+01  0.37795294637E+02  0.80668140153E+03  0.81178549923E+03  0.82192723921E+02 0.  0.
        -13    1    4    4    0    0  0.16322498625E+02 -0.17536874887E+02  0.97180073271E+02  0.10008962275E+03  0.00000000000E+00 0.  1.
         14    1    4    4    0    0 -0.75655005854E+01  0.55332169524E+02  0.70950132826E+03  0.71169587647E+03  0.00000000000E+00 0. -1.
        -13    1    3    3    0    0  0.37421869445E+02 -0.25094791808E+02  0.30011818958E+02  0.54137363861E+02  0.00000000000E+00 0.  1.
         13    1    3    3    0    0 -0.38881529996E+02  0.22486489213E+02  0.54982780250E+02  0.70996631581E+02  0.00000000000E+00 0. -1.
         21    1    1    2  502  501 -0.72973374889E+01 -0.35186992042E+02  0.55394122280E+02  0.66029420159E+02  0.00000000000E+00 0.  1.
<scales pt_clust_5="13000.00000" pt_clust_6="13000.00000" pt_clust_7="13000.00000" pt_clust_8="13000.00000" pt_clust_9="35.93571"></scales>
<clustering>
<clus scale="   35.936">  2  9  1 -1</clus>
<clus scale="   82.193">  5  6 -1 -1</clus>
<clus scale="   89.234">  1  5  2 -1</clus>
<clus scale="   91.791">  7  8 -1 -1</clus>
<clus scale="   89.234">  1  5  2 -1</clus>
</clustering>
</event>
<event>
 9    2  0.6066854E-005  0.1227850E+03  0.7546771E-02  0.1244064E+00
         -1   -1    0    0    0  501 -0.00000000000E+00  0.00000000000E+00  0.60178180368E+02  0.60178180368E+02  0.00000000000E+00 0.  1.
          2   -1    0    0  502    0  0.00000000000E+00 -0.00000000000E+00 -0.83100856544E+03  0.83100856544E+03  0.00000000000E+00 0. -1.
         23    2    1    2    0    0 -0.70822199469E+02 -0.68228032145E+02 -0.14974919219E+03  0.20236163276E+03  0.94098679810E+02 0.  0.
         24    2    1    2    0    0  0.56742182521E+02  0.49961170067E+02 -0.64599041666E+03  0.65487817568E+03  0.76459222969E+02 0.  0.
        -11    1    4    4    0    0  0.49504205765E+01  0.44891362787E+02 -0.16461603633E+03  0.17069909354E+03  0.00000000000E+00 0.  1.
         12    1    4    4    0    0  0.51791761945E+02  0.50698072803E+01 -0.48137438032E+03  0.48417908214E+03  0.00000000000E+00 0. -1.
        -11    1    3    3    0    0 -0.93436503331E+02 -0.53920304968E+02 -0.10711151214E+03  0.15202189143E+03  0.00000000000E+00 0.  1.
         11    1    3    3    0    0  0.22614303862E+02 -0.14307727177E+02 -0.42637680052E+02  0.50339741322E+02  0.00000000000E+00 0. -1.
         21    1    1    2  502  501  0.14080016948E+02  0.18266862078E+02  0.24909223780E+02  0.33946937369E+02  0.00000000000E+00 0.  1.
<scales pt_clust_5="13000.00000" pt_clust_6="13000.00000" pt_clust_7="13000.00000" pt_clust_8="13000.00000" pt_clust_9="23.06350"></scales>
<clustering>
<clus scale="   23.064">  1  9  2 -1</clus>
<clus scale="   76.459">  5  6 -1 -1</clus>
<clus scale="   94.099">  7  8 -1 -1</clus>
<clus scale="  109.853">  2  5  1 -1</clus>
<clus scale="  109.853">  2  5  1 -1</clus>
</clustering>
</event>
<event>
 9    2  0.6066854E-005  0.1070466E+03  0.7546771E-02  0.1272027E+00
         -1   -1    0    0    0  501 -0.00000000000E+00  0.00000000000E+00  0.44675658580E+02  0.44675658580E+02  0.00000000000E+00 0.  1.
          2   -1    0    0  502    0  0.00000000000E+00 -0.00000000000E+00 -0.16761445362E+04  0.16761445362E+04  0.00000000000E+00 0. -1.
         23    2    1    2    0    0 -0.33315549997E+01  0.25561273767E+00 -0.62141829914E+02  0.11007329190E+03  0.90792940081E+02 0.  0.
         24    2    1    2    0    0 -0.30771513011E+02 -0.93625922125E+01 -0.15716797647E+04  0.15753704757E+04  0.10286062856E+03 0.  0.
        -11    1    4    4    0    0  0.22962649297E+02 -0.14218538079E+02 -0.13484918595E+03  0.13752728108E+03  0.00000000000E+00 0.  1.
         12    1    4    4    0    0 -0.53734162308E+02  0.48559458668E+01 -0.14368305787E+04  0.14378431947E+04  0.00000000000E+00 0. -1.
        -11    1    3    3    0    0 -0.30439579542E+02  0.31111443826E+02 -0.11789430874E+02  0.45094130660E+02  0.00000000000E+00 0. -1.
         11    1    3    3    0    0  0.27108024542E+02 -0.30855831088E+02 -0.50352399040E+02  0.64979161243E+02  0.00000000000E+00 0.  1.
         21    1    1    2  502  501  0.34103068011E+02  0.91069794748E+01  0.23527169555E+01  0.35376427180E+02  0.00000000000E+00 0.  1.
<scales pt_clust_5="13000.00000" pt_clust_6="13000.00000" pt_clust_7="13000.00000" pt_clust_8="13000.00000" pt_clust_9="35.29811"></scales>
<clustering>
<clus scale="   35.298">  1  9  2 -1</clus>
<clus scale="   90.793">  7  8 -1 -1</clus>
<clus scale="   95.509">  1  7  2 -1</clus>
<clus scale="  102.861">  5  6 -1 -1</clus>
<clus scale="  107.047">  2  5  1 -1</clus>
</clustering>
</event>
<event>
 9    2  0.6066854E-005  0.1086985E+03  0.7546771E-02  0.1267754E+00
         -1   -1    0    0    0  501 -0.00000000000E+00  0.00000000000E+00  0.49087724447E+03  0.49087724447E+03  0.00000000000E+00 0.  1.
          2   -1    0    0  502    0  0.00000000000E+00 -0.00000000000E+00 -0.51621989559E+02  0.51621989559E+02  0.00000000000E+00 0. -1.
         23    2    1    2    0    0  0.22550737293E+02  0.51501727589E+02  0.29139710937E+03  0.31065597901E+03  0.91836257802E+02 0.  0.
         24    2    1    2    0    0  0.17214932360E+02 -0.58522633161E+02  0.26880585454E+02  0.10430435255E+03  0.80222064291E+02 0.  0.
        -13    1    4    4    0    0  0.49250791481E+02 -0.29030114024E+02  0.17140175491E+02  0.59683947571E+02  0.00000000000E+00 0.  1.
         14    1    4    4    0    0 -0.32035859120E+02 -0.29492519137E+02  0.97404099625E+01  0.44620404983E+02  0.00000000000E+00 0. -1.
        -11    1    3    3    0    0  0.14582769808E+01  0.74949691942E+02  0.18285818024E+03  0.19762767259E+03  0.00000000000E+00 0. -1.
         11    1    3    3    0    0  0.21092460312E+02 -0.23447964353E+02  0.10853892913E+03  0.11302830641E+03  0.00000000000E+00 0.  1.
         21    1    1    2  502  501 -0.39765669653E+02  0.70209055718E+01  0.12097756008E+03  0.12753890246E+03  0.00000000000E+00 0. -1.
<scales pt_clust_5="13000.00000" pt_clust_6="13000.00000" pt_clust_7="13000.00000" pt_clust_8="13000.00000" pt_clust_9="40.38071"></scales>
<clustering>
<clus scale="   40.381">  1  9  2 -1</clus>
<clus scale="   80.222">  5  6 -1 -1</clus>
<clus scale="   91.836">  7  8 -1 -1</clus>
<clus scale="   99.081">  2  5  1 -1</clus>
<clus scale="   99.081">  2  5  1 -1</clus>
</clustering>
</event>
<event>
 9    2  0.6066854E-005  0.1054345E+03  0.7546771E-02  0.1279329E+00
          2   -1    0    0  502    0  0.00000000000E+00  0.00000000000E+00  0.90922587577E+03  0.90922587577E+03  0.00000000000E+00 0. -1.
         -1   -1    0    0    0  501 -0.00000000000E+00 -0.00000000000E+00 -0.10698837043E+03  0.10698837043E+03  0.00000000000E+00 0.  1.
         23    2    1    2    0    0  0.60866159530E+02 -0.32017306834E+02  0.45205306600E+03  0.46803731903E+03  0.99885735785E+02 0.  0.
         24    2    1    2    0    0  0.27752009056E+02  0.34004995247E+02  0.42344482504E+03  0.43318034103E+03  0.80082296998E+02 0.  0.
        -13    1    4    4    0    0  0.10065256027E+02  0.43116636661E+02  0.10293282468E+03  0.11205141736E+03  0.00000000000E+00 0.  1.
         14    1    4    4    0    0  0.17686753028E+02 -0.91116414138E+01  0.32051200036E+03  0.32112892367E+03  0.00000000000E+00 0. -1.
        -11    1    3    3    0    0 -0.18237362514E+02 -0.18020959144E+02  0.35392502216E+02  0.43703381712E+02  0.00000000000E+00 0.  1.
         11    1    3    3    0    0  0.79103522044E+02 -0.13996347691E+02  0.41666056379E+03  0.42433393732E+03  0.00000000000E+00 0. -1.
         21    1    1    2  502  501 -0.88618168586E+02 -0.19876884127E+01 -0.73260385700E+02  0.11499658613E+03  0.00000000000E+00 0.  1.
<scales pt_clust_5="13000.00000" pt_clust_6="13000.00000" pt_clust_7="13000.00000" pt_clust_8="13000.00000" pt_clust_9="88.64046"></scales>
<clustering>
<clus scale="   80.082">  5  6 -1 -1</clus>
<clus scale="   88.640">  2  9  1 -1</clus>
<clus scale="   86.905">  1  5  2 -1</clus>
<clus scale="   99.886">  7  8 -1 -1</clus>
<clus scale="   86.905">  1  5  2 -1</clus>
</clustering>
</event>
<event>
 9    2  0.6066854E-005  0.9157501E+02  0.7546771E-02  0.1314349E+00
         -1   -1    0    0    0  501 -0.00000000000E+00  0.00000000000E+00  0.66396666205E+02  0.66396666205E+02  0.00000000000E+00 0.  1.
          2   -1    0    0  502    0  0.00000000000E+00 -0.00000000000E+00 -0.16067581657E+03  0.16067581657E+03  0.00000000000E+00 0. -1.
         23    2    1    2    0    0 -0.62587438811E+01  0.31260504761E+01 -0.33203593356E+02  0.96678764131E+02  0.90528231815E+02 0.  0.
         24    2    1    2    0    0 -0.30300582174E+02  0.11505632637E+02 -0.33872356135E+02  0.82532621600E+02  0.67924901587E+02 0.  0.
        -11    1    4    4    0    0 -0.25870188661E+02 -0.22631166037E+02 -0.33660474629E+02  0.48108875375E+02  0.00000000000E+00 0.  1.
         12    1    4    4    0    0 -0.44303935128E+01  0.34136798674E+02 -0.21188150550E+00  0.34423746225E+02  0.00000000000E+00 0. -1.
        -11    1    3    3    0    0  0.21128583735E+02  0.12236658763E+02 -0.55220140470E+02  0.60377286969E+02  0.00000000000E+00 0. -1.
         11    1    3    3    0    0 -0.27387327616E+02 -0.91106082870E+01  0.22016547114E+02  0.36301477162E+02  0.00000000000E+00 0.  1.
         21    1    1    2  502  501  0.36559326055E+02 -0.14631683113E+02 -0.27203200869E+02  0.47861097040E+02  0.00000000000E+00 0. -1.
<scales pt_clust_5="13000.00000" pt_clust_6="13000.00000" pt_clust_7="13000.00000" pt_clust_8="13000.00000" pt_clust_9="39.37855"></scales>
<clustering>
<clus scale="   39.379">  2  9  1 -1</clus>
<clus scale="   67.925">  5  6 -1 -1</clus>
<clus scale="   69.314">  2  5  1 -1</clus>
<clus scale="   90.528">  7  8 -1 -1</clus>
<clus scale="   39.379">  2  5  1 -1</clus>
</clustering>
</event>
<event>
 9    2  0.6066854E-005  0.1186774E+03  0.7546771E-02  0.1260602E+00
          2   -1    0    0  502    0  0.00000000000E+00  0.00000000000E+00  0.37926634549E+03  0.37926634549E+03  0.00000000000E+00 0. -1.
         -1   -1    0    0    0  501 -0.00000000000E+00 -0.00000000000E+00 -0.73180934428E+02  0.73180934428E+02  0.00000000000E+00 0.  1.
         23    2    1    2    0    0 -0.37374725538E+02 -0.10035666777E+02  0.32913436236E+01  0.12046145016E+03  0.11402869514E+03 0.  0.
         24    2    1    2    0    0  0.29657077329E+02 -0.14985047846E+02  0.28977236999E+03  0.30274266203E+03  0.81123357375E+02 0.  0.
        -11    1    4    4    0    0  0.23053562471E+01  0.31367548248E+02  0.74970844540E+02  0.81301077985E+02  0.00000000000E+00 0.  1.
         12    1    4    4    0    0  0.27351721082E+02 -0.46352596094E+02  0.21480152545E+03  0.22144158405E+03  0.00000000000E+00 0. -1.
        -11    1    3    3    0    0 -0.62902148496E+02 -0.44811969469E+02  0.36839672708E+01  0.77319884298E+02  0.00000000000E+00 0.  1.
         11    1    3    3    0    0  0.25527422958E+02  0.34776302692E+02 -0.39262364718E+00  0.43141565864E+02  0.00000000000E+00 0. -1.
         21    1    1    2  502  501  0.77176482083E+01  0.25020714622E+02  0.13021697454E+02  0.29243167726E+02  0.00000000000E+00 0. -1.
<scales pt_clust_5="13000.00000" pt_clust_6="13000.00000" pt_clust_7="13000.00000" pt_clust_8="13000.00000" pt_clust_9="26.18393"></scales>
<clustering>
<clus scale="   26.184">  2  9  1 -1</clus>
<clus scale="   81.123">  5  6 -1 -1</clus>
<clus scale="   87.537">  1  5  2 -1</clus>
<clus scale="  114.029">  7  8 -1 -1</clus>
<clus scale="   87.537">  1  5  2 -1</clus>
</clustering>
</event>
<event>
 9    2  0.6066854E-005  0.1168103E+03  0.7546771E-02  0.1252683E+00
         -1   -1    0    0    0  501 -0.00000000000E+00  0.00000000000E+00  0.29534767126E+03  0.29534767126E+03  0.00000000000E+00 0.  1.
          2   -1    0    0  502    0  0.00000000000E+00 -0.00000000000E+00 -0.51435022734E+03  0.51435022734E+03  0.00000000000E+00 0. -1.
         23    2    1    2    0    0  0.52744891732E+02 -0.44358266467E+02  0.14487235506E+03  0.18522588708E+03  0.92579428466E+02 0.  0.
         24    2    1    2    0    0 -0.27957909223E+02  0.65883831421E+02 -0.48612709974E+03  0.49788867112E+03  0.80319660123E+02 0.  0.
        -11    1    4    4    0    0 -0.13664570363E+01  0.24585886108E+02 -0.28630787462E+02  0.37763143291E+02  0.00000000000E+00 0.  1.
         12    1    4    4    0    0 -0.26591452187E+02  0.41297945314E+02 -0.45749631227E+03  0.46012552783E+03  0.00000000000E+00 0. -1.
        -11    1    3    3    0    0  0.75718725683E+01 -0.46514321362E+02  0.17851543112E+02  0.50394374065E+02  0.00000000000E+00 0. -1.
         11    1    3    3    0    0  0.45173019164E+02  0.21560548948E+01  0.12702081195E+03  0.13483151301E+03  0.00000000000E+00 0.  1.
         21    1    1    2  502  501 -0.24786982509E+02 -0.21525564955E+02  0.12225218859E+03  0.12658334039E+03  0.00000000000E+00 0. -1.
<scales pt_clust_5="13000.00000" pt_clust_6="13000.00000" pt_clust_7="13000.00000" pt_clust_8="13000.00000" pt_clust_9="32.82902"></scales>
<clustering>
<clus scale="   32.829">  1  9  2 -1</clus>
<clus scale="   80.320">  5  6 -1 -1</clus>
<clus scale="   92.579">  7  8 -1 -1</clus>
<clus scale="  107.354">  2  5  1 -1</clus>
<clus scale="  107.354">  2  5  1 -1</clus>
</clustering>
</event>
<event>
 9    2  0.6066854E-005  0.1244118E+03  0.7546771E-02  0.1238711E+00
         -1   -1    0    0    0  501 -0.00000000000E+00  0.00000000000E+00  0.51417714086E+03  0.51417714086E+03  0.00000000000E+00 0.  1.
          2   -1    0    0  502    0  0.00000000000E+00 -0.00000000000E+00 -0.53600108897E+02  0.53600108897E+02  0.00000000000E+00 0. -1.
         23    2    1    2    0    0  0.57612966794E+02  0.39228655701E+02  0.38000621081E+03  0.39659207461E+03  0.89567918434E+02 0.  0.
         24    2    1    2    0    0 -0.69495204667E+02 -0.57296755786E+02  0.43122537792E+02  0.12794147337E+03  0.79981033041E+02 0.  0.
        -11    1    4    4    0    0 -0.64762207782E+02 -0.47707684604E+01  0.37285474962E+02  0.74880641235E+02  0.00000000000E+00 0.  1.
         12    1    4    4    0    0 -0.47329968851E+01 -0.52525987326E+02  0.58370628299E+01  0.53060832132E+02  0.00000000000E+00 0. -1.
        -11    1    3    3    0    0  0.64570733128E+02  0.59331400793E+02  0.34173050319E+03  0.35280211381E+03  0.00000000000E+00 0.  1.
         11    1    3    3    0    0 -0.69577663348E+01 -0.20102745092E+02  0.38275707623E+02  0.43789960797E+02  0.00000000000E+00 0. -1.
         21    1    1    2  502  501  0.11882237874E+02  0.18068100085E+02  0.37448283362E+02  0.43243701788E+02  0.00000000000E+00 0. -1.
<scales pt_clust_5="13000.00000" pt_clust_6="13000.00000" pt_clust_7="13000.00000" pt_clust_8="13000.00000" pt_clust_9="21.62507"></scales>
<clustering>
<clus scale="   21.625">  1  9  2 -1</clus>
<clus scale="   79.981">  5  6 -1 -1</clus>
<clus scale="   89.568">  7  8 -1 -1</clus>
<clus scale="  117.698">  2  5  1 -1</clus>
<clus scale="  117.698">  2  5  1 -1</clus>
</clustering>
</event>
<event>
 9    2  0.6066854E-005  0.1127793E+03  0.7546771E-02  0.1257737E+00
         -1   -1    0    0    0  501 -0.00000000000E+00  0.00000000000E+00  0.17512052072E+03  0.17512052072E+03  0.00000000000E+00 0.  1.
          2   -1    0    0  502    0  0.00000000000E+00 -0.00000000000E+00 -0.16805686048E+03  0.16805686048E+03  0.00000000000E+00 0. -1.
         23    2    1    2    0    0  0.32586281461E+01  0.60309228315E+02  0.11253891442E+03  0.15394597961E+03  0.85944957383E+02 0.  0.
         24    2    1    2    0    0 -0.20416043559E+02 -0.72404650623E+02 -0.12098805249E+03  0.16312923587E+03  0.79459363731E+02 0.  0.
        -13    1    4    4    0    0 -0.29544593086E+02 -0.73312308827E+02 -0.12877394695E+03  0.15109701195E+03  0.00000000000E+00 0.  1.
         14    1    4    4    0    0  0.91285495262E+01  0.90765820337E+00  0.77858944657E+01  0.12032223922E+02  0.00000000000E+00 0. -1.
        -11    1    3    3    0    0 -0.79072101283E+01  0.22503532181E+02  0.11201083560E+03  0.11452231321E+03  0.00000000000E+00 0.  1.
         11    1    3    3    0    0  0.11165838274E+02  0.37805696134E+02  0.52807882798E+00  0.39423666392E+02  0.00000000000E+00 0. -1.
         21    1    1    2  502  501  0.17157415413E+02  0.12095422309E+02  0.15512798296E+02  0.26102165724E+02  0.00000000000E+00 0. -1.
<scales pt_clust_5="13000.00000" pt_clust_6="13000.00000" pt_clust_7="13000.00000" pt_clust_8="13000.00000" pt_clust_9="20.99229"></scales>
<clustering>
<clus scale="   20.992">  1  9  2 -1</clus>
<clus scale="   79.459">  5  6 -1 -1</clus>
<clus scale="   85.945">  7  8 -1 -1</clus>
<clus scale="  107.919">  2  5  1 -1</clus>
<clus scale="  107.919">  2  5  1 -1</clus>
</clustering>
</event>
<event>
 9    2  0.6066854E-005  0.2439100E+03  0.7546771E-02  0.1150201E+00
         -1   -1    0    0    0  501 -0.00000000000E+00  0.00000000000E+00  0.69974076611E+02  0.69974076611E+02  0.00000000000E+00 0.  1.
          2   -1    0    0  502    0  0.00000000000E+00 -0.00000000000E+00 -0.15164798242E+04  0.15164798242E+04  0.00000000000E+00 0. -1.
         23    2    1    2    0    0  0.13352827583E+03 -0.15795162029E+03 -0.29045581952E+03  0.36788169746E+03  0.90519862101E+02 0.  0.
         24    2    1    2    0    0  0.51936698237E+02 -0.46099537466E+02 -0.35653523067E+03  0.37284300145E+03  0.84094857415E+02 0.  0.
        -13    1    4    4    0    0  0.55178586217E+02  0.36858102491E+01 -0.23595572235E+03  0.24234967399E+03  0.00000000000E+00 0.  1.
         14    1    4    4    0    0 -0.32418879804E+01 -0.49785347715E+02 -0.12057950833E+03  0.13049332747E+03  0.00000000000E+00 0. -1.
        -13    1    3    3    0    0  0.52636917490E+02 -0.11257400036E+03 -0.11450713763E+03  0.16898353532E+03  0.00000000000E+00 0.  1.
         13    1    3    3    0    0  0.80891358338E+02 -0.45377619928E+02 -0.17594868189E+03  0.19889816214E+03  0.00000000000E+00 0. -1.
         21    1    1    2  502  501 -0.18546497406E+03  0.20405115776E+03 -0.79951469736E+03  0.84572920186E+03  0.00000000000E+00 0.  1.
<scales pt_clust_5="13000.00000" pt_clust_6="13000.00000" pt_clust_7="13000.00000" pt_clust_8="13000.00000" pt_clust_9="226.49114"></scales>
<clustering>
<clus scale="   84.095">  5  6 -1 -1</clus>
<clus scale="   90.520">  7  8 -1 -1</clus>
<clus scale="  109.062">  2  5  1 -1</clus>
<clus scale="  226.491">  2  9  1 -1</clus>
<clus scale="  109.062">  2  5  1 -1</clus>
</clustering>
</event>
<event>
 9    2  0.6066854E-005  0.1269407E+03  0.7546771E-02  0.1235650E+00
         -1   -1    0    0    0  501 -0.00000000000E+00  0.00000000000E+00  0.15469118883E+03  0.15469118883E+03  0.00000000000E+00 0.  1.
          2   -1    0    0  502    0  0.00000000000E+00 -0.00000000000E+00 -0.15931899321E+03  0.15931899321E+03  0.00000000000E+00 0. -1.
         24    2    1    2    0    0 -0.91544349509E+02 -0.27394170288E+02  0.46448351520E+02  0.13257370880E+03  0.79293949413E+02 0.  0.
         23    2    1    2    0    0  0.70855077038E+02  0.47245631290E+02 -0.73162110338E+02  0.14524371315E+03  0.92143638963E+02 0.  0.
        -11    1    3    3    0    0 -0.39801470812E+02 -0.49108023137E+02  0.42804490072E+02  0.76341203721E+02  0.00000000000E+00 0.  1.
         12    1    3    3    0    0 -0.51742878696E+02  0.21713852848E+02  0.36438614480E+01  0.56232505080E+02  0.00000000000E+00 0. -1.
        -13    1    4    4    0    0  0.62254849482E+02  0.18222238030E+02  0.12829681841E+01  0.64879598104E+02  0.00000000000E+00 0.  1.
         13    1    4    4    0    0  0.86002275565E+01  0.29023393260E+02 -0.74445078522E+02  0.80364115043E+02  0.00000000000E+00 0. -1.
         21    1    1    2  502  501  0.20689272471E+02 -0.19851461002E+02  0.22085954447E+02  0.36192760092E+02  0.00000000000E+00 0.  1.
<scales pt_clust_5="13000.00000" pt_clust_6="13000.00000" pt_clust_7="13000.00000" pt_clust_8="13000.00000" pt_clust_9="28.67275"></scales>
<clustering>
<clus scale="   28.673">  1  9  2 -1</clus>
<clus scale="   79.294">  5  6 -1 -1</clus>
<clus scale="   92.144">  7  8 -1 -1</clus>
<clus scale="  117.945">  1  5  2 -1</clus>
<clus scale="  126.941">  2  5  1 -1</clus>
</clustering>
</event>
<event>
 9    2  0.6066854E-005  0.9614426E+02  0.7546771E-02  0.1294733E+00
          2   -1    0    0  502    0  0.00000000000E+00  0.00000000000E+00  0.73944773945E+02  0.73944773945E+02  0.00000000000E+00 0. -1.
         -1   -1    0    0    0  501 -0.00000000000E+00 -0.00000000000E+00 -0.44299434784E+03  0.44299434784E+03  0.00000000000E+00 0.  1.
         24    2    1    2    0    0  0.12496327102E+02  0.37298310171E+02 -0.17117090172E+03  0.19344827452E+03  0.81089057130E+02 0.  0.
         23    2    1    2    0    0  0.28562116257E+02 -0.13967389939E+02  0.21001786930E+02  0.99573936363E+02  0.91994626375E+02 0.  0.
        -13    1    3    3    0    0 -0.89957591845E+01 -0.23361479412E+02 -0.59666947907E+02  0.64705695856E+02  0.00000000000E+00 0.  1.
         14    1    3    3    0    0  0.21492086287E+02  0.60659789582E+02 -0.11150395381E+03  0.12874257866E+03  0.00000000000E+00 0. -1.
        -13    1    4    4    0    0 -0.12649792156E+02  0.32706419757E+02  0.72618762893E+01  0.35811478357E+02  0.00000000000E+00 0. -1.
         13    1    4    4    0    0  0.41211908413E+02 -0.46673809696E+02  0.13739910641E+02  0.63762458006E+02  0.00000000000E+00 0.  1.
         21    1    1    2  502  501 -0.41058443359E+02 -0.23330920232E+02 -0.21888045911E+03  0.22391691090E+03  0.00000000000E+00 0.  1.
<scales pt_clust_5="13000.00000" pt_clust_6="13000.00000" pt_clust_7="13000.00000" pt_clust_8="13000.00000" pt_clust_9="47.22423"></scales>
<clustering>
<clus scale="   47.224">  2  9  1 -1</clus>
<clus scale="   81.089">  5  6 -1 -1</clus>
<clus scale="   85.768">  2  5  1 -1</clus>
<clus scale="   91.995">  7  8 -1 -1</clus>
<clus scale="   96.144">  1  5  2 -1</clus>
</clustering>
</event>
<event>
 9    2  0.6066854E-005  0.1123491E+03  0.7546771E-02  0.1259962E+00
          2   -1    0    0  502    0  0.00000000000E+00  0.00000000000E+00  0.37193330080E+03  0.37193330080E+03  0.00000000000E+00 0. -1.
         -1   -1    0    0    0  501 -0.00000000000E+00 -0.00000000000E+00 -0.55784277728E+02  0.55784277728E+02  0.00000000000E+00 0.  1.
         23    2    1    2    0    0 -0.61196834180E+02 -0.59194272780E+02  0.11491395606E+03  0.16931297356E+03  0.90623679436E+02 0.  0.
         24    2    1    2    0    0  0.53308560386E+02  0.26174914115E+02  0.20086206725E+03  0.22445402266E+03  0.80666656605E+02 0.  0.
        -11    1    4    4    0    0  0.41301309412E+02 -0.81350243350E+01  0.35265603939E+02  0.54914839536E+02  0.00000000000E+00 0.  1.
         12    1    4    4    0    0  0.12007250974E+02  0.34309938450E+02  0.16559646331E+03  0.16953918312E+03  0.00000000000E+00 0. -1.
        -11    1    3    3    0    0 -0.46732842439E+01 -0.32030133289E+02  0.99642448537E+02  0.10476825175E+03  0.00000000000E+00 0. -1.
         11    1    3    3    0    0 -0.56523549936E+02 -0.27164139492E+02  0.15271507526E+02  0.64544721812E+02  0.00000000000E+00 0.  1.
         21    1    1    2  502  501  0.78882737936E+01  0.33019358665E+02  0.37299975610E+00  0.33950582306E+02  0.00000000000E+00 0. -1.
<scales pt_clust_5="13000.00000" pt_clust_6="13000.00000" pt_clust_7="13000.00000" pt_clust_8="13000.00000" pt_clust_9="33.94853"></scales>
<clustering>
<clus scale="   33.949">  2  9  1 -1</clus>
<clus scale="   80.667">  5  6 -1 -1</clus>
<clus scale="   90.624">  7  8 -1 -1</clus>
<clus scale="  104.483">  1  5  2 -1</clus>
<clus scale="  104.483">  1  5  2 -1</clus>
</clustering>
</event>
<event>
 9    2  0.6066854E-005  0.1089984E+03  0.7546771E-02  0.1267402E+00
          2   -1    0    0  502    0  0.00000000000E+00  0.00000000000E+00  0.17363826468E+03  0.17363826468E+03  0.00000000000E+00 0. -1.
         -1   -1    0    0    0  501 -0.00000000000E+00 -0.00000000000E+00 -0.16654504170E+03  0.16654504170E+03  0.00000000000E+00 0.  1.
         23    2    1    2    0    0  0.37244148329E+02 -0.26486206706E+02 -0.44434291919E+02  0.11228480200E+03  0.92438221165E+02 0.  0.
         24    2    1    2    0    0 -0.62318595522E+02  0.15069070156E+01  0.11605714867E+03  0.15429981588E+03  0.80332392633E+02 0.  0.
        -13    1    4    4    0    0 -0.77743165773E+01 -0.19976315422E+02 -0.29496131022E+01  0.21637777001E+02  0.00000000000E+00 0.  1.
         14    1    4    4    0    0 -0.54544278945E+02  0.21483222437E+02  0.11900676177E+03  0.13266203888E+03  0.00000000000E+00 0. -1.
        -11    1    3    3    0    0  0.27300814205E+02 -0.52679450689E+02 -0.56360514115E+02  0.81834995769E+02  0.00000000000E+00 0. -1.
         11    1    3    3    0    0  0.99433341233E+01  0.26193243983E+02  0.11926222196E+02  0.30449806235E+02  0.00000000000E+00 0.  1.
         21    1    1    2  502  501  0.25074447193E+02  0.24979299690E+02 -0.64529633766E+02  0.73598688501E+02  0.00000000000E+00 0.  1.
<scales pt_clust_5="13000.00000" pt_clust_6="13000.00000" pt_clust_7="13000.00000" pt_clust_8="13000.00000" pt_clust_9="35.39341"></scales>
<clustering>
<clus scale="   35.393">  2  9  1 -1</clus>
<clus scale="   80.332">  5  6 -1 -1</clus>
<clus scale="   92.438">  7  8 -1 -1</clus>
<clus scale="   98.940">  1  5  2 -1</clus>
<clus scale="   98.940">  1  5  2 -1</clus>
</clustering>
</event>
<event>
 9    2  0.6066854E-005  0.1058801E+03  0.7546771E-02  0.1276760E+00
         -3   -1    0    0    0  501 -0.00000000000E+00  0.00000000000E+00  0.82641706735E+03  0.82641706735E+03  0.00000000000E+00 0.  1.
          4   -1    0    0  502    0  0.00000000000E+00 -0.00000000000E+00 -0.23381945876E+02  0.23381945876E+02  0.00000000000E+00 0. -1.
         24    2    1    2    0    0 -0.60927371107E+01 -0.13957804599E+02  0.40460801273E+03  0.41328339653E+03  0.82846726717E+02 0.  0.
         23    2    1    2    0    0  0.48780618542E+02 -0.16947752345E+02  0.18291868108E+03  0.21465689799E+03  0.99757530604E+02 0.  0.
        -13    1    3    3    0    0 -0.39060526567E+02 -0.22610453008E+02  0.15760886305E+03  0.16394362151E+03  0.00000000000E+00 0.  1.
         14    1    3    3    0    0  0.32967789457E+02  0.86526484091E+01  0.24699914968E+03  0.24933977502E+03  0.00000000000E+00 0. -1.
        -13    1    4    4    0    0  0.41343340972E+02  0.34898926119E+02  0.12697295078E+03  0.13801933602E+03  0.00000000000E+00 0.  1.
         13    1    4    4    0    0  0.74372775708E+01 -0.51846678465E+02  0.55945730306E+02  0.76637561971E+02  0.00000000000E+00 0. -1.
         21    1    1    2  502  501 -0.42687881432E+02  0.30905556944E+02  0.21550842766E+03  0.22185871871E+03  0.00000000000E+00 0.  1.
<scales pt_clust_5="13000.00000" pt_clust_6="13000.00000" pt_clust_7="13000.00000" pt_clust_8="13000.00000" pt_clust_9="52.70113"></scales>
<clustering>
<clus scale="   52.701">  1  9  2 -1</clus>
<clus scale="   82.847">  5  6 -1 -1</clus>
<clus scale="   90.126">  1  5  2 -1</clus>
<clus scale="   99.758">  7  8 -1 -1</clus>
<clus scale="  105.880">  2  5  1 -1</clus>
</clustering>
</event>
<event>
 9    2  0.6066854E-005  0.1427145E+03  0.7546771E-02  0.1211689E+00
          2   -1    0    0  502    0  0.00000000000E+00  0.00000000000E+00  0.31603144923E+03  0.31603144923E+03  0.00000000000E+00 0. -1.
         -1   -1    0    0    0  501 -0.00000000000E+00 -0.00000000000E+00 -0.33406135534E+03  0.33406135534E+03  0.00000000000E+00 0.  1.
         24    2    1    2    0    0  0.11520830873E+03  0.47110648083E+02 -0.16667259081E+03  0.22448604040E+03  0.84391126567E+02 0.  0.
         23    2    1    2    0    0 -0.10613968302E+03 -0.10397946234E+02  0.26645080410E+03  0.30187796621E+03  0.93597680935E+02 0.  0.
        -13    1    3    3    0    0  0.12064273865E+03  0.21202359024E+02 -0.14787489616E+03  0.19201873693E+03  0.00000000000E+00 0.  1.
         14    1    3    3    0    0 -0.54344299195E+01  0.25908289058E+02 -0.18797694646E+02  0.32467303468E+02  0.00000000000E+00 0. -1.
        -13    1    4    4    0    0 -0.38409991604E+02  0.29090327942E+02  0.41276738652E+02  0.63445597077E+02  0.00000000000E+00 0.  1.
         13    1    4    4    0    0 -0.67729691419E+02 -0.39488274176E+02  0.22517406545E+03  0.23843236913E+03  0.00000000000E+00 0. -1.
         21    1    1    2  502  501 -0.90686257051E+01 -0.36712701849E+02 -0.11780811941E+03  0.12372879797E+03  0.00000000000E+00 0. -1.
<scales pt_clust_5="13000.00000" pt_clust_6="13000.00000" pt_clust_7="13000.00000" pt_clust_8="13000.00000" pt_clust_9="37.81617"></scales>
<clustering>
<clus scale="   37.816">  2  9  1 -1</clus>
<clus scale="   84.391">  5  6 -1 -1</clus>
<clus scale="   93.598">  7  8 -1 -1</clus>
<clus scale="  136.853">  2  5  1 -1</clus>
<clus scale="  142.714">  1  5  2 -1</clus>
</clustering>
</event>
<event>
 9    2  0.6066854E-005  0.9604159E+02  0.7546771E-02  0.1294688E+00
          4   -1    0    0  502    0  0.00000000000E+00  0.00000000000E+00  0.25249310450E+03  0.25249310450E+03  0.00000000000E+00 0. -1.
         -3   -1    0    0    0  501 -0.00000000000E+00 -0.00000000000E+00 -0.30557215371E+03  0.30557215371E+03  0.00000000000E+00 0.  1.
         23    2    1    2    0    0 -0.24757272309E+02 -0.47470990677E+02 -0.21598383469E+02  0.10790018815E+03  0.91156694468E+02 0.  0.
         24    2    1    2    0    0  0.27463557700E+02  0.86872784623E+01  0.19888982254E+03  0.21653702769E+03  0.80631303105E+02 0.  0.
        -11    1    4    4    0    0 -0.15718789518E+02  0.21141741370E+02  0.22922863107E+02  0.34921500900E+02  0.00000000000E+00 0.  1.
         12    1    4    4    0    0  0.43182347218E+02 -0.12454462908E+02  0.17596695944E+03  0.18161552679E+03  0.00000000000E+00 0. -1.
        -11    1    3    3    0    0  0.29301530325E+02 -0.80296557055E+01 -0.27159826537E+02  0.40751824838E+02  0.00000000000E+00 0. -1.
         11    1    3    3    0    0 -0.54058802634E+02 -0.39441334971E+02  0.55614430680E+01  0.67148363312E+02  0.00000000000E+00 0.  1.
         21    1    1    2  502  501 -0.27062853906E+01  0.38783712214E+02 -0.23037048828E+03  0.23362804237E+03  0.00000000000E+00 0.  1.
<scales pt_clust_5="13000.00000" pt_clust_6="13000.00000" pt_clust_7="13000.00000" pt_clust_8="13000.00000" pt_clust_9="38.87802"></scales>
<clustering>
<clus scale="   38.878">  2  9  1 -1</clus>
<clus scale="   80.631">  5  6 -1 -1</clus>
<clus scale="   86.115">  1  5  2 -1</clus>
<clus scale="   91.157">  7  8 -1 -1</clus>
<clus scale="   86.115">  1  5  2 -1</clus>
</clustering>
</event>
<event>
 9    2  0.6066854E-005  0.1678813E+03  0.7546771E-02  0.1206434E+00
         -1   -1    0    0    0  501 -0.00000000000E+00  0.00000000000E+00  0.10148551059E+03  0.10148551059E+03  0.00000000000E+00 0.  1.
          2   -1    0    0  502    0  0.00000000000E+00 -0.00000000000E+00 -0.95989338290E+03  0.95989338290E+03  0.00000000000E+00 0. -1.
         23    2    1    2    0    0 -0.63664807133E+02  0.11503493614E+03 -0.49801451249E+02  0.16806888874E+03  0.92090838937E+02 0.  0.
         24    2    1    2    0    0  0.32294067556E+02  0.39045501295E+02 -0.68992041654E+03  0.69630423791E+03  0.79258769894E+02 0.  0.
        -13    1    4    4    0    0 -0.17635797423E+02  0.10383078588E+02 -0.53429376999E+02  0.57214753326E+02  0.00000000000E+00 0.  1.
         14    1    4    4    0    0  0.49929864979E+02  0.28662422707E+02 -0.63649103954E+03  0.63908948458E+03  0.00000000000E+00 0. -1.
        -13    1    3    3    0    0  0.31474941820E+01  0.79215421809E+02 -0.37446955166E+01  0.79366318527E+02  0.00000000000E+00 0.  1.
         13    1    3    3    0    0 -0.66812301315E+02  0.35819514329E+02 -0.46056755733E+02  0.88702570213E+02  0.00000000000E+00 0. -1.
         21    1    1    2  502  501  0.31370739577E+02 -0.15408043743E+03 -0.11868600452E+03  0.19700576684E+03  0.00000000000E+00 0. -1.
<scales pt_clust_5="13000.00000" pt_clust_6="13000.00000" pt_clust_7="13000.00000" pt_clust_8="13000.00000" pt_clust_9="140.36878"></scales>
<clustering>
<clus scale="   79.259">  5  6 -1 -1</clus>
<clus scale="   92.091">  7  8 -1 -1</clus>
<clus scale="   94.071">  2  5  1 -1</clus>
<clus scale="  140.369">  2  9  1 -1</clus>
<clus scale="   94.071">  2  5  1 -1</clus>
</clustering>
</event>
<event>
 9    2  0.6066854E-005  0.1320092E+03  0.7546771E-02  0.1227420E+00
         -1   -1    0    0    0  501 -0.00000000000E+00  0.00000000000E+00  0.19807288878E+03  0.19807288878E+03  0.00000000000E+00 0.  1.
          2   -1    0    0  502    0  0.00000000000E+00 -0.00000000000E+00 -0.15488027133E+03  0.15488027133E+03  0.00000000000E+00 0. -1.
         23    2    1    2    0    0  0.10143232477E+03 -0.82323883931E+01  0.10342396185E+03  0.16535186410E+03  0.79299649121E+02 0.  0.
         24    2    1    2    0    0 -0.93842285827E+02 -0.10278298234E+02 -0.84628612737E+02  0.15605005337E+03  0.90981311477E+02 0.  0.
        -11    1    4    4    0    0 -0.25355139841E+02 -0.52679521350E+01  0.18729214880E+02  0.31959629630E+02  0.00000000000E+00 0.  1.
         12    1    4    4    0    0 -0.68487145986E+02 -0.50103460987E+01 -0.10335782762E+03  0.12409042374E+03  0.00000000000E+00 0. -1.
        -13    1    3    3    0    0  0.22736059196E+02 -0.19748801086E+02  0.75119013432E+02  0.80930894664E+02  0.00000000000E+00 0.  1.
         13    1    3    3    0    0  0.78696265569E+02  0.11516412693E+02  0.28304948422E+02  0.84420969439E+02  0.00000000000E+00 0. -1.
         21    1    1    2  502  501 -0.75900389385E+01  0.18510686627E+02  0.24397268335E+02  0.31551242649E+02  0.00000000000E+00 0.  1.
<scales pt_clust_5="13000.00000" pt_clust_6="13000.00000" pt_clust_7="13000.00000" pt_clust_8="13000.00000" pt_clust_9="20.00635"></scales>
<clustering>
<clus scale="   20.006">  1  9  2 -1</clus>
<clus scale="   79.300">  7  8 -1 -1</clus>
<clus scale="   90.981">  5  6 -1 -1</clus>
<clus scale="  124.247">  1  7  2 -1</clus>
<clus scale="  132.009">  2  5  1 -1</clus>
</clustering>
</event>
<event>
 9    2  0.6066854E-005  0.1217218E+03  0.7546771E-02  0.1242867E+00
         -1   -1    0    0    0  501 -0.00000000000E+00  0.00000000000E+00  0.17752590129E+03  0.17752590129E+03  0.00000000000E+00 0.  1.
          2   -1    0    0  502    0  0.00000000000E+00 -0.00000000000E+00 -0.20951039951E+03  0.20951039951E+03  0.00000000000E+00 0. -1.
         24    2    1    2    0    0 -0.38124052624E+02 -0.52179570539E+02  0.60322172149E+02  0.11962843099E+03  0.80598052566E+02 0.  0.
         23    2    1    2    0    0  0.56386465344E+02  0.66513649554E+02 -0.15591045078E+03  0.19969950680E+03  0.89265476555E+02 0.  0.
        -13    1    3    3    0    0 -0.42601164502E+02 -0.66713148940E+01 -0.10020283414E+01  0.43132003433E+02  0.00000000000E+00 0.  1.
         14    1    3    3    0    0  0.44771118780E+01 -0.45508255645E+02  0.61324200491E+02  0.76496427553E+02  0.00000000000E+00 0. -1.
        -11    1    4    4    0    0  0.33993492646E+02  0.84470146542E+02 -0.13964531164E+03  0.16670805698E+03  0.00000000000E+00 0. -1.
         11    1    4    4    0    0  0.22392972698E+02 -0.17956496988E+02 -0.16265139143E+02  0.32991449827E+02  0.00000000000E+00 0.  1.
         21    1    1    2  502  501 -0.18262412720E+02 -0.14334079015E+02  0.63603780407E+02  0.67708363011E+02  0.00000000000E+00 0. -1.
<scales pt_clust_5="13000.00000" pt_clust_6="13000.00000" pt_clust_7="13000.00000" pt_clust_8="13000.00000" pt_clust_9="23.21598"></scales>
<clustering>
<clus scale="   23.216">  1  9  2 -1</clus>
<clus scale="   80.598">  5  6 -1 -1</clus>
<clus scale="   89.265">  7  8 -1 -1</clus>
<clus scale="  115.516">  1  5  2 -1</clus>
<clus scale="  121.722">  2  5  1 -1</clus>
</clustering>
</event>
<event>
 9    2  0.6066854E-005  0.1048171E+03  0.7546771E-02  0.1275737E+00
          2   -1    0    0  502    0  0.00000000000E+00  0.00000000000E+00  0.51051679699E+02  0.51051679699E+02  0.00000000000E+00 0. -1.
         -1   -1    0    0    0  501 -0.00000000000E+00 -0.00000000000E+00 -0.36528162889E+03  0.36528162889E+03  0.00000000000E+00 0.  1.
         24    2    1    2    0    0  0.50685465787E+02  0.65945619187E+00 -0.17897243164E+03  0.20173782259E+03  0.78086916008E+02 0.  0.
         23    2    1    2    0    0 -0.48784312309E+02  0.29755120952E+02 -0.38888325993E+02  0.11352282912E+03  0.90054730484E+02 0.  0.
        -13    1    3    3    0    0  0.48149728632E+02  0.28935111404E+02 -0.15400906042E+03  0.16393421769E+03  0.00000000000E+00 0.  1.
         14    1    3    3    0    0  0.25357371549E+01 -0.28275655212E+02 -0.24963371225E+02  0.37803604901E+02  0.00000000000E+00 0. -1.
        -11    1    4    4    0    0 -0.24779644912E+02 -0.31677000963E+02 -0.95472412120E+01  0.41335372343E+02  0.00000000000E+00 0.  1.
         11    1    4    4    0    0 -0.24004667397E+02  0.61432121915E+02 -0.29341084781E+02  0.72187456777E+02  0.00000000000E+00 0. -1.
         21    1    1    2  502  501 -0.19011534774E+01 -0.30414577143E+02 -0.96369191551E+02  0.10107265687E+03  0.00000000000E+00 0.  1.
<scales pt_clust_5="13000.00000" pt_clust_6="13000.00000" pt_clust_7="13000.00000" pt_clust_8="13000.00000" pt_clust_9="30.47394"></scales>
<clustering>
<clus scale="   30.474">  2  9  1 -1</clus>
<clus scale="   78.087">  5  6 -1 -1</clus>
<clus scale="   90.055">  7  8 -1 -1</clus>
<clus scale="   94.733">  2  5  1 -1</clus>
<clus scale="  104.817">  1  5  2 -1</clus>
</clustering>
</event>
<event>
 9    2  0.6066854E-005  0.1322422E+03  0.7546771E-02  0.1227786E+00
         -1   -1    0    0    0  501 -0.00000000000E+00  0.00000000000E+00  0.36002557057E+02  0.36002557057E+02  0.00000000000E+00 0.  1.
          2   -1    0    0  502    0  0.00000000000E+00 -0.00000000000E+00 -0.11036467470E+04  0.11036467470E+04  0.00000000000E+00 0. -1.
         23    2    1    2    0    0  0.84419209536E+01  0.34854048159E+02 -0.10276587623E+03  0.14436839645E+03  0.94843755051E+02 0.  0.
         24    2    1    2    0    0 -0.65404859806E+02 -0.85523853590E+02 -0.82547368960E+03  0.83639146552E+03  0.80942857327E+02 0.  0.
        -11    1    4    4    0    0 -0.26603904566E+02 -0.19117275503E+02 -0.73201771068E+02  0.80198112499E+02  0.00000000000E+00 0.  1.
         12    1    4    4    0    0 -0.38800955240E+02 -0.66406578087E+02 -0.75227191854E+03  0.75619335303E+03  0.00000000000E+00 0. -1.
        -13    1    3    3    0    0  0.93750974212E+01  0.58834957406E+02 -0.27969063886E+02  0.65815751909E+02  0.00000000000E+00 0.  1.
         13    1    3    3    0    0 -0.93317646756E+00 -0.23980909248E+02 -0.74796812345E+02  0.78552644537E+02  0.00000000000E+00 0. -1.
         21    1    1    2  502  501  0.56962938853E+02  0.50669805431E+02 -0.13940462412E+03  0.15888944210E+03  0.00000000000E+00 0.  1.
<scales pt_clust_5="13000.00000" pt_clust_6="13000.00000" pt_clust_7="13000.00000" pt_clust_8="13000.00000" pt_clust_9="76.23782"></scales>
<clustering>
<clus scale="   76.238">  1  9  2 -1</clus>
<clus scale="   80.943">  5  6 -1 -1</clus>
<clus scale="   94.844">  7  8 -1 -1</clus>
<clus scale="  122.656">  2  5  1 -1</clus>
<clus scale="  122.656">  2  5  1 -1</clus>
</clustering>
</event>
<event>
 9    2  0.6066854E-005  0.1287224E+03  0.7546771E-02  0.1230192E+00
         -1   -1    0    0    0  501 -0.00000000000E+00  0.00000000000E+00  0.80957588096E+03  0.80957588096E+03  0.00000000000E+00 0.  1.
          2   -1    0    0  502    0  0.00000000000E+00 -0.00000000000E+00 -0.37633195958E+02  0.37633195958E+02  0.00000000000E+00 0. -1.
         24    2    1    2    0    0 -0.48077810051E+02 -0.62297584289E+02  0.41659854582E+03  0.43293822998E+03  0.87685219792E+02 0.  0.
         23    2    1    2    0    0  0.35494209576E+02  0.89912807690E+02  0.12603302685E+03  0.18296037635E+03  0.90807618391E+02 0.  0.
        -13    1    3    3    0    0 -0.36876078666E+02 -0.62588610091E+02  0.15584800034E+03  0.17194702236E+03  0.00000000000E+00 0.  1.
         14    1    3    3    0    0 -0.11201731385E+02  0.29102580249E+00  0.26075054549E+03  0.26099120762E+03  0.00000000000E+00 0. -1.
        -13    1    4    4    0    0 -0.29173372301E+02  0.45961154357E+02  0.51711029756E+02  0.75083579827E+02  0.00000000000E+00 0.  1.
         13    1    4    4    0    0  0.64667581877E+02  0.43951653333E+02  0.74321997093E+02  0.10787679652E+03  0.00000000000E+00 0. -1.
         21    1    1    2  502  501  0.12583600476E+02 -0.27615223401E+02  0.22931111233E+03  0.23131047059E+03  0.00000000000E+00 0.  1.
<scales pt_clust_5="13000.00000" pt_clust_6="13000.00000" pt_clust_7="13000.00000" pt_clust_8="13000.00000" pt_clust_9="30.34712"></scales>
<clustering>
<clus scale="   30.347">  1  9  2 -1</clus>
<clus scale="   87.685">  5  6 -1 -1</clus>
<clus scale="   90.808">  7  8 -1 -1</clus>
<clus scale="  126.539">  1  5  2 -1</clus>
<clus scale="  128.722">  2  5  1 -1</clus>
</clustering>
</event>
<event>
 9    2  0.6066854E-005  0.9458103E+02  0.7546771E-02  0.1301558E+00
          2   -1    0    0  502    0  0.00000000000E+00  0.00000000000E+00  0.84965284967E+03  0.84965284967E+03  0.00000000000E+00 0. -1.
         -1   -1    0    0    0  501 -0.00000000000E+00 -0.00000000000E+00 -0.19930905013E+03  0.19930905013E+03  0.00000000000E+00 0.  1.
         23    2    1    2    0    0 -0.66171860955E+01  0.12690249553E+02  0.11873411531E+03  0.15087844429E+03  0.91987418853E+02 0.  0.
         24    2    1    2    0    0  0.85899757737E+00  0.26888660333E+02  0.71034003539E+03  0.71493273814E+03  0.76302793170E+02 0.  0.
        -13    1    4    4    0    0  0.32964668581E+02  0.66797821442E+01  0.17200599849E+03  0.17526366532E+03  0.00000000000E+00 0.  1.
         14    1    4    4    0    0 -0.32105671004E+02  0.20208878189E+02  0.53833403691E+03  0.53966907282E+03  0.00000000000E+00 0. -1.
        -13    1    3    3    0    0 -0.50101582854E+01 -0.30867474970E+02  0.85995149111E+01  0.32432304170E+02  0.00000000000E+00 0.  1.
         13    1    3    3    0    0 -0.16070278102E+01  0.43557724523E+02  0.11013460040E+03  0.11844614012E+03  0.00000000000E+00 0. -1.
         21    1    1    2  502  501  0.57581885181E+01 -0.39578909886E+02 -0.17873035117E+03  0.18315071736E+03  0.00000000000E+00 0.  1.
<scales pt_clust_5="13000.00000" pt_clust_6="13000.00000" pt_clust_7="13000.00000" pt_clust_8="13000.00000" pt_clust_9="39.99559"></scales>
<clustering>
<clus scale="   39.996">  2  9  1 -1</clus>
<clus scale="   76.303">  5  6 -1 -1</clus>
<clus scale="   79.410">  1  5  2 -1</clus>
<clus scale="   91.987">  7  8 -1 -1</clus>
<clus scale="   79.410">  1  5  2 -1</clus>
</clustering>
</event>
<event>
 9    2  0.6066854E-005  0.2315981E+03  0.7546771E-02  0.1126186E+00
          2   -1    0    0  502    0  0.00000000000E+00  0.00000000000E+00  0.67146891706E+03  0.67146891706E+03  0.00000000000E+00 0. -1.
         -1   -1    0    0    0  501 -0.00000000000E+00 -0.00000000000E+00 -0.10355266514E+03  0.10355266514E+03  0.00000000000E+00 0.  1.
         24    2    1    2    0    0  0.23757263891E+03  0.68259110507E+01  0.26159882709E+03  0.36238258424E+03  0.79998995017E+02 0.  0.
         23    2    1    2    0    0 -0.19651153663E+03 -0.24785294288E+00  0.30114327860E+03  0.37073366705E+03  0.90218247484E+02 0.  0.
        -13    1    3    3    0    0  0.52073291377E+02  0.15014582520E+02  0.20208790413E+02  0.57839956544E+02  0.00000000000E+00 0.  1.
         14    1    3    3    0    0  0.18549934754E+03 -0.81886714698E+01  0.24139003668E+03  0.30454262770E+03  0.00000000000E+00 0. -1.
        -11    1    4    4    0    0 -0.11972429083E+03  0.43774966810E+02  0.18633595613E+03  0.22576811573E+03  0.00000000000E+00 0. -1.
         11    1    4    4    0    0 -0.76787245807E+02 -0.44022819753E+02  0.11480732247E+03  0.14496555132E+03  0.00000000000E+00 0.  1.
         21    1    1    2  502  501 -0.41061102278E+02 -0.65780581078E+01  0.51741462316E+01  0.41905330902E+02  0.00000000000E+00 0. -1.
<scales pt_clust_5="13000.00000" pt_clust_6="13000.00000" pt_clust_7="13000.00000" pt_clust_8="13000.00000" pt_clust_9="41.58467"></scales>
<clustering>
<clus scale="   41.585">  2  9  1 -1</clus>
<clus scale="   79.999">  5  6 -1 -1</clus>
<clus scale="   90.218">  7  8 -1 -1</clus>
<clus scale="  227.812">  2  5  1 -1</clus>
<clus scale="  231.598">  1  5  2 -1</clus>
</clustering>
</event>
<event>
 9    2  0.6066854E-005  0.9730031E+02  0.7546771E-02  0.1292939E+00
         -1   -1    0    0    0  501 -0.00000000000E+00  0.00000000000E+00  0.64838881702E+02  0.64838881702E+02  0.00000000000E+00 0.  1.
          2   -1    0    0  502    0  0.00000000000E+00 -0.00000000000E+00 -0.21021154878E+03  0.21021154878E+03  0.00000000000E+00 0. -1.
         24    2    1    2    0    0  0.23261468290E+02 -0.31427331337E+02 -0.37328885864E+01  0.87370397621E+02  0.78044082807E+02 0.  0.
         23    2    1    2    0    0 -0.29975799105E+02  0.49465897615E+01 -0.11329900065E+03  0.14831619665E+03  0.90763502345E+02 0.  0.
        -13    1    3    3    0    0  0.31485460950E+02 -0.52537147618E+02 -0.13467169268E+02  0.62712445170E+02  0.00000000000E+00 0.  1.
         14    1    3    3    0    0 -0.82239926600E+01  0.21109816281E+02  0.97342806814E+01  0.24657952451E+02  0.00000000000E+00 0. -1.
        -13    1    4    4    0    0 -0.42089708823E+02 -0.34482249143E+02 -0.61960492799E+02  0.82460122257E+02  0.00000000000E+00 0.  1.
         13    1    4    4    0    0  0.12113909718E+02  0.39428838904E+02 -0.51338507850E+02  0.65856074391E+02  0.00000000000E+00 0. -1.
         21    1    1    2  502  501  0.67143308152E+01  0.26480741576E+02 -0.28340777846E+02  0.39363836216E+02  0.00000000000E+00 0. -1.
<scales pt_clust_5="13000.00000" pt_clust_6="13000.00000" pt_clust_7="13000.00000" pt_clust_8="13000.00000" pt_clust_9="27.31871"></scales>
<clustering>
<clus scale="   27.319">  2  9  1 -1</clus>
<clus scale="   78.044">  5  6 -1 -1</clus>
<clus scale="   85.558">  1  5  2 -1</clus>
<clus scale="   90.764">  7  8 -1 -1</clus>
<clus scale="   27.319">  2  5  1 -1</clus>
</clustering>
</event>
<event>
 9    2  0.6066854E-005  0.9417706E+02  0.7546771E-02  0.1301183E+00
          2   -1    0    0  502    0  0.00000000000E+00  0.00000000000E+00  0.45183181131E+03  0.45183181131E+03  0.00000000000E+00 0. -1.
         -1   -1    0    0    0  501 -0.00000000000E+00 -0.00000000000E+00 -0.64737342136E+02  0.64737342136E+02  0.00000000000E+00 0.  1.
         23    2    1    2    0    0 -0.49483070567E+02 -0.13295889348E+02  0.17140186330E+02  0.10785897619E+03  0.93351046118E+02 0.  0.
         24    2    1    2    0    0  0.71943173679E+01 -0.75361902388E+01  0.34702807994E+03  0.35628952324E+03  0.80032391833E+02 0.  0.
        -11    1    4    4    0    0  0.46763197769E+01  0.26813879467E+02  0.47168764056E+02  0.54458648544E+02  0.00000000000E+00 0.  1.
         12    1    4    4    0    0  0.25179975910E+01 -0.34350069706E+02  0.29985931588E+03  0.30183087470E+03  0.00000000000E+00 0. -1.
        -13    1    3    3    0    0 -0.26423457959E+02 -0.49171267382E+01 -0.38555408258E+02  0.46998901815E+02  0.00000000000E+00 0.  1.
         13    1    3    3    0    0 -0.23059612608E+02 -0.83787626099E+01  0.55695594588E+02  0.60860074376E+02  0.00000000000E+00 0. -1.
         21    1    1    2  502  501  0.42288753199E+02  0.20832079587E+02  0.22926202906E+02  0.52420654009E+02  0.00000000000E+00 0. -1.
<scales pt_clust_5="13000.00000" pt_clust_6="13000.00000" pt_clust_7="13000.00000" pt_clust_8="13000.00000" pt_clust_9="47.14143"></scales>
<clustering>
<clus scale="   47.141">  2  9  1 -1</clus>
<clus scale="   80.032">  5  6 -1 -1</clus>
<clus scale="   80.994">  1  5  2 -1</clus>
<clus scale="   93.351">  7  8 -1 -1</clus>
<clus scale="   80.994">  1  5  2 -1</clus>
</clustering>
</event>
<event>
 9    2  0.6066854E-005  0.9056847E+02  0.7546771E-02  0.1303857E+00
          2   -1    0    0  502    0  0.00000000000E+00  0.00000000000E+00  0.12865932423E+03  0.12865932423E+03  0.00000000000E+00 0. -1.
         -1   -1    0    0    0  501 -0.00000000000E+00 -0.00000000000E+00 -0.15125952143E+03  0.15125952143E+03  0.00000000000E+00 0.  1.
         23    2    1    2    0    0 -0.48577014388E+01 -0.49543612463E+02 -0.36754428385E+02  0.10400733475E+03  0.83597074576E+02 0.  0.
         24    2    1    2    0    0 -0.36181995260E+01  0.30723949253E+02  0.73844853572E+02  0.11275305129E+03  0.79392290252E+02 0.  0.
        -11    1    4    4    0    0  0.34994711475E+02  0.18968554700E+02  0.17595421092E+02  0.43520509441E+02  0.00000000000E+00 0.  1.
         12    1    4    4    0    0 -0.38612911001E+02  0.11755394553E+02  0.56249432481E+02  0.69232541853E+02  0.00000000000E+00 0. -1.
        -11    1    3    3    0    0 -0.34420684211E+02 -0.52156558908E+02 -0.85645851023E+01  0.63074894029E+02  0.00000000000E+00 0.  1.
         11    1    3    3    0    0  0.29562982772E+02  0.26129464449E+01 -0.28189843282E+02  0.40932440726E+02  0.00000000000E+00 0. -1.
         21    1    1    2  502  501  0.84759009648E+01  0.18819663210E+02 -0.59690622384E+02  0.63158459616E+02  0.00000000000E+00 0.  1.
<scales pt_clust_5="13000.00000" pt_clust_6="13000.00000" pt_clust_7="13000.00000" pt_clust_8="13000.00000" pt_clust_9="20.64027"></scales>
<clustering>
<clus scale="   20.640">  2  9  1 -1</clus>
<clus scale="   79.392">  5  6 -1 -1</clus>
<clus scale="   83.597">  7  8 -1 -1</clus>
<clus scale="   86.702">  1  5  2 -1</clus>
<clus scale="   86.702">  1  5  2 -1</clus>
</clustering>
</event>
<event>
 9    2  0.6066854E-005  0.1225054E+03  0.7546771E-02  0.1242566E+00
          2   -1    0    0  502    0  0.00000000000E+00  0.00000000000E+00  0.15332621667E+03  0.15332621667E+03  0.00000000000E+00 0. -1.
         -1   -1    0    0    0  501 -0.00000000000E+00 -0.00000000000E+00 -0.38620337169E+03  0.38620337169E+03  0.00000000000E+00 0.  1.
         23    2    1    2    0    0  0.69376538692E+02 -0.15472010550E+02 -0.30168605419E+03  0.32289726533E+03  0.90530002925E+02 0.  0.
         24    2    1    2    0    0 -0.59384381957E+02  0.59844177738E+02  0.10695833650E+03  0.15726809150E+03  0.78646909848E+02 0.  0.
        -13    1    4    4    0    0 -0.15756625176E+02  0.14794766790E+02 -0.10566217097E+02  0.24058289737E+02  0.00000000000E+00 0.  1.
         14    1    4    4    0    0 -0.43627756781E+02  0.45049410947E+02  0.11752455360E+03  0.13320980176E+03  0.00000000000E+00 0. -1.
        -11    1    3    3    0    0  0.55419851625E+02  0.79187834830E+01 -0.28607786359E+03  0.29150404992E+03  0.00000000000E+00 0. -1.
         11    1    3    3    0    0  0.13956687067E+02 -0.23390794033E+02 -0.15608190601E+02  0.31393215401E+02  0.00000000000E+00 0.  1.
         21    1    1    2  502  501 -0.99921567349E+01 -0.44372167188E+02 -0.38149437329E+02  0.59364231535E+02  0.00000000000E+00 0.  1.
<scales pt_clust_5="13000.00000" pt_clust_6="13000.00000" pt_clust_7="13000.00000" pt_clust_8="13000.00000" pt_clust_9="45.48332"></scales>
<clustering>
<clus scale="   45.483">  2  9  1 -1</clus>
<clus scale="   78.647">  5  6 -1 -1</clus>
<clus scale="   90.530">  7  8 -1 -1</clus>
<clus scale="  114.005">  1  5  2 -1</clus>
<clus scale="  114.005">  1  5  2 -1</clus>
</clustering>
</event>
<event>
 9    2  0.6066854E-005  0.9536764E+02  0.7546771E-02  0.1297295E+00
         -1   -1    0    0    0  501 -0.00000000000E+00  0.00000000000E+00  0.31385503463E+03  0.31385503463E+03  0.00000000000E+00 0.  1.
          2   -1    0    0  502    0  0.00000000000E+00 -0.00000000000E+00 -0.74257793085E+02  0.74257793085E+02  0.00000000000E+00 0. -1.
         23    2    1    2    0    0 -0.16025847328E+02  0.97626228307E+01  0.57972175136E+02  0.11089892988E+03  0.92658852630E+02 0.  0.
         24    2    1    2    0    0 -0.34850421786E+02  0.33454117173E+02  0.11868957726E+02  0.94804419438E+02  0.80704869325E+02 0.  0.
        -11    1    4    4    0    0 -0.23342368116E+02  0.36969943848E+02  0.43064018294E+02  0.61368987030E+02  0.00000000000E+00 0.  1.
         12    1    4    4    0    0 -0.11508053670E+02 -0.35158266753E+01 -0.31195060567E+02  0.33435432408E+02  0.00000000000E+00 0. -1.
        -13    1    3    3    0    0 -0.28625885704E+02 -0.36328457836E+02  0.34248673840E+02  0.57551453855E+02  0.00000000000E+00 0.  1.
         13    1    3    3    0    0  0.12600038376E+02  0.46091080667E+02  0.23723501297E+02  0.53347476022E+02  0.00000000000E+00 0. -1.
         21    1    1    2  502  501  0.50876269114E+02 -0.43216740004E+02  0.16975610868E+03  0.18240947840E+03  0.00000000000E+00 0.  1.
<scales pt_clust_5="13000.00000" pt_clust_6="13000.00000" pt_clust_7="13000.00000" pt_clust_8="13000.00000" pt_clust_9="66.75389"></scales>
<clustering>
<clus scale="   66.754">  1  9  2 -1</clus>
<clus scale="   80.705">  5  6 -1 -1</clus>
<clus scale="   83.801">  2  5  1 -1</clus>
<clus scale="   92.659">  7  8 -1 -1</clus>
<clus scale="   83.801">  2  5  1 -1</clus>
</clustering>
</event>
<event>
 9    2  0.6066854E-005  0.1119706E+03  0.7546771E-02  0.1259209E+00
         -1   -1    0    0    0  501 -0.00000000000E+00  0.00000000000E+00  0.93592017972E+02  0.93592017972E+02  0.00000000000E+00 0.  1.
          2   -1    0    0  502    0  0.00000000000E+00 -0.00000000000E+00 -0.36614849545E+03  0.36614849545E+03  0.00000000000E+00 0. -1.
         23    2    1    2    0    0  0.68077538389E+02  0.90355601512E+01  0.15264490067E+02  0.11519134685E+03  0.91213207108E+02 0.  0.
         24    2    1    2    0    0  0.65605517019E+01 -0.27209543688E+02 -0.22029327467E+03  0.24226951330E+03  0.96860673665E+02 0.  0.
        -11    1    4    4    0    0 -0.72851119548E+00  0.35714792092E+02 -0.10214478215E+03  0.10821106054E+03  0.00000000000E+00 0.  1.
         12    1    4    4    0    0  0.72890628974E+01 -0.62924335780E+02 -0.11814849252E+03  0.13405845276E+03  0.00000000000E+00 0. -1.
        -13    1    3    3    0    0  0.81933763847E+02 -0.15126442422E+02 -0.22967234141E+00  0.83318687387E+02  0.00000000000E+00 0.  1.
         13    1    3    3    0    0 -0.13856225458E+02  0.24162002573E+02  0.15494162409E+02  0.31872659460E+02  0.00000000000E+00 0. -1.
         21    1    1    2  502  501 -0.74638090090E+02  0.18173983537E+02 -0.67527692881E+02  0.10227965328E+03  0.00000000000E+00 0. -1.
<scales pt_clust_5="13000.00000" pt_clust_6="13000.00000" pt_clust_7="13000.00000" pt_clust_8="13000.00000" pt_clust_9="76.81887"></scales>
<clustering>
<clus scale="   76.819">  2  9  1 -1</clus>
<clus scale="   91.213">  7  8 -1 -1</clus>
<clus scale="   96.861">  5  6 -1 -1</clus>
<clus scale="  107.123">  1  7  2 -1</clus>
<clus scale="   76.819">  2  5  1 -1</clus>
</clustering>
</event>
<event>
 9    2  0.6066854E-005  0.1070417E+03  0.7546771E-02  0.1271043E+00
         -1   -1    0    0    0  501 -0.00000000000E+00  0.00000000000E+00  0.10239862327E+03  0.10239862327E+03  0.00000000000E+00 0.  1.
          2   -1    0    0  502    0  0.00000000000E+00 -0.00000000000E+00 -0.10680208732E+04  0.10680208732E+04  0.00000000000E+00 0. -1.
         23    2    1    2    0    0 -0.59498439853E+02 -0.33570971118E+02 -0.38667870695E+02  0.12024401353E+03  0.91084269325E+02 0.  0.
         24    2    1    2    0    0  0.38948900887E+02  0.39773900284E+02 -0.98423429572E+03  0.98900564788E+03  0.79473534304E+02 0.  0.
        -13    1    4    4    0    0  0.30519227629E+02 -0.69251375968E+01 -0.14073339430E+03  0.14417097162E+03  0.00000000000E+00 0.  1.
         14    1    4    4    0    0  0.84296732584E+01  0.46699037881E+02 -0.84350090142E+03  0.84483467626E+03  0.00000000000E+00 0. -1.
        -11    1    3    3    0    0 -0.41031884777E+02 -0.21050955208E+02  0.25227135713E+02  0.52565831676E+02  0.00000000000E+00 0.  1.
         11    1    3    3    0    0 -0.18466555076E+02 -0.12520015910E+02 -0.63895006409E+02  0.67678181851E+02  0.00000000000E+00 0. -1.
         21    1    1    2  502  501  0.20549538966E+02 -0.62029291664E+01  0.57279916513E+02  0.61169835031E+02  0.00000000000E+00 0.  1.
<scales pt_clust_5="13000.00000" pt_clust_6="13000.00000" pt_clust_7="13000.00000" pt_clust_8="13000.00000" pt_clust_9="21.46532"></scales>
<clustering>
<clus scale="   21.465">  1  9  2 -1</clus>
<clus scale="   79.474">  5  6 -1 -1</clus>
<clus scale="   91.084">  7  8 -1 -1</clus>
<clus scale="   97.353">  2  5  1 -1</clus>
<clus scale="   97.353">  2  5  1 -1</clus>
</clustering>
</event>
<event>
 9    2  0.6066854E-005  0.3584415E+03  0.7546771E-02  0.1078105E+00
          2   -1    0    0  502    0  0.00000000000E+00  0.00000000000E+00  0.26014834004E+04  0.26014834004E+04  0.00000000000E+00 0. -1.
         -1   -1    0    0    0  501 -0.00000000000E+00 -0.00000000000E+00 -0.26748841682E+03  0.26748841682E+03  0.00000000000E+00 0.  1.
         23    2    1    2    0    0 -0.38224863609E+03 -0.12731222790E+02 -0.24782831468E+02  0.39378066490E+03  0.90404200591E+02 0.  0.
         24    2    1    2    0    0  0.12144798044E+03  0.15443058316E+03  0.19920192479E+04  0.20033781202E+04  0.82369845542E+02 0.  0.
        -13    1    4    4    0    0  0.37590659734E+02  0.66661717218E+01  0.22566929723E+03  0.22887579002E+03  0.00000000000E+00 0.  1.
         14    1    4    4    0    0  0.83857320708E+02  0.14776441144E+03  0.17663499506E+04  0.17745023301E+04  0.00000000000E+00 0. -1.
        -13    1    3    3    0    0 -0.36968857982E+02  0.81531089355E+01  0.23437406973E+02  0.44525068123E+02  0.00000000000E+00 0. -1.
         13    1    3    3    0    0 -0.34527977811E+03 -0.20884331725E+02 -0.48220238441E+02  0.34925559678E+03  0.00000000000E+00 0.  1.
         21    1    1    2  502  501  0.26080065565E+03 -0.14169936037E+03  0.36675856718E+03  0.47181303216E+03  0.00000000000E+00 0. -1.
<scales pt_clust_5="13000.00000" pt_clust_6="13000.00000" pt_clust_7="13000.00000" pt_clust_8="13000.00000" pt_clust_9="346.85357"></scales>
<clustering>
<clus scale="   82.370">  5  6 -1 -1</clus>
<clus scale="   90.404">  7  8 -1 -1</clus>
<clus scale="  213.033">  1  5  2 -1</clus>
<clus scale="  346.854">  1  9  2 -1</clus>
<clus scale="  213.033">  1  5  2 -1</clus>
</clustering>
</event>
<event>
 9    2  0.6066854E-005  0.1466846E+03  0.7546771E-02  0.1227484E+00
          2   -1    0    0  502    0  0.00000000000E+00  0.00000000000E+00  0.36243797015E+03  0.36243797015E+03  0.00000000000E+00 0. -1.
         -1   -1    0    0    0  501 -0.00000000000E+00 -0.00000000000E+00 -0.11334609079E+03  0.11334609079E+03  0.00000000000E+00 0.  1.
         23    2    1    2    0    0 -0.23246918727E+02  0.74481283314E+02  0.26661316035E+02  0.14514905675E+03  0.11945518870E+03 0.  0.
         24    2    1    2    0    0  0.37185411183E+02  0.16440793406E+02  0.22083514250E+03  0.23863690110E+03  0.80785864523E+02 0.  0.
        -13    1    4    4    0    0  0.12129768832E+01 -0.27747950093E+02  0.37593525299E+02  0.46740701660E+02  0.00000000000E+00 0.  1.
         14    1    4    4    0    0  0.35972434300E+02  0.44188743499E+02  0.18324161721E+03  0.19189619943E+03  0.00000000000E+00 0. -1.
        -11    1    3    3    0    0  0.10361565059E+02  0.68191019109E+02 -0.32940599046E+02  0.76435987487E+02  0.00000000000E+00 0.  1.
         11    1    3    3    0    0 -0.33608483786E+02  0.62902642053E+01  0.59601915081E+02  0.68713069262E+02  0.00000000000E+00 0. -1.
         21    1    1    2  502  501 -0.13938492457E+02 -0.90922076720E+02  0.15954208231E+01  0.91998103103E+02  0.00000000000E+00 0. -1.
<scales pt_clust_5="13000.00000" pt_clust_6="13000.00000" pt_clust_7="13000.00000" pt_clust_8="13000.00000" pt_clust_9="85.12830"></scales>
<clustering>
<clus scale="   80.786">  5  6 -1 -1</clus>
<clus scale="   90.440">  1  5  2 -1</clus>
<clus scale="   85.128">  2  9  1 -1</clus>
<clus scale="  119.455">  7  8 -1 -1</clus>
<clus scale="   90.440">  1  5  2 -1</clus>
</clustering>
</event>
<event>
 9    2  0.6066854E-005  0.1464233E+03  0.7546771E-02  0.1206800E+00
          2   -1    0    0  502    0  0.00000000000E+00  0.00000000000E+00  0.31108062234E+03  0.31108062234E+03  0.00000000000E+00 0. -1.
         -1   -1    0    0    0  501 -0.00000000000E+00 -0.00000000000E+00 -0.10402283342E+03  0.10402283342E+03  0.00000000000E+00 0.  1.
         24    2    1    2    0    0  0.11266723841E+03 -0.19036217837E+02  0.13114506070E+01  0.14019974050E+03  0.81227847036E+02 0.  0.
         23    2    1    2    0    0 -0.10810666734E+03  0.40967489641E+02  0.20528593956E+03  0.25249854937E+03  0.90817474764E+02 0.  0.
        -11    1    3    3    0    0  0.68052610678E+02 -0.49288158365E+02 -0.11456842402E+02  0.84804124976E+02  0.00000000000E+00 0.  1.
         12    1    3    3    0    0  0.44614627732E+02  0.30251940528E+02  0.12768293009E+02  0.55395615528E+02  0.00000000000E+00 0. -1.
        -11    1    4    4    0    0 -0.30695798820E+02 -0.11474910848E+02  0.12510360485E+03  0.12932446633E+03  0.00000000000E+00 0. -1.
         11    1    4    4    0    0 -0.77410868519E+02  0.52442400490E+02  0.80182334707E+02  0.12317408304E+03  0.00000000000E+00 0.  1.
         21    1    1    2  502  501 -0.45605710712E+01 -0.21931271804E+02  0.46039875835E+00  0.22405165888E+02  0.00000000000E+00 0.  1.
<scales pt_clust_5="13000.00000" pt_clust_6="13000.00000" pt_clust_7="13000.00000" pt_clust_8="13000.00000" pt_clust_9="22.40044"></scales>
<clustering>
<clus scale="   22.400">  2  9  1 -1</clus>
<clus scale="   81.228">  5  6 -1 -1</clus>
<clus scale="   90.817">  7  8 -1 -1</clus>
<clus scale="  140.677">  2  5  1 -1</clus>
<clus scale="  146.423">  1  5  2 -1</clus>
</clustering>
</event>
<event>
 9    2  0.6066854E-005  0.9980816E+02  0.7546771E-02  0.1285538E+00
          2   -1    0    0  502    0  0.00000000000E+00  0.00000000000E+00  0.50321121204E+03  0.50321121204E+03  0.00000000000E+00 0. -1.
         -1   -1    0    0    0  501 -0.00000000000E+00 -0.00000000000E+00 -0.31154507836E+02  0.31154507836E+02  0.00000000000E+00 0.  1.
         23    2    1    2    0    0  0.62415933296E+02  0.25737575969E+02  0.22012990063E+03  0.24795168109E+03  0.92003757841E+02 0.  0.
         24    2    1    2    0    0 -0.12036502229E+02 -0.13939945327E+02  0.15954142813E+03  0.18052575446E+03  0.82443200265E+02 0.  0.
        -13    1    4    4    0    0  0.20860769284E+02 -0.26912931042E+02  0.27317293364E+02  0.43654462190E+02  0.00000000000E+00 0.  1.
         14    1    4    4    0    0 -0.32897271512E+02  0.12972985715E+02  0.13222413477E+03  0.13687129227E+03  0.00000000000E+00 0. -1.
        -11    1    3    3    0    0  0.22285609520E+02 -0.34783232926E+02  0.73029080814E+02  0.83903327282E+02  0.00000000000E+00 0.  1.
         11    1    3    3    0    0  0.40130323776E+02  0.60520808895E+02  0.14710081982E+03  0.16404835381E+03  0.00000000000E+00 0. -1.
         21    1    1    2  502  501 -0.50379431068E+02 -0.11797630642E+02  0.92385375441E+02  0.10588828433E+03  0.00000000000E+00 0.  1.
<scales pt_clust_5="13000.00000" pt_clust_6="13000.00000" pt_clust_7="13000.00000" pt_clust_8="13000.00000" pt_clust_9="51.74235"></scales>
<clustering>
<clus scale="   51.742">  2  9  1 -1</clus>
<clus scale="   82.443">  5  6 -1 -1</clus>
<clus scale="   91.071">  1  5  2 -1</clus>
<clus scale="   92.004">  7  8 -1 -1</clus>
<clus scale="   91.071">  1  5  2 -1</clus>
</clustering>
</event>
<event>
 9    2  0.6066854E-005  0.1813830E+03  0.7546771E-02  0.1170066E+00
          2   -1    0    0  502    0  0.00000000000E+00  0.00000000000E+00  0.11822672483E+04  0.11822672483E+04  0.00000000000E+00 0. -1.
         -1   -1    0    0    0  501 -0.00000000000E+00 -0.00000000000E+00 -0.10443834370E+03  0.10443834370E+03  0.00000000000E+00 0.  1.
         23    2    1    2    0    0  0.17632057587E+03  0.37127684948E+02  0.15163082614E+03  0.25381634638E+03  0.94675338855E+02 0.  0.
         24    2    1    2    0    0 -0.14929916594E+03 -0.24531491849E+02  0.96787396348E+03  0.98164766026E+03  0.62929203552E+02 0.  0.
        -13    1    4    4    0    0 -0.78746201635E+02  0.47200654008E+00  0.32377149492E+03  0.33321039597E+03  0.00000000000E+00 0.  1.
         14    1    4    4    0    0 -0.70552964300E+02 -0.25003498389E+02  0.64410246856E+03  0.64843726428E+03  0.00000000000E+00 0. -1.
        -11    1    3    3    0    0  0.37549509437E+02  0.42734040329E+02  0.14645076826E+02  0.58742166601E+02  0.00000000000E+00 0. -1.
         11    1    3    3    0    0  0.13877106643E+03 -0.56063553808E+01  0.13698574932E+03  0.19507417978E+03  0.00000000000E+00 0.  1.
         21    1    1    2  502  501 -0.27021409930E+02 -0.12596193099E+02 -0.41675885048E+02  0.51241585355E+02  0.00000000000E+00 0. -1.
<scales pt_clust_5="13000.00000" pt_clust_6="13000.00000" pt_clust_7="13000.00000" pt_clust_8="13000.00000" pt_clust_9="29.81310"></scales>
<clustering>
<clus scale="   29.813">  2  9  1 -1</clus>
<clus scale="   62.929">  5  6 -1 -1</clus>
<clus scale="   94.675">  7  8 -1 -1</clus>
<clus scale="  167.022">  1  5  2 -1</clus>
<clus scale="  167.022">  1  5  2 -1</clus>
</clustering>
</event>
<event>
 9    2  0.6066854E-005  0.1095694E+03  0.7546771E-02  0.1271221E+00
         -1   -1    0    0    0  501 -0.00000000000E+00  0.00000000000E+00  0.26925152736E+02  0.26925152736E+02  0.00000000000E+00 0.  1.
          2   -1    0    0  502    0  0.00000000000E+00 -0.00000000000E+00 -0.97534887783E+03  0.97534887783E+03  0.00000000000E+00 0. -1.
         23    2    1    2    0    0  0.19831487530E+02 -0.29881312150E+02 -0.12490715234E+03  0.16516198995E+03  0.10193382904E+03 0.  0.
         24    2    1    2    0    0  0.42687199295E+00  0.41465767910E+02 -0.79530993450E+03  0.80050309106E+03  0.81041438591E+02 0.  0.
        -11    1    4    4    0    0  0.90925868282E+01  0.19554155069E+02 -0.45800602368E+02  0.50623465833E+02  0.00000000000E+00 0.  1.
         12    1    4    4    0    0 -0.86657148353E+01  0.21911612840E+02 -0.74950933213E+03  0.74987962523E+03  0.00000000000E+00 0. -1.
        -11    1    3    3    0    0 -0.21755202833E+01  0.37299970661E+02 -0.42787932825E+02  0.56805174899E+02  0.00000000000E+00 0. -1.
         11    1    3    3    0    0  0.22007007813E+02 -0.67181282811E+02 -0.82119219516E+02  0.10835681505E+03  0.00000000000E+00 0.  1.
         21    1    1    2  502  501 -0.20258359523E+02 -0.11584455760E+02 -0.28206638254E+02  0.36608949553E+02  0.00000000000E+00 0.  1.
<scales pt_clust_5="13000.00000" pt_clust_6="13000.00000" pt_clust_7="13000.00000" pt_clust_8="13000.00000" pt_clust_9="23.33668"></scales>
<clustering>
<clus scale="   23.337">  1  9  2 -1</clus>
<clus scale="   81.041">  5  6 -1 -1</clus>
<clus scale="   90.458">  2  5  1 -1</clus>
<clus scale="  101.934">  7  8 -1 -1</clus>
<clus scale="   90.458">  2  5  1 -1</clus>
</clustering>
</event>
<event>
 9    2  0.6066854E-005  0.1289242E+03  0.7546771E-02  0.1232489E+00
          2   -1    0    0  502    0  0.00000000000E+00  0.00000000000E+00  0.27752803863E+03  0.27752803863E+03  0.00000000000E+00 0. -1.
         -1   -1    0    0    0  501 -0.00000000000E+00 -0.00000000000E+00 -0.29795241637E+03  0.29795241637E+03  0.00000000000E+00 0.  1.
         23    2    1    2    0    0 -0.73008683996E+02 -0.10656766677E+02 -0.19506688967E+03  0.22827020312E+03  0.92802799389E+02 0.  0.
         24    2    1    2    0    0  0.81940643476E+02  0.39021437749E+02  0.24364797671E+03  0.27206979249E+03  0.80129231711E+02 0.  0.
        -13    1    4    4    0    0  0.33876011339E+01  0.21483772948E+02  0.81981791759E+01  0.23243030855E+02  0.00000000000E+00 0.  1.
         14    1    4    4    0    0  0.78553042342E+02  0.17537664801E+02  0.23544979753E+03  0.24882676164E+03  0.00000000000E+00 0. -1.
        -11    1    3    3    0    0 -0.16430825129E+02 -0.46446749642E+02 -0.10560656848E+03  0.11653334232E+03  0.00000000000E+00 0.  1.
         11    1    3    3    0    0 -0.56577858868E+02  0.35789982965E+02 -0.89460321190E+02  0.11173686080E+03  0.00000000000E+00 0. -1.
         21    1    1    2  502  501 -0.89319594795E+01 -0.28364671072E+02 -0.69005464786E+02  0.75140459378E+02  0.00000000000E+00 0.  1.
<scales pt_clust_5="13000.00000" pt_clust_6="13000.00000" pt_clust_7="13000.00000" pt_clust_8="13000.00000" pt_clust_9="29.73776"></scales>
<clustering>
<clus scale="   29.738">  2  9  1 -1</clus>
<clus scale="   80.129">  5  6 -1 -1</clus>
<clus scale="   92.803">  7  8 -1 -1</clus>
<clus scale="  120.124">  1  5  2 -1</clus>
<clus scale="  120.124">  1  5  2 -1</clus>
</clustering>
</event>
<event>
 9    2  0.6066854E-005  0.9696098E+02  0.7546771E-02  0.1293459E+00
          2   -1    0    0  502    0  0.00000000000E+00  0.00000000000E+00  0.10764587751E+04  0.10764587751E+04  0.00000000000E+00 0. -1.
         -1   -1    0    0    0  501 -0.00000000000E+00 -0.00000000000E+00 -0.66589187610E+03  0.66589187610E+03  0.00000000000E+00 0.  1.
         23    2    1    2    0    0 -0.54834244973E+02 -0.67627051857E+02  0.25322486869E+02  0.13122946588E+03  0.94866916309E+02 0.  0.
         24    2    1    2    0    0  0.18827885640E+02 -0.16196882006E+01  0.99386109223E+03  0.99752047458E+03  0.83247305605E+02 0.  0.
        -11    1    4    4    0    0 -0.21632099915E+02 -0.18869644614E+02  0.16390256616E+03  0.16639730294E+03  0.00000000000E+00 0.  1.
         12    1    4    4    0    0  0.40459985555E+02  0.17249956413E+02  0.82995852607E+03  0.83112317164E+03  0.00000000000E+00 0. -1.
        -13    1    3    3    0    0 -0.71770046950E+01  0.23799418822E+02 -0.79573083943E+00  0.24870764368E+02  0.00000000000E+00 0. -1.
         13    1    3    3    0    0 -0.47657240278E+02 -0.91426470679E+02  0.26118217709E+02  0.10635870152E+03  0.00000000000E+00 0.  1.
         21    1    1    2  502  501  0.36006359333E+02  0.69246740057E+02 -0.60861668010E+03  0.61360071073E+03  0.00000000000E+00 0. -1.
<scales pt_clust_5="13000.00000" pt_clust_6="13000.00000" pt_clust_7="13000.00000" pt_clust_8="13000.00000" pt_clust_9="78.04850"></scales>
<clustering>
<clus scale="   78.049">  2  9  1 -1</clus>
<clus scale="   83.247">  5  6 -1 -1</clus>
<clus scale="   85.626">  1  5  2 -1</clus>
<clus scale="   94.867">  7  8 -1 -1</clus>
<clus scale="   85.626">  1  5  2 -1</clus>
</clustering>
</event>
<event>
 9    2  0.6066854E-005  0.1091327E+03  0.7546771E-02  0.1266402E+00
          2   -1    0    0  502    0  0.00000000000E+00  0.00000000000E+00  0.83763420327E+03  0.83763420327E+03  0.00000000000E+00 0. -1.
         -1   -1    0    0    0  501 -0.00000000000E+00 -0.00000000000E+00 -0.58924849004E+02  0.58924849004E+02  0.00000000000E+00 0.  1.
         23    2    1    2    0    0 -0.42034401776E+02  0.26341760937E+02  0.92357721639E+02  0.14002746940E+03  0.92827604393E+02 0.  0.
         24    2    1    2    0    0  0.53003131249E+02  0.33831840967E+02  0.68757137538E+03  0.69535427364E+03  0.82518144948E+02 0.  0.
        -11    1    4    4    0    0  0.56882147638E+01 -0.25982365699E+02  0.14087302142E+03  0.14336194502E+03  0.00000000000E+00 0.  1.
         12    1    4    4    0    0  0.47314916486E+02  0.59814206665E+02  0.54669835396E+03  0.55199232863E+03  0.00000000000E+00 0. -1.
        -13    1    3    3    0    0 -0.63897422473E+00  0.51515245615E+02  0.25564860812E+02  0.57513397806E+02  0.00000000000E+00 0. -1.
         13    1    3    3    0    0 -0.41395427551E+02 -0.25173484678E+02  0.66792860827E+02  0.82514071590E+02  0.00000000000E+00 0.  1.
         21    1    1    2  502  501 -0.10968729474E+02 -0.60173601903E+02 -0.12197427573E+01  0.61177309230E+02  0.00000000000E+00 0.  1.
<scales pt_clust_5="13000.00000" pt_clust_6="13000.00000" pt_clust_7="13000.00000" pt_clust_8="13000.00000" pt_clust_9="61.16515"></scales>
<clustering>
<clus scale="   61.165">  2  9  1 -1</clus>
<clus scale="   82.518">  5  6 -1 -1</clus>
<clus scale="   92.828">  7  8 -1 -1</clus>
<clus scale="  100.510">  1  5  2 -1</clus>
<clus scale="  100.510">  1  5  2 -1</clus>
</clustering>
</event>
<event>
 9    2  0.6066854E-005  0.1332718E+03  0.7546771E-02  0.1223340E+00
          2   -1    0    0  502    0  0.00000000000E+00  0.00000000000E+00  0.79572944694E+03  0.79572944694E+03  0.00000000000E+00 0. -1.
         -1   -1    0    0    0  501 -0.00000000000E+00 -0.00000000000E+00 -0.11983303933E+03  0.11983303933E+03  0.00000000000E+00 0.  1.
         23    2    1    2    0    0 -0.15232556586E+03 -0.17462275752E+02  0.22231350680E+02  0.17886833266E+03  0.89395964044E+02 0.  0.
         24    2    1    2    0    0  0.90108612785E+02 -0.31672431686E+02  0.64404920181E+03  0.65683406724E+03  0.86653981548E+02 0.  0.
        -11    1    4    4    0    0  0.14913192912E+02  0.27835016485E+02  0.12010951807E+03  0.12419133544E+03  0.00000000000E+00 0.  1.
         12    1    4    4    0    0  0.75195419874E+02 -0.59507448171E+02  0.52393968373E+03  0.53264273181E+03  0.00000000000E+00 0. -1.
        -13    1    3    3    0    0 -0.13690116820E+03 -0.46344991715E+02  0.21447553646E+02  0.14611565854E+03  0.00000000000E+00 0.  1.
         13    1    3    3    0    0 -0.15424397653E+02  0.28882715963E+02  0.78379703424E+00  0.32752674122E+02  0.00000000000E+00 0. -1.
         21    1    1    2  502  501  0.62216953070E+02  0.49134707437E+02  0.96158551197E+01  0.79860086364E+02  0.00000000000E+00 0. -1.
<scales pt_clust_5="13000.00000" pt_clust_6="13000.00000" pt_clust_7="13000.00000" pt_clust_8="13000.00000" pt_clust_9="79.27906"></scales>
<clustering>
<clus scale="   79.279">  2  9  1 -1</clus>
<clus scale="   86.654">  5  6 -1 -1</clus>
<clus scale="   89.396">  7  8 -1 -1</clus>
<clus scale="  131.448">  1  5  2 -1</clus>
<clus scale="  131.448">  1  5  2 -1</clus>
</clustering>
</event>
<event>
 9    2  0.6066854E-005  0.1104479E+03  0.7546771E-02  0.1264057E+00
         -1   -1    0    0    0  501 -0.00000000000E+00  0.00000000000E+00  0.21832691168E+02  0.21832691168E+02  0.00000000000E+00 0.  1.
          2   -1    0    0  502    0  0.00000000000E+00 -0.00000000000E+00 -0.67948650999E+03  0.67948650999E+03  0.00000000000E+00 0. -1.
         23    2    1    2    0    0  0.46738462522E+02 -0.63223063769E+02 -0.29543093717E+03  0.31885442870E+03  0.90592871630E+02 0.  0.
         24    2    1    2    0    0 -0.27059434401E+02  0.46243508439E+02 -0.30303531764E+03  0.31782161984E+03  0.79432381557E+02 0.  0.
        -11    1    4    4    0    0  0.27224709375E+02  0.24656044673E+02 -0.99265353014E+02  0.10584288190E+03  0.00000000000E+00 0.  1.
         12    1    4    4    0    0 -0.54284143775E+02  0.21587463766E+02 -0.20376996462E+03  0.21197873794E+03  0.00000000000E+00 0. -1.
        -11    1    3    3    0    0 -0.24322040437E+02 -0.14263521127E+02 -0.12104353314E+03  0.12428413656E+03  0.00000000000E+00 0. -1.
         11    1    3    3    0    0  0.71060502959E+02 -0.48959542641E+02 -0.17438740403E+03  0.19457029213E+03  0.00000000000E+00 0.  1.
         21    1    1    2  502  501 -0.19679028121E+02  0.16979555329E+02 -0.59187564015E+02  0.64643152623E+02  0.00000000000E+00 0. -1.
<scales pt_clust_5="13000.00000" pt_clust_6="13000.00000" pt_clust_7="13000.00000" pt_clust_8="13000.00000" pt_clust_9="25.99172"></scales>
<clustering>
<clus scale="   25.992">  1  9  2 -1</clus>
<clus scale="   79.432">  5  6 -1 -1</clus>
<clus scale="   90.593">  7  8 -1 -1</clus>
<clus scale="  101.495">  2  5  1 -1</clus>
<clus scale="  101.495">  2  5  1 -1</clus>
</clustering>
</event>
<event>
 9    2  0.6066854E-005  0.9800515E+02  0.7546771E-02  0.1290009E+00
         -3   -1    0    0    0  501 -0.00000000000E+00  0.00000000000E+00  0.32006169930E+03  0.32006169930E+03  0.00000000000E+00 0.  1.
          4   -1    0    0  502    0  0.00000000000E+00 -0.00000000000E+00 -0.16513721640E+03  0.16513721640E+03  0.00000000000E+00 0. -1.
         23    2    1    2    0    0  0.82954908992E+01  0.35341890974E+02  0.12156551842E+03  0.15588303256E+03  0.90573065224E+02 0.  0.
         24    2    1    2    0    0  0.33600106177E+02 -0.21384023438E+02 -0.13127238472E+03  0.15886488063E+03  0.80120956760E+02 0.  0.
        -13    1    4    4    0    0  0.28028477911E+02 -0.33523280910E+02 -0.22264920776E+02  0.49042151606E+02  0.00000000000E+00 0.  1.
         14    1    4    4    0    0  0.55716282654E+01  0.12139257472E+02 -0.10900746394E+03  0.10982272902E+03  0.00000000000E+00 0. -1.
        -11    1    3    3    0    0 -0.14165570907E+02 -0.15278373588E+02  0.89493445085E+02  0.91886717276E+02  0.00000000000E+00 0.  1.
         11    1    3    3    0    0  0.22461061806E+02  0.50620264562E+02  0.32072073335E+02  0.63996315282E+02  0.00000000000E+00 0. -1.
         21    1    1    2  502  501 -0.41895597076E+02 -0.13957867537E+02  0.16463134920E+03  0.17045100252E+03  0.00000000000E+00 0.  1.
<scales pt_clust_5="13000.00000" pt_clust_6="13000.00000" pt_clust_7="13000.00000" pt_clust_8="13000.00000" pt_clust_9="44.15952"></scales>
<clustering>
<clus scale="   44.160">  1  9  2 -1</clus>
<clus scale="   80.121">  5  6 -1 -1</clus>
<clus scale="   88.436">  2  5  1 -1</clus>
<clus scale="   90.573">  7  8 -1 -1</clus>
<clus scale="   88.436">  2  5  1 -1</clus>
</clustering>
</event>
<event>
 9    2  0.6066854E-005  0.9824167E+02  0.7546771E-02  0.1289861E+00
          2   -1    0    0  502    0  0.00000000000E+00  0.00000000000E+00  0.91752467804E+03  0.91752467804E+03  0.00000000000E+00 0. -1.
         -1   -1    0    0    0  501 -0.00000000000E+00 -0.00000000000E+00 -0.16229354675E+02  0.16229354675E+02  0.00000000000E+00 0.  1.
         23    2    1    2    0    0  0.43209800325E+02  0.43705449223E+00  0.19032432641E+03  0.21513459451E+03  0.90511141137E+02 0.  0.
         24    2    1    2    0    0 -0.23186419217E+02 -0.69027758627E+01  0.59549994063E+03  0.60124692783E+03  0.79324842145E+02 0.  0.
        -13    1    4    4    0    0 -0.11434876639E+02  0.16877489693E+02  0.38058178788E+02  0.43174425702E+02  0.00000000000E+00 0.  1.
         14    1    4    4    0    0 -0.11751542578E+02 -0.23780265555E+02  0.55744176185E+03  0.55807250213E+03  0.00000000000E+00 0. -1.
        -11    1    3    3    0    0  0.55395681524E+02 -0.21971578770E+02  0.69066303089E+02  0.91222727583E+02  0.00000000000E+00 0.  1.
         11    1    3    3    0    0 -0.12185881200E+02  0.22408633262E+02  0.12125802332E+03  0.12391186692E+03  0.00000000000E+00 0. -1.
         21    1    1    2  502  501 -0.20023381108E+02  0.64657213704E+01  0.11547105632E+03  0.11737251038E+03  0.00000000000E+00 0. -1.
<scales pt_clust_5="13000.00000" pt_clust_6="13000.00000" pt_clust_7="13000.00000" pt_clust_8="13000.00000" pt_clust_9="21.04142"></scales>
<clustering>
<clus scale="   21.041">  1  9  2 -1</clus>
<clus scale="   79.325">  5  6 -1 -1</clus>
<clus scale="   88.043">  1  5  2 -1</clus>
<clus scale="   90.511">  7  8 -1 -1</clus>
<clus scale="   21.041">  1  5  2 -1</clus>
</clustering>
</event>
<event>
 9    2  0.6066854E-005  0.1451090E+03  0.7546771E-02  0.1210234E+00
         -1   -1    0    0    0  501 -0.00000000000E+00  0.00000000000E+00  0.23390695361E+03  0.23390695361E+03  0.00000000000E+00 0.  1.
          2   -1    0    0  502    0  0.00000000000E+00 -0.00000000000E+00 -0.26852454107E+03  0.26852454107E+03  0.00000000000E+00 0. -1.
         23    2    1    2    0    0  0.13704596420E+02 -0.97074943611E+02  0.13934183905E+03  0.19325243305E+03  0.91208520050E+02 0.  0.
         24    2    1    2    0    0 -0.37879638327E+02  0.10836128483E+03 -0.21846208607E+03  0.25729167533E+03  0.72775600983E+02 0.  0.
        -13    1    4    4    0    0 -0.48236052281E+02  0.59794291644E+02 -0.83408847701E+02  0.11339801554E+03  0.00000000000E+00 0.  1.
         14    1    4    4    0    0  0.10356413954E+02  0.48566993185E+02 -0.13505323836E+03  0.14389365980E+03  0.00000000000E+00 0. -1.
        -11    1    3    3    0    0 -0.31040781839E+02 -0.52666736760E+02  0.10490547746E+03  0.12141859206E+03  0.00000000000E+00 0.  1.
         11    1    3    3    0    0  0.44745378259E+02 -0.44408206851E+02  0.34436361597E+02  0.71833840989E+02  0.00000000000E+00 0. -1.
         21    1    1    2  502  501  0.24175041907E+02 -0.11286341218E+02  0.44502659547E+02  0.51887386291E+02  0.00000000000E+00 0.  1.
<scales pt_clust_5="13000.00000" pt_clust_6="13000.00000" pt_clust_7="13000.00000" pt_clust_8="13000.00000" pt_clust_9="26.67985"></scales>
<clustering>
<clus scale="   26.680">  1  9  2 -1</clus>
<clus scale="   72.776">  5  6 -1 -1</clus>
<clus scale="   91.209">  7  8 -1 -1</clus>
<clus scale="  134.290">  2  5  1 -1</clus>
<clus scale="  134.290">  2  5  1 -1</clus>
</clustering>
</event>
<event>
 9    2  0.6066854E-005  0.1436592E+03  0.7546771E-02  0.1209418E+00
         -1   -1    0    0    0  501 -0.00000000000E+00  0.00000000000E+00  0.14580324869E+03  0.14580324869E+03  0.00000000000E+00 0.  1.
          2   -1    0    0  502    0  0.00000000000E+00 -0.00000000000E+00 -0.54981682428E+03  0.54981682428E+03  0.00000000000E+00 0. -1.
         23    2    1    2    0    0  0.61659494061E+02 -0.62177256252E+02  0.76062079593E+02  0.14691550155E+03  0.90171060990E+02 0.  0.
         24    2    1    2    0    0 -0.84187899644E+02  0.70992044768E+02 -0.49792273351E+03  0.51864217365E+03  0.94526096298E+02 0.  0.
        -13    1    4    4    0    0 -0.16139337656E+02  0.73503323732E+02 -0.30153939989E+03  0.31078807330E+03  0.00000000000E+00 0.  1.
         14    1    4    4    0    0 -0.68048561989E+02 -0.25112789649E+01 -0.19638333362E+03  0.20785410035E+03  0.00000000000E+00 0. -1.
        -13    1    3    3    0    0  0.27654138655E+02 -0.79623912192E+02  0.66902506349E+02  0.10761349420E+03  0.00000000000E+00 0. -1.
         13    1    3    3    0    0  0.34005355406E+02  0.17446655940E+02  0.91595732438E+01  0.39302007351E+02  0.00000000000E+00 0.  1.
         21    1    1    2  502  501  0.22528405583E+02 -0.88147885151E+01  0.17847078323E+02  0.30062397765E+02  0.00000000000E+00 0.  1.
<scales pt_clust_5="13000.00000" pt_clust_6="13000.00000" pt_clust_7="13000.00000" pt_clust_8="13000.00000" pt_clust_9="24.19152"></scales>
<clustering>
<clus scale="   24.192">  1  9  2 -1</clus>
<clus scale="   90.171">  7  8 -1 -1</clus>
<clus scale="   94.526">  5  6 -1 -1</clus>
<clus scale="  140.832">  1  7  2 -1</clus>
<clus scale="  143.659">  2  5  1 -1</clus>
</clustering>
</event>
<event>
 9    2  0.6066854E-005  0.1610942E+03  0.7546771E-02  0.1189144E+00
          2   -1    0    0  502    0  0.00000000000E+00  0.00000000000E+00  0.10786774267E+04  0.10786774267E+04  0.00000000000E+00 0. -1.
         -1   -1    0    0    0  501 -0.00000000000E+00 -0.00000000000E+00 -0.73809267289E+02  0.73809267289E+02  0.00000000000E+00 0.  1.
         23    2    1    2    0    0 -0.70427720100E+02  0.75652149195E+02  0.13410918892E+02  0.13787210125E+03  0.90252712537E+02 0.  0.
         24    2    1    2    0    0  0.98586763056E+02 -0.94618088498E+02  0.93853531966E+03  0.95173877655E+03  0.79285686065E+02 0.  0.
        -13    1    4    4    0    0  0.25800001108E+02  0.67531454735E+01  0.83808723896E+02  0.87949685798E+02  0.00000000000E+00 0.  1.
         14    1    4    4    0    0  0.72786761948E+02 -0.10137123397E+03  0.85472659577E+03  0.86378909075E+03  0.00000000000E+00 0. -1.
        -13    1    3    3    0    0 -0.69552453056E+02  0.85412725616E+01  0.54883496692E+01  0.70289537238E+02  0.00000000000E+00 0. -1.
         13    1    3    3    0    0 -0.87526704416E+00  0.67110876633E+02  0.79225692225E+01  0.67582564008E+02  0.00000000000E+00 0.  1.
         21    1    1    2  502  501 -0.28159042956E+02  0.18965939303E+02  0.52921920823E+02  0.62875816157E+02  0.00000000000E+00 0. -1.
<scales pt_clust_5="13000.00000" pt_clust_6="13000.00000" pt_clust_7="13000.00000" pt_clust_8="13000.00000" pt_clust_9="33.95053"></scales>
<clustering>
<clus scale="   33.951">  2  9  1 -1</clus>
<clus scale="   79.286">  5  6 -1 -1</clus>
<clus scale="   90.253">  7  8 -1 -1</clus>
<clus scale="  155.216">  1  5  2 -1</clus>
<clus scale="  155.216">  1  5  2 -1</clus>
</clustering>
</event>
<event>
 9    2  0.6066854E-005  0.9893243E+02  0.7546771E-02  0.1283262E+00
         -1   -1    0    0    0  501 -0.00000000000E+00  0.00000000000E+00  0.21044513719E+02  0.21044513719E+02  0.00000000000E+00 0.  1.
          2   -1    0    0  502    0  0.00000000000E+00 -0.00000000000E+00 -0.17036930941E+04  0.17036930941E+04  0.00000000000E+00 0. -1.
         23    2    1    2    0    0  0.13074982400E+01  0.21794948023E+02 -0.13323239970E+03  0.16565708229E+03  0.95993058462E+02 0.  0.
         24    2    1    2    0    0 -0.20036701992E+02 -0.14705302951E+02 -0.15219319307E+04  0.15250742006E+04  0.94640372981E+02 0.  0.
        -11    1    4    4    0    0 -0.25035595554E+02  0.14747175943E+02 -0.14841913814E+03  0.15123657233E+03  0.00000000000E+00 0.  1.
         12    1    4    4    0    0  0.49988935612E+01 -0.29452478894E+02 -0.13735127926E+04  0.13738376282E+04  0.00000000000E+00 0. -1.
        -13    1    3    3    0    0  0.29645378986E+02  0.47354303049E+02 -0.53934617703E+02  0.77654500830E+02  0.00000000000E+00 0.  1.
         13    1    3    3    0    0 -0.28337880746E+02 -0.25559355025E+02 -0.79297781995E+02  0.88002581461E+02  0.00000000000E+00 0. -1.
         21    1    1    2  502  501  0.18729203752E+02 -0.70896450723E+01 -0.27484250016E+02  0.34006324991E+02  0.00000000000E+00 0.  1.
<scales pt_clust_5="13000.00000" pt_clust_6="13000.00000" pt_clust_7="13000.00000" pt_clust_8="13000.00000" pt_clust_9="20.02614"></scales>
<clustering>
<clus scale="   20.026">  1  9  2 -1</clus>
<clus scale="   94.640">  5  6 -1 -1</clus>
<clus scale="   95.993">  7  8 -1 -1</clus>
<clus scale="   97.620">  2  5  1 -1</clus>
<clus scale="   97.620">  2  5  1 -1</clus>
</clustering>
</event>
<event>
 9    2  0.6066854E-005  0.9337997E+02  0.7546771E-02  0.1304276E+00
         -1   -1    0    0    0  501 -0.00000000000E+00  0.00000000000E+00  0.18446618715E+02  0.18446618715E+02  0.00000000000E+00 0.  1.
          2   -1    0    0  502    0  0.00000000000E+00 -0.00000000000E+00 -0.74413485980E+03  0.74413485980E+03  0.00000000000E+00 0. -1.
         23    2    1    2    0    0 -0.11843073721E+02 -0.15460859288E+02 -0.18975130745E+03  0.21206210166E+03  0.92657863766E+02 0.  0.
         24    2    1    2    0    0  0.10106866589E+02 -0.10620963462E+02 -0.49930267335E+03  0.50551554457E+03  0.77639246347E+02 0.  0.
        -13    1    4    4    0    0  0.35818819372E+02  0.17865456887E+02 -0.22348803644E+03  0.22704419130E+03  0.00000000000E+00 0.  1.
         14    1    4    4    0    0 -0.25711952784E+02 -0.28486420349E+02 -0.27581463691E+03  0.27847135327E+03  0.00000000000E+00 0. -1.
        -13    1    3    3    0    0  0.28289657723E+02  0.24814662551E+02 -0.82299976477E+02  0.90495073566E+02  0.00000000000E+00 0.  1.
         13    1    3    3    0    0 -0.40132731443E+02 -0.40275521839E+02 -0.10745133097E+03  0.12156702810E+03  0.00000000000E+00 0. -1.
         21    1    1    2  502  501  0.17362071320E+01  0.26081822750E+02 -0.36634260284E+02  0.45003832278E+02  0.00000000000E+00 0.  1.
<scales pt_clust_5="13000.00000" pt_clust_6="13000.00000" pt_clust_7="13000.00000" pt_clust_8="13000.00000" pt_clust_9="26.13955"></scales>
<clustering>
<clus scale="   26.140">  1  9  2 -1</clus>
<clus scale="   77.639">  5  6 -1 -1</clus>
<clus scale="   78.500">  2  5  1 -1</clus>
<clus scale="   92.658">  7  8 -1 -1</clus>
<clus scale="   78.500">  2  5  1 -1</clus>
</clustering>
</event>
<event>
 9    2  0.6418483E-005  0.1037483E+03  0.7546771E-02  0.1277818E+00
          2   -1    0    0  502    0  0.00000000000E+00  0.00000000000E+00  0.51737368634E+03  0.51737368634E+03  0.00000000000E+00 0. -1.
         -1   -1    0    0    0  501 -0.00000000000E+00 -0.00000000000E+00 -0.21111608868E+03  0.21111608868E+03  0.00000000000E+00 0.  1.
         23    2    1    2    0    0  0.62687438081E+02  0.22275693983E+02 -0.17994134556E+03  0.21281493856E+03  0.92116170128E+02 0.  0.
         24    2    1    2    0    0 -0.39613668976E+02 -0.25924668840E+02  0.48311197034E+03  0.49211123656E+03  0.80839112064E+02 0.  0.
        -13    1    4    4    0    0  0.21480228876E+02  0.58035316725E+01  0.74895612442E+02  0.78130877222E+02  0.00000000000E+00 0.  1.
         14    1    4    4    0    0 -0.61093897852E+02 -0.31728200513E+02  0.40821635790E+03  0.41398035934E+03  0.00000000000E+00 0. -1.
        -13    1    3    3    0    0  0.90430131773E+01  0.43689342764E+02 -0.12645043011E+03  0.13409043975E+03  0.00000000000E+00 0.  1.
         13    1    3    3    0    0  0.53644424904E+02 -0.21413648781E+02 -0.53490915449E+02  0.78724498810E+02  0.00000000000E+00 0. -1.
         21    1    1    2  502  501 -0.23073769105E+02  0.36489748573E+01  0.30869728789E+01  0.23563599890E+02  0.00000000000E+00 0. -1.
<scales pt_clust_5="13000.00000" pt_clust_6="13000.00000" pt_clust_7="13000.00000" pt_clust_8="13000.00000" pt_clust_9="23.36052"></scales>
<clustering>
<clus scale="   23.361">  2  9  1 -1</clus>
<clus scale="   80.839">  5  6 -1 -1</clus>
<clus scale="   92.116">  7  8 -1 -1</clus>
<clus scale="   93.879">  1  5  2 -1</clus>
<clus scale="   93.879">  1  5  2 -1</clus>
</clustering>
</event>
<event>
 9    2  0.6607128E-005  0.9337449E+02  0.7546771E-02  0.1304074E+00
          2   -1    0    0  502    0  0.00000000000E+00  0.00000000000E+00  0.61058540351E+02  0.61058540351E+02  0.00000000000E+00 0. -1.
         -1   -1    0    0    0  501 -0.00000000000E+00 -0.00000000000E+00 -0.59874138831E+03  0.59874138831E+03  0.00000000000E+00 0.  1.
         24    2    1    2    0    0  0.17814826312E+02 -0.34692684249E+02 -0.45047502562E+03  0.45839058194E+03  0.75320824010E+02 0.  0.
         23    2    1    2    0    0 -0.18796516683E+02 -0.18393057589E+02  0.57318893151E+01  0.94372672140E+02  0.90452932981E+02 0.  0.
        -13    1    3    3    0    0  0.37306046114E+02 -0.48213139111E+02 -0.33562351528E+03  0.34111492473E+03  0.00000000000E+00 0.  1.
         14    1    3    3    0    0 -0.19491219801E+02  0.13520454862E+02 -0.11485151034E+03  0.11727565722E+03  0.00000000000E+00 0. -1.
        -11    1    4    4    0    0  0.74952241122E+01 -0.50815610855E+02  0.10275540427E+02  0.52383121538E+02  0.00000000000E+00 0.  1.
         11    1    4    4    0    0 -0.26291740795E+02  0.32422553266E+02 -0.45436511118E+01  0.41989550602E+02  0.00000000000E+00 0. -1.
         21    1    1    2  502  501  0.98169037075E+00  0.53085741837E+02 -0.92939711657E+02  0.10703667458E+03  0.00000000000E+00 0. -1.
<scales pt_clust_5="13000.00000" pt_clust_6="13000.00000" pt_clust_7="13000.00000" pt_clust_8="13000.00000" pt_clust_9="53.09482"></scales>
<clustering>
<clus scale="   53.095">  2  9  1 -1</clus>
<clus scale="   75.321">  5  6 -1 -1</clus>
<clus scale="   78.805">  2  5  1 -1</clus>
<clus scale="   90.453">  7  8 -1 -1</clus>
<clus scale="   93.374">  1  5  2 -1</clus>
</clustering>
</event>
<event>
 9    2  0.6066854E-005  0.9430803E+02  0.7546771E-02  0.1297330E+00
          2   -1    0    0  502    0  0.00000000000E+00  0.00000000000E+00  0.33553622990E+03  0.33553622990E+03  0.00000000000E+00 0. -1.
         -1   -1    0    0    0  501 -0.00000000000E+00 -0.00000000000E+00 -0.44125448631E+02  0.44125448631E+02  0.00000000000E+00 0.  1.
         23    2    1    2    0    0  0.20209395821E+01 -0.43762712975E+02  0.12655687244E+03  0.16086916308E+03  0.89123433650E+02 0.  0.
         24    2    1    2    0    0  0.11008785129E+00  0.23629183270E+02  0.17638256506E+03  0.19549422773E+03  0.80924862667E+02 0.  0.
        -13    1    4    4    0    0  0.28382257035E+02 -0.18027929209E+02  0.79303644261E+02  0.86137255233E+02  0.00000000000E+00 0.  1.
         14    1    4    4    0    0 -0.28272169184E+02  0.41657112478E+02  0.97078920794E+02  0.10935697249E+03  0.00000000000E+00 0. -1.
        -13    1    3    3    0    0  0.21675483605E+02 -0.11095855575E+02 -0.41627088399E+01  0.24703699021E+02  0.00000000000E+00 0.  1.
         13    1    3    3    0    0 -0.19654544023E+02 -0.32666857401E+02  0.13071958128E+03  0.13616546406E+03  0.00000000000E+00 0. -1.
         21    1    1    2  502  501 -0.21310274334E+01  0.20133529706E+02 -0.11528656226E+02  0.23298287721E+02  0.00000000000E+00 0.  1.
<scales pt_clust_5="13000.00000" pt_clust_6="13000.00000" pt_clust_7="13000.00000" pt_clust_8="13000.00000" pt_clust_9="20.24599"></scales>
<clustering>
<clus scale="   20.246">  2  9  1 -1</clus>
<clus scale="   80.925">  5  6 -1 -1</clus>
<clus scale="   86.602">  1  5  2 -1</clus>
<clus scale="   89.123">  7  8 -1 -1</clus>
<clus scale="   86.602">  1  5  2 -1</clus>
</clustering>
</event>
<event>
 9    2  0.6066854E-005  0.1573285E+03  0.7546771E-02  0.1202230E+00
          2   -1    0    0  502    0  0.00000000000E+00  0.00000000000E+00  0.67800105282E+03  0.67800105282E+03  0.00000000000E+00 0. -1.
         -1   -1    0    0    0  501 -0.00000000000E+00 -0.00000000000E+00 -0.11330600949E+03  0.11330600949E+03  0.00000000000E+00 0.  1.
         23    2    1    2    0    0 -0.51574576990E+02 -0.51738311195E+02  0.14328557860E+01  0.14456186721E+03  0.12473688524E+03 0.  0.
         24    2    1    2    0    0  0.71811447759E+02  0.66715293192E+02  0.59378966205E+03  0.60717541334E+03  0.80423910825E+02 0.  0.
        -11    1    4    4    0    0 -0.57607300792E+01  0.44150330678E+02  0.16867667733E+03  0.17445417503E+03  0.00000000000E+00 0.  1.
         12    1    4    4    0    0  0.77572177838E+02  0.22564962514E+02  0.42511298472E+03  0.43272123831E+03  0.00000000000E+00 0. -1.
        -11    1    3    3    0    0 -0.22419815252E+02  0.35746682432E+02 -0.24470294432E+02  0.48777748313E+02  0.00000000000E+00 0. -1.
         11    1    3    3    0    0 -0.29154761738E+02 -0.87484993628E+02  0.25903150218E+02  0.95784118899E+02  0.00000000000E+00 0.  1.
         21    1    1    2  502  501 -0.20236870770E+02 -0.14976981997E+02 -0.30527474505E+02  0.39569781753E+02  0.00000000000E+00 0.  1.
<scales pt_clust_5="13000.00000" pt_clust_6="13000.00000" pt_clust_7="13000.00000" pt_clust_8="13000.00000" pt_clust_9="25.17620"></scales>
<clustering>
<clus scale="   25.176">  2  9  1 -1</clus>
<clus scale="   80.424">  5  6 -1 -1</clus>
<clus scale="  124.737">  7  8 -1 -1</clus>
<clus scale="  125.144">  1  5  2 -1</clus>
<clus scale="  125.144">  1  5  2 -1</clus>
</clustering>
</event>
<event>
 9    2  0.6066854E-005  0.9340714E+02  0.7546771E-02  0.1304182E+00
          2   -1    0    0  502    0  0.00000000000E+00  0.00000000000E+00  0.58879639704E+03  0.58879639704E+03  0.00000000000E+00 0. -1.
         -1   -1    0    0    0  501 -0.00000000000E+00 -0.00000000000E+00 -0.19241750567E+02  0.19241750567E+02  0.00000000000E+00 0.  1.
         23    2    1    2    0    0 -0.59866817610E+01  0.46233264757E+01  0.20102055563E+03  0.22055341683E+03  0.90428592733E+02 0.  0.
         24    2    1    2    0    0 -0.12483070586E+02 -0.33363668409E+02  0.29389119844E+03  0.30539514317E+03  0.75001303549E+02 0.  0.
        -11    1    4    4    0    0 -0.28616510081E+02  0.82336130110E+01  0.56694370957E+02  0.64038650288E+02  0.00000000000E+00 0.  1.
         12    1    4    4    0    0  0.16133439495E+02 -0.41597281420E+02  0.23719682748E+03  0.24135649289E+03  0.00000000000E+00 0. -1.
        -13    1    3    3    0    0  0.29223601140E+02  0.18928414408E+02  0.31922776836E+02  0.47237351921E+02  0.00000000000E+00 0.  1.
         13    1    3    3    0    0 -0.35210282901E+02 -0.14305087932E+02  0.16909777879E+03  0.17331606491E+03  0.00000000000E+00 0. -1.
         21    1    1    2  502  501  0.18469752347E+02  0.28740341933E+02  0.74642892410E+02  0.82089587607E+02  0.00000000000E+00 0.  1.
<scales pt_clust_5="13000.00000" pt_clust_6="13000.00000" pt_clust_7="13000.00000" pt_clust_8="13000.00000" pt_clust_9="34.16342"></scales>
<clustering>
<clus scale="   34.163">  2  9  1 -1</clus>
<clus scale="   75.001">  5  6 -1 -1</clus>
<clus scale="   78.567">  1  5  2 -1</clus>
<clus scale="   90.429">  7  8 -1 -1</clus>
<clus scale="   78.567">  1  5  2 -1</clus>
</clustering>
</event>
<event>
 9    2  0.6066854E-005  0.9407932E+02  0.7546771E-02  0.1298032E+00
         -1   -1    0    0    0  501 -0.00000000000E+00  0.00000000000E+00  0.17817319310E+03  0.17817319310E+03  0.00000000000E+00 0.  1.
          2   -1    0    0  502    0  0.00000000000E+00 -0.00000000000E+00 -0.40136782396E+03  0.40136782396E+03  0.00000000000E+00 0. -1.
         23    2    1    2    0    0  0.21125081791E+02 -0.14511270687E+02  0.13592489265E+03  0.16539029229E+03  0.90672632505E+02 0.  0.
         24    2    1    2    0    0 -0.24123653239E+02 -0.79117305795E+01 -0.37610831353E+03  0.38585935854E+03  0.82373751530E+02 0.  0.
        -13    1    4    4    0    0 -0.20526017810E+02  0.21918250580E+02 -0.49673371797E+02  0.58044560308E+02  0.00000000000E+00 0.  1.
         14    1    4    4    0    0 -0.35976354288E+01 -0.29829981159E+02 -0.32643494173E+03  0.32781479823E+03  0.00000000000E+00 0. -1.
        -11    1    3    3    0    0  0.35116697789E+01  0.26333938048E+02  0.48924716592E+01  0.27013781606E+02  0.00000000000E+00 0. -1.
         11    1    3    3    0    0  0.17613412012E+02 -0.40845208735E+02  0.13103242099E+03  0.13837651069E+03  0.00000000000E+00 0.  1.
         21    1    1    2  502  501  0.29985714478E+01  0.22423001267E+02  0.16988790017E+02  0.28291366223E+02  0.00000000000E+00 0.  1.
<scales pt_clust_5="13000.00000" pt_clust_6="13000.00000" pt_clust_7="13000.00000" pt_clust_8="13000.00000" pt_clust_9="22.62261"></scales>
<clustering>
<clus scale="   22.623">  1  9  2 -1</clus>
<clus scale="   82.374">  5  6 -1 -1</clus>
<clus scale="   86.109">  2  5  1 -1</clus>
<clus scale="   90.673">  7  8 -1 -1</clus>
<clus scale="   86.109">  2  5  1 -1</clus>
</clustering>
</event>
<event>
 9    2  0.6066854E-005  0.9552172E+02  0.7546771E-02  0.1297198E+00
          2   -1    0    0  502    0  0.00000000000E+00  0.00000000000E+00  0.61910965828E+03  0.61910965828E+03  0.00000000000E+00 0. -1.
         -1   -1    0    0    0  501 -0.00000000000E+00 -0.00000000000E+00 -0.28567788761E+02  0.28567788761E+02  0.00000000000E+00 0.  1.
         23    2    1    2    0    0 -0.40689742697E+01  0.34494604299E+01  0.79034910678E+02  0.12176598486E+03  0.92476930278E+02 0.  0.
         24    2    1    2    0    0  0.26302843347E+02 -0.70624493415E+01  0.47873608593E+03  0.48614553790E+03  0.80047025477E+02 0.  0.
        -13    1    4    4    0    0 -0.45920643189E+01  0.26844439731E+02  0.74624419124E+02  0.79438749542E+02  0.00000000000E+00 0.  1.
         14    1    4    4    0    0  0.30894907666E+02 -0.33906889073E+02  0.40411166680E+03  0.40670678835E+03  0.00000000000E+00 0. -1.
        -11    1    3    3    0    0 -0.29217349502E+02 -0.12616498941E+00 -0.86538491874E+01  0.30472258454E+02  0.00000000000E+00 0.  1.
         11    1    3    3    0    0  0.25148375232E+02  0.35756254193E+01  0.87688759865E+02  0.91293726404E+02  0.00000000000E+00 0. -1.
         21    1    1    2  502  501 -0.22233869077E+02  0.36129889116E+01  0.32770872915E+02  0.39765924289E+02  0.00000000000E+00 0.  1.
<scales pt_clust_5="13000.00000" pt_clust_6="13000.00000" pt_clust_7="13000.00000" pt_clust_8="13000.00000" pt_clust_9="22.52551"></scales>
<clustering>
<clus scale="   22.526">  2  9  1 -1</clus>
<clus scale="   80.047">  5  6 -1 -1</clus>
<clus scale="   83.546">  1  5  2 -1</clus>
<clus scale="   92.477">  7  8 -1 -1</clus>
<clus scale="   83.546">  1  5  2 -1</clus>
</clustering>
</event>
<event>
 9    2  0.6066854E-005  0.9043870E+02  0.7546771E-02  0.1308187E+00
          2   -1    0    0  502    0  0.00000000000E+00  0.00000000000E+00  0.69472713080E+02  0.69472713080E+02  0.00000000000E+00 0. -1.
         -1   -1    0    0    0  501 -0.00000000000E+00 -0.00000000000E+00 -0.17633905486E+03  0.17633905486E+03  0.00000000000E+00 0.  1.
         23    2    1    2    0    0  0.11799775569E+02  0.13733576103E+02 -0.89433561596E+02  0.12846456922E+03  0.90426421964E+02 0.  0.
         24    2    1    2    0    0  0.57205298022E+01  0.37306431584E+01  0.88952512954E+01  0.81220680812E+02  0.80442720841E+02 0.  0.
        -11    1    4    4    0    0  0.18746414698E+02  0.13861276533E+02 -0.30569126243E+02  0.38445214662E+02  0.00000000000E+00 0.  1.
         12    1    4    4    0    0 -0.13025884895E+02 -0.10130633374E+02  0.39464377538E+02  0.42775466150E+02  0.00000000000E+00 0. -1.
        -11    1    3    3    0    0  0.35367820573E+02 -0.22112685422E+02 -0.69736012525E+02  0.81258630505E+02  0.00000000000E+00 0. -1.
         11    1    3    3    0    0 -0.23568045004E+02  0.35846261525E+02 -0.19697549071E+02  0.47205938716E+02  0.00000000000E+00 0.  1.
         21    1    1    2  502  501 -0.17520305371E+02 -0.17464219261E+02 -0.26328031483E+02  0.36126517912E+02  0.00000000000E+00 0. -1.
<scales pt_clust_5="13000.00000" pt_clust_6="13000.00000" pt_clust_7="13000.00000" pt_clust_8="13000.00000" pt_clust_9="24.73783"></scales>
<clustering>
<clus scale="   24.738">  2  9  1 -1</clus>
<clus scale="   80.443">  5  6 -1 -1</clus>
<clus scale="   80.457">  1  5  2 -1</clus>
<clus scale="   90.426">  7  8 -1 -1</clus>
<clus scale="   80.457">  1  5  2 -1</clus>
</clustering>
</event>
<event>
 9    2  0.6066854E-005  0.9628983E+02  0.7546771E-02  0.1294591E+00
          2   -1    0    0  502    0  0.00000000000E+00  0.00000000000E+00  0.27903918765E+03  0.27903918765E+03  0.00000000000E+00 0. -1.
         -1   -1    0    0    0  501 -0.00000000000E+00 -0.00000000000E+00 -0.16010241112E+03  0.16010241112E+03  0.00000000000E+00 0.  1.
         23    2    1    2    0    0  0.45359681525E+01  0.29791269980E+02 -0.49695080812E+02  0.11012628204E+03  0.93541980763E+02 0.  0.
         24    2    1    2    0    0 -0.22815189885E+02 -0.63674244889E+01  0.23829374889E+03  0.25328166754E+03  0.82502214332E+02 0.  0.
        -11    1    4    4    0    0  0.21950360201E+02  0.22799855473E+02  0.10541465313E+03  0.11006316739E+03  0.00000000000E+00 0.  1.
         12    1    4    4    0    0 -0.44765550086E+02 -0.29167279962E+02  0.13287909576E+03  0.14321850015E+03  0.00000000000E+00 0. -1.
        -11    1    3    3    0    0 -0.28620337226E+02  0.49171602130E+02 -0.42590299241E+02  0.71069710484E+02  0.00000000000E+00 0.  1.
         11    1    3    3    0    0  0.33156305378E+02 -0.19380332149E+02 -0.71047815715E+01  0.39056571556E+02  0.00000000000E+00 0. -1.
         21    1    1    2  502  501  0.18279221732E+02 -0.23423845492E+02 -0.69661891549E+02  0.75733649185E+02  0.00000000000E+00 0.  1.
<scales pt_clust_5="13000.00000" pt_clust_6="13000.00000" pt_clust_7="13000.00000" pt_clust_8="13000.00000" pt_clust_9="29.71206"></scales>
<clustering>
<clus scale="   29.712">  2  9  1 -1</clus>
<clus scale="   82.502">  5  6 -1 -1</clus>
<clus scale="   85.605">  1  5  2 -1</clus>
<clus scale="   93.542">  7  8 -1 -1</clus>
<clus scale="   85.605">  1  5  2 -1</clus>
</clustering>
</event>
<event>
 9    2  0.6066854E-005  0.3026755E+03  0.7546771E-02  0.1084289E+00
          2   -1    0    0  502    0  0.00000000000E+00  0.00000000000E+00  0.76794317434E+03  0.76794317434E+03  0.00000000000E+00 0. -1.
         -1   -1    0    0    0  501 -0.00000000000E+00 -0.00000000000E+00 -0.56350358549E+03  0.56350358549E+03  0.00000000000E+00 0.  1.
         23    2    1    2    0    0  0.16656667049E+03 -0.18057554776E+03 -0.38000025126E+03  0.46170356433E+03  0.91749693139E+02 0.  0.
         24    2    1    2    0    0 -0.11892381326E+03  0.26746309684E+03  0.67203101630E+03  0.73748775260E+03  0.81136408841E+02 0.  0.
        -11    1    4    4    0    0 -0.12822177872E-01  0.86294160036E+02  0.21542977970E+03  0.23207040355E+03  0.00000000000E+00 0.  1.
         12    1    4    4    0    0 -0.11891099109E+03  0.18116893681E+03  0.45660123660E+03  0.50541734905E+03  0.00000000000E+00 0. -1.
        -11    1    3    3    0    0  0.27525708853E+02 -0.12382765674E+02 -0.93743168314E+01  0.31604989316E+02  0.00000000000E+00 0. -1.
         11    1    3    3    0    0  0.13904096164E+03 -0.16819278208E+03 -0.37062593443E+03  0.43009857502E+03  0.00000000000E+00 0.  1.
         21    1    1    2  502  501 -0.47642857229E+02 -0.86887549083E+02 -0.87591176182E+02  0.13225544290E+03  0.00000000000E+00 0. -1.
<scales pt_clust_5="13000.00000" pt_clust_6="13000.00000" pt_clust_7="13000.00000" pt_clust_8="13000.00000" pt_clust_9="99.09232"></scales>
<clustering>
<clus scale="   81.136">  5  6 -1 -1</clus>
<clus scale="   91.750">  7  8 -1 -1</clus>
<clus scale="   99.092">  2  9  1 -1</clus>
<clus scale="  299.629">  1  5  2 -1</clus>
<clus scale="  299.629">  1  5  2 -1</clus>
</clustering>
</event>
<event>
 9    2  0.6066854E-005  0.1979385E+03  0.7546771E-02  0.1152584E+00
         -1   -1    0    0    0  501 -0.00000000000E+00  0.00000000000E+00  0.22355941947E+03  0.22355941947E+03  0.00000000000E+00 0.  1.
          2   -1    0    0  502    0  0.00000000000E+00 -0.00000000000E+00 -0.26850087309E+03  0.26850087309E+03  0.00000000000E+00 0. -1.
         24    2    1    2    0    0 -0.23409858109E+02  0.18702128524E+03 -0.45838840259E+02  0.20970102515E+03  0.79676458791E+02 0.  0.
         23    2    1    2    0    0  0.31452122198E+02 -0.16273381229E+03 -0.74051699110E+02  0.20316378264E+03  0.91215891062E+02 0.  0.
        -11    1    3    3    0    0  0.96772570269E+01  0.10187159582E+03  0.97031191085E+01  0.10278921081E+03  0.00000000000E+00 0.  1.
         12    1    3    3    0    0 -0.33087115136E+02  0.85149689420E+02 -0.55541959368E+02  0.10691181435E+03  0.00000000000E+00 0. -1.
        -13    1    4    4    0    0  0.51195381211E+02 -0.91954948793E+02 -0.10061500308E+02  0.10572565182E+03  0.00000000000E+00 0. -1.
         13    1    4    4    0    0 -0.19743259013E+02 -0.70778863494E+02 -0.63990198802E+02  0.97438130815E+02  0.00000000000E+00 0.  1.
         21    1    1    2  502  501 -0.80422640892E+01 -0.24287472949E+02  0.74949085750E+02  0.79195484774E+02  0.00000000000E+00 0.  1.
<scales pt_clust_5="13000.00000" pt_clust_6="13000.00000" pt_clust_7="13000.00000" pt_clust_8="13000.00000" pt_clust_9="25.58436"></scales>
<clustering>
<clus scale="   25.584">  1  9  2 -1</clus>
<clus scale="   79.676">  5  6 -1 -1</clus>
<clus scale="   91.216">  7  8 -1 -1</clus>
<clus scale="  192.893">  1  5  2 -1</clus>
<clus scale="  197.938">  2  5  1 -1</clus>
</clustering>
</event>
<event>
 9    2  0.6066854E-005  0.1006175E+03  0.7546771E-02  0.1285929E+00
         -1   -1    0    0    0  501 -0.00000000000E+00  0.00000000000E+00  0.20817563796E+02  0.20817563796E+02  0.00000000000E+00 0.  1.
          2   -1    0    0  502    0  0.00000000000E+00 -0.00000000000E+00 -0.10993313849E+04  0.10993313849E+04  0.00000000000E+00 0. -1.
         23    2    1    2    0    0 -0.11210996004E+02 -0.31394361535E+02 -0.15312919759E+03  0.18134878112E+03  0.91255338970E+02 0.  0.
         24    2    1    2    0    0  0.43673495268E+01  0.78558769409E+02 -0.62919189579E+03  0.63879775288E+03  0.77392334029E+02 0.  0.
        -11    1    4    4    0    0  0.78852988070E+01  0.91865146364E+02 -0.46649244628E+03  0.47551717686E+03  0.00000000000E+00 0.  1.
         12    1    4    4    0    0 -0.35179492802E+01 -0.13306376956E+02 -0.16269944951E+03  0.16328057602E+03  0.00000000000E+00 0. -1.
        -13    1    3    3    0    0 -0.38707633721E+02 -0.50472821021E+02 -0.96800774910E+02  0.11582822019E+03  0.00000000000E+00 0. -1.
         13    1    3    3    0    0  0.27496637717E+02  0.19078459486E+02 -0.56328422682E+02  0.65520560925E+02  0.00000000000E+00 0.  1.
         21    1    1    2  502  501  0.68436464772E+01 -0.47164407873E+02 -0.29619272771E+03  0.30000241468E+03  0.00000000000E+00 0. -1.
<scales pt_clust_5="13000.00000" pt_clust_6="13000.00000" pt_clust_7="13000.00000" pt_clust_8="13000.00000" pt_clust_9="47.65833"></scales>
<clustering>
<clus scale="   47.658">  2  9  1 -1</clus>
<clus scale="   77.392">  5  6 -1 -1</clus>
<clus scale="   88.238">  2  5  1 -1</clus>
<clus scale="   91.255">  7  8 -1 -1</clus>
<clus scale="   47.658">  2  5  1 -1</clus>
</clustering>
</event>
<event>
 9    2  0.6066854E-005  0.9524332E+02  0.7546771E-02  0.1296103E+00
          2   -1    0    0  502    0  0.00000000000E+00  0.00000000000E+00  0.85487760526E+03  0.85487760526E+03  0.00000000000E+00 0. -1.
         -1   -1    0    0    0  501 -0.00000000000E+00 -0.00000000000E+00 -0.26584966916E+02  0.26584966916E+02  0.00000000000E+00 0.  1.
         23    2    1    2    0    0  0.94128249518E+01 -0.55236507761E+02  0.17865112451E+03  0.20872513966E+03  0.92251214488E+02 0.  0.
         24    2    1    2    0    0  0.21164710019E+02 -0.25154469771E+02  0.29105538726E+03  0.30398045959E+03  0.81303069173E+02 0.  0.
        -13    1    4    4    0    0  0.40293148537E+02  0.55050126531E+01  0.22537812315E+03  0.22901777524E+03  0.00000000000E+00 0.  1.
         14    1    4    4    0    0 -0.19128438518E+02 -0.30659482424E+02  0.65677264115E+02  0.74962684345E+02  0.00000000000E+00 0. -1.
        -13    1    3    3    0    0 -0.28755615746E+02 -0.22402858241E+02  0.14159225964E+03  0.14620923871E+03  0.00000000000E+00 0.  1.
         13    1    3    3    0    0  0.38168440698E+02 -0.32833649520E+02  0.37058864868E+02  0.62515900949E+02  0.00000000000E+00 0. -1.
         21    1    1    2  502  501 -0.30577534971E+02  0.80390977532E+02  0.35858612657E+03  0.36875697293E+03  0.00000000000E+00 0.  1.
<scales pt_clust_5="13000.00000" pt_clust_6="13000.00000" pt_clust_7="13000.00000" pt_clust_8="13000.00000" pt_clust_9="86.00985"></scales>
<clustering>
<clus scale="   81.303">  5  6 -1 -1</clus>
<clus scale="   86.010">  1  9  2 -1</clus>
<clus scale="   86.010">  1  5  2 -1</clus>
<clus scale="   92.251">  7  8 -1 -1</clus>
<clus scale="   86.010">  1  5  2 -1</clus>
</clustering>
</event>
<event>
 9    2  0.6066854E-005  0.1743639E+03  0.7546771E-02  0.1174513E+00
          2   -1    0    0  502    0  0.00000000000E+00  0.00000000000E+00  0.98337260839E+03  0.98337260839E+03  0.00000000000E+00 0. -1.
         -1   -1    0    0    0  501 -0.00000000000E+00 -0.00000000000E+00 -0.22852367458E+03  0.22852367458E+03  0.00000000000E+00 0.  1.
         23    2    1    2    0    0  0.12213471027E+03 -0.12888209190E+03  0.33035649445E+03  0.38568809184E+03  0.89957821757E+02 0.  0.
         24    2    1    2    0    0 -0.14600670171E+03  0.23663460089E+02  0.59831471505E+03  0.62162320639E+03  0.80975281287E+02 0.  0.
        -11    1    4    4    0    0 -0.72853676688E+02 -0.26291850771E+02  0.33387428588E+03  0.34274036587E+03  0.00000000000E+00 0.  1.
         12    1    4    4    0    0 -0.73153025024E+02  0.49955310860E+02  0.26444042917E+03  0.27888284052E+03  0.00000000000E+00 0. -1.
        -11    1    3    3    0    0  0.19873017690E+02 -0.22764015894E+02  0.80267093696E+01  0.31266040923E+02  0.00000000000E+00 0.  1.
         11    1    3    3    0    0  0.10226169258E+03 -0.10611807601E+03  0.32232978508E+03  0.35442205092E+03  0.00000000000E+00 0. -1.
         21    1    1    2  502  501  0.23871991446E+02  0.10521863181E+03 -0.17382227569E+03  0.20458498475E+03  0.00000000000E+00 0.  1.
<scales pt_clust_5="13000.00000" pt_clust_6="13000.00000" pt_clust_7="13000.00000" pt_clust_8="13000.00000" pt_clust_9="107.89269"></scales>
<clustering>
<clus scale="   80.975">  5  6 -1 -1</clus>
<clus scale="   89.958">  7  8 -1 -1</clus>
<clus scale="  107.893">  2  9  1 -1</clus>
<clus scale="  169.904">  1  5  2 -1</clus>
<clus scale="  169.904">  1  5  2 -1</clus>
</clustering>
</event>
<event>
 9    2  0.6066854E-005  0.9420281E+02  0.7546771E-02  0.1299248E+00
          2   -1    0    0  502    0  0.00000000000E+00  0.00000000000E+00  0.44654683291E+03  0.44654683291E+03  0.00000000000E+00 0. -1.
         -1   -1    0    0    0  501 -0.00000000000E+00 -0.00000000000E+00 -0.12354062788E+03  0.12354062788E+03  0.00000000000E+00 0.  1.
         23    2    1    2    0    0  0.18463520650E+02  0.52634975976E+02 -0.73564015376E+02  0.13020789765E+03  0.91820966890E+02 0.  0.
         24    2    1    2    0    0  0.41066656043E+01 -0.19428319258E+02  0.39041466166E+03  0.39925954024E+03  0.81180343297E+02 0.  0.
        -11    1    4    4    0    0  0.29030868360E+01  0.28724544151E+02  0.78363060555E+02  0.83512254247E+02  0.00000000000E+00 0.  1.
         12    1    4    4    0    0  0.12035787683E+01 -0.48152863410E+02  0.31205160111E+03  0.31574728599E+03  0.00000000000E+00 0. -1.
        -13    1    3    3    0    0  0.28140996460E+02 -0.18786839304E+02 -0.13660259813E+02  0.36489227328E+02  0.00000000000E+00 0. -1.
         13    1    3    3    0    0 -0.96774758104E+01  0.71421815280E+02 -0.59903755563E+02  0.93718670320E+02  0.00000000000E+00 0.  1.
         21    1    1    2  502  501 -0.22570186254E+02 -0.33206656718E+02  0.61555587407E+01  0.40620022911E+02  0.00000000000E+00 0. -1.
<scales pt_clust_5="13000.00000" pt_clust_6="13000.00000" pt_clust_7="13000.00000" pt_clust_8="13000.00000" pt_clust_9="40.15091"></scales>
<clustering>
<clus scale="   40.151">  2  9  1 -1</clus>
<clus scale="   81.180">  5  6 -1 -1</clus>
<clus scale="   83.865">  1  5  2 -1</clus>
<clus scale="   91.821">  7  8 -1 -1</clus>
<clus scale="   83.865">  1  5  2 -1</clus>
</clustering>
</event>
<event>
 9    2  0.6066854E-005  0.9294598E+02  0.7546771E-02  0.1299186E+00
          4   -1    0    0  502    0  0.00000000000E+00  0.00000000000E+00  0.14114123136E+04  0.14114123136E+04  0.00000000000E+00 0. -1.
         -3   -1    0    0    0  501 -0.00000000000E+00 -0.00000000000E+00 -0.96824352285E+01  0.96824352285E+01  0.00000000000E+00 0.  1.
         23    2    1    2    0    0 -0.69138704730E+01  0.86121260531E+01  0.42286462992E+03  0.43270014267E+03  0.91065624199E+02 0.  0.
         24    2    1    2    0    0  0.18160552837E+02  0.20873913631E+02  0.88109185075E+03  0.88565439154E+03  0.85412679697E+02 0.  0.
        -13    1    4    4    0    0  0.10268257344E+02 -0.22460990855E+02  0.89702310957E+02  0.93039979633E+02  0.00000000000E+00 0.  1.
         14    1    4    4    0    0  0.78922954925E+01  0.43334904485E+02  0.79138953979E+03  0.79261441191E+03  0.00000000000E+00 0. -1.
        -11    1    3    3    0    0 -0.42690552769E+02  0.27710949177E+02  0.21835700535E+03  0.22421008404E+03  0.00000000000E+00 0. -1.
         11    1    3    3    0    0  0.35776682296E+02 -0.19098823124E+02  0.20450762456E+03  0.20849005862E+03  0.00000000000E+00 0.  1.
         21    1    1    2  502  501 -0.11246682364E+02 -0.29486039684E+02  0.97773397679E+02  0.10274021459E+03  0.00000000000E+00 0.  1.
<scales pt_clust_5="13000.00000" pt_clust_6="13000.00000" pt_clust_7="13000.00000" pt_clust_8="13000.00000" pt_clust_9="31.55811"></scales>
<clustering>
<clus scale="   31.558">  2  9  1 -1</clus>
<clus scale="   85.413">  5  6 -1 -1</clus>
<clus scale="   87.415">  1  5  2 -1</clus>
<clus scale="   91.066">  7  8 -1 -1</clus>
<clus scale="   87.415">  1  5  2 -1</clus>
</clustering>
</event>
<event>
 9    2  0.6066854E-005  0.9771020E+02  0.7546771E-02  0.1289982E+00
         -1   -1    0    0    0  501 -0.00000000000E+00  0.00000000000E+00  0.36927967205E+03  0.36927967205E+03  0.00000000000E+00 0.  1.
          2   -1    0    0  502    0  0.00000000000E+00 -0.00000000000E+00 -0.75437009454E+02  0.75437009454E+02  0.00000000000E+00 0. -1.
         23    2    1    2    0    0 -0.14551650361E+02  0.44594000691E+02  0.26128585577E+03  0.28013531216E+03  0.89471332104E+02 0.  0.
         24    2    1    2    0    0  0.33301039942E+02 -0.21220007469E+02 -0.30765211750E+02  0.94527381552E+02  0.80185283131E+02 0.  0.
        -11    1    4    4    0    0  0.50679992515E+02 -0.42491190998E+01  0.52050592873E+01  0.51123471093E+02  0.00000000000E+00 0.  1.
         12    1    4    4    0    0 -0.17378952573E+02 -0.16970888370E+02 -0.35970271037E+02  0.43403910458E+02  0.00000000000E+00 0. -1.
        -13    1    3    3    0    0  0.36864986504E+02  0.27093345871E+02  0.10049215736E+03  0.11041625927E+03  0.00000000000E+00 0.  1.
         13    1    3    3    0    0 -0.51416636866E+02  0.17500654820E+02  0.16079369841E+03  0.16971905289E+03  0.00000000000E+00 0. -1.
         21    1    1    2  502  501 -0.18749389581E+02 -0.23373993222E+02  0.63322018577E+02  0.70053987792E+02  0.00000000000E+00 0.  1.
<scales pt_clust_5="13000.00000" pt_clust_6="13000.00000" pt_clust_7="13000.00000" pt_clust_8="13000.00000" pt_clust_9="29.96470"></scales>
<clustering>
<clus scale="   29.965">  1  9  2 -1</clus>
<clus scale="   80.185">  5  6 -1 -1</clus>
<clus scale="   89.285">  2  5  1 -1</clus>
<clus scale="   89.471">  7  8 -1 -1</clus>
<clus scale="   89.285">  2  5  1 -1</clus>
</clustering>
</event>
<event>
 9    2  0.6066854E-005  0.1322054E+03  0.7546771E-02  0.1226733E+00
         -1   -1    0    0    0  501 -0.00000000000E+00  0.00000000000E+00  0.96139708354E+02  0.96139708354E+02  0.00000000000E+00 0.  1.
          2   -1    0    0  502    0  0.00000000000E+00 -0.00000000000E+00 -0.51633738873E+03  0.51633738873E+03  0.00000000000E+00 0. -1.
         23    2    1    2    0    0  0.49854896873E+02 -0.10976216182E+03 -0.14741808809E+03  0.21097621786E+03  0.90805445314E+02 0.  0.
         24    2    1    2    0    0 -0.25727523924E+02  0.84194878713E+02 -0.32061761150E+03  0.34213513006E+03  0.80685260899E+02 0.  0.
        -11    1    4    4    0    0 -0.22998540740E+02  0.89165745081E+00 -0.21054999106E+02  0.31193603776E+02  0.00000000000E+00 0.  1.
         12    1    4    4    0    0 -0.27289831845E+01  0.83303221262E+02 -0.29956261239E+03  0.31094152628E+03  0.00000000000E+00 0. -1.
        -11    1    3    3    0    0  0.27399546105E+02 -0.96863630345E+02 -0.54405150953E+02  0.11442560230E+03  0.00000000000E+00 0.  1.
         11    1    3    3    0    0  0.22455350768E+02 -0.12898531478E+02 -0.93012937134E+02  0.96550615569E+02  0.00000000000E+00 0. -1.
         21    1    1    2  502  501 -0.24127372949E+02  0.25567283110E+02  0.47838019214E+02  0.59365749161E+02  0.00000000000E+00 0. -1.
<scales pt_clust_5="13000.00000" pt_clust_6="13000.00000" pt_clust_7="13000.00000" pt_clust_8="13000.00000" pt_clust_9="35.15418"></scales>
<clustering>
<clus scale="   35.154">  1  9  2 -1</clus>
<clus scale="   80.685">  5  6 -1 -1</clus>
<clus scale="   90.805">  7  8 -1 -1</clus>
<clus scale="  125.470">  2  5  1 -1</clus>
<clus scale="  125.470">  2  5  1 -1</clus>
</clustering>
</event>
<event>
 9    2  0.6066854E-005  0.2114139E+03  0.7546771E-02  0.1151576E+00
          2   -1    0    0  502    0  0.00000000000E+00  0.00000000000E+00  0.24123581463E+04  0.24123581463E+04  0.00000000000E+00 0. -1.
         -1   -1    0    0    0  501 -0.00000000000E+00 -0.00000000000E+00 -0.66563628904E+02  0.66563628904E+02  0.00000000000E+00 0.  1.
         23    2    1    2    0    0 -0.17042000180E+03 -0.43069794449E+01  0.19857744142E+03  0.27398998188E+03  0.81092433945E+02 0.  0.
         24    2    1    2    0    0 -0.12312105684E+03 -0.64976683054E+02  0.11987956107E+04  0.12097082733E+04  0.83080841876E+02 0.  0.
        -11    1    4    4    0    0 -0.15918993773E+02 -0.13107193356E+02  0.41901168480E+02  0.46700329768E+02  0.00000000000E+00 0.  1.
         12    1    4    4    0    0 -0.10720206307E+03 -0.51869489698E+02  0.11568944422E+04  0.11630079436E+04  0.00000000000E+00 0. -1.
        -11    1    3    3    0    0 -0.93491834213E+02  0.17656932619E+02  0.55728406433E+02  0.11026398151E+03  0.00000000000E+00 0.  1.
         11    1    3    3    0    0 -0.76928167591E+02 -0.21963912064E+02  0.14284903498E+03  0.16372600037E+03  0.00000000000E+00 0. -1.
         21    1    1    2  502  501  0.29354105865E+03  0.69283662499E+02  0.94842146525E+03  0.99522352000E+03  0.00000000000E+00 0.  1.
<scales pt_clust_5="13000.00000" pt_clust_6="13000.00000" pt_clust_7="13000.00000" pt_clust_8="13000.00000" pt_clust_9="195.24310"></scales>
<clustering>
<clus scale="   81.092">  7  8 -1 -1</clus>
<clus scale="   83.081">  5  6 -1 -1</clus>
<clus scale="  162.121">  1  5  2 -1</clus>
<clus scale="  195.243">  1  9  2 -1</clus>
<clus scale="  162.121">  1  5  2 -1</clus>
</clustering>
</event>
<event>
 9    2  0.6066854E-005  0.1635541E+03  0.7546771E-02  0.1210110E+00
          2   -1    0    0  502    0  0.00000000000E+00  0.00000000000E+00  0.19206310908E+03  0.19206310908E+03  0.00000000000E+00 0. -1.
         -1   -1    0    0    0  501 -0.00000000000E+00 -0.00000000000E+00 -0.43254137620E+03  0.43254137620E+03  0.00000000000E+00 0.  1.
         23    2    1    2    0    0  0.62017118317E+02  0.11557446116E+03 -0.32592246209E+03  0.36941624678E+03  0.11418989908E+03 0.  0.
         24    2    1    2    0    0  0.74120001299E+01 -0.46988538488E+02  0.11928630423E+03  0.15189390353E+03  0.81115196211E+02 0.  0.
        -13    1    4    4    0    0 -0.99240779116E+01  0.18409513973E+02  0.95822695599E+01  0.23004725972E+02  0.00000000000E+00 0.  1.
         14    1    4    4    0    0  0.17336078042E+02 -0.65398052462E+02  0.10970403467E+03  0.12888917756E+03  0.00000000000E+00 0. -1.
        -13    1    3    3    0    0  0.53352888390E+02  0.63336284679E+02 -0.71092256870E+02  0.10914268021E+03  0.00000000000E+00 0. -1.
         13    1    3    3    0    0  0.86642299264E+01  0.52238176481E+02 -0.25483020522E+03  0.26027356657E+03  0.00000000000E+00 0.  1.
         21    1    1    2  502  501 -0.69429118447E+02 -0.68585922671E+02 -0.33842109272E+02  0.10329433497E+03  0.00000000000E+00 0. -1.
<scales pt_clust_5="13000.00000" pt_clust_6="13000.00000" pt_clust_7="13000.00000" pt_clust_8="13000.00000" pt_clust_9="117.09237"></scales>
<clustering>
<clus scale="   81.115">  5  6 -1 -1</clus>
<clus scale="   94.035">  1  5  2 -1</clus>
<clus scale="  114.190">  7  8 -1 -1</clus>
<clus scale="  117.092">  1  9  2 -1</clus>
<clus scale="   94.035">  1  5  2 -1</clus>
</clustering>
</event>
<event>
 9    2  0.6066854E-005  0.1240923E+03  0.7546771E-02  0.1246067E+00
         -1   -1    0    0    0  501 -0.00000000000E+00  0.00000000000E+00  0.62249109807E+02  0.62249109807E+02  0.00000000000E+00 0.  1.
          2   -1    0    0  502    0  0.00000000000E+00 -0.00000000000E+00 -0.63727899683E+03  0.63727899683E+03  0.00000000000E+00 0. -1.
         24    2    1    2    0    0 -0.45148636626E+01  0.77893602189E+02 -0.60362947248E+02  0.12691547207E+03  0.79850199721E+02 0.  0.
         23    2    1    2    0    0 -0.16190740730E+02  0.54255440626E+02 -0.32374540986E+03  0.33949652153E+03  0.85094093814E+02 0.  0.
        -11    1    3    3    0    0  0.26005922131E+02  0.79180136095E+00 -0.32337857002E+01  0.26218167465E+02  0.00000000000E+00 0.  1.
         12    1    3    3    0    0 -0.30520785794E+02  0.77101800828E+02 -0.57129161548E+02  0.10069730461E+03  0.00000000000E+00 0. -1.
        -13    1    4    4    0    0 -0.95692903438E+01  0.76966397054E+02 -0.22634389025E+03  0.23926335751E+03  0.00000000000E+00 0. -1.
         13    1    4    4    0    0 -0.66214503860E+01 -0.22710956427E+02 -0.97401519613E+02  0.10023316402E+03  0.00000000000E+00 0.  1.
         21    1    1    2  502  501  0.20705604392E+02 -0.13214904282E+03 -0.19092152991E+03  0.23311611303E+03  0.00000000000E+00 0.  1.
<scales pt_clust_5="13000.00000" pt_clust_6="13000.00000" pt_clust_7="13000.00000" pt_clust_8="13000.00000" pt_clust_9="94.98865"></scales>
<clustering>
<clus scale="   79.850">  5  6 -1 -1</clus>
<clus scale="   85.094">  7  8 -1 -1</clus>
<clus scale="  102.210">  2  7  1 -1</clus>
<clus scale="   94.989">  2  9  1 -1</clus>
<clus scale="  102.210">  2  5  1 -1</clus>
</clustering>
</event>
<event>
 9    2  0.6066854E-005  0.2143091E+03  0.7546771E-02  0.1138393E+00
         -1   -1    0    0    0  501 -0.00000000000E+00  0.00000000000E+00  0.21660345751E+03  0.21660345751E+03  0.00000000000E+00 0.  1.
          2   -1    0    0  502    0  0.00000000000E+00 -0.00000000000E+00 -0.60251072707E+03  0.60251072707E+03  0.00000000000E+00 0. -1.
         24    2    1    2    0    0  0.15765759125E+03  0.77407492515E+02  0.59157853153E+02  0.20267563126E+03  0.82036113632E+02 0.  0.
         23    2    1    2    0    0 -0.13957571067E+03 -0.14661482535E+03 -0.48656323802E+03  0.53374210299E+03  0.84614194403E+02 0.  0.
        -13    1    3    3    0    0  0.13213764874E+03  0.90763031488E+02  0.32790766370E+02  0.16362616068E+03  0.00000000000E+00 0.  1.
         14    1    3    3    0    0  0.25519942504E+02 -0.13355538973E+02  0.26367086783E+02  0.39049470574E+02  0.00000000000E+00 0. -1.
        -11    1    4    4    0    0 -0.10927058881E+03 -0.13511755567E+03 -0.32081993385E+03  0.36485921310E+03  0.00000000000E+00 0.  1.
         11    1    4    4    0    0 -0.30305121863E+02 -0.11497269674E+02 -0.16574330417E+03  0.16888288989E+03  0.00000000000E+00 0. -1.
         21    1    1    2  502  501 -0.18081880578E+02  0.69207332833E+02  0.41498115306E+02  0.82696450329E+02  0.00000000000E+00 0. -1.
<scales pt_clust_5="13000.00000" pt_clust_6="13000.00000" pt_clust_7="13000.00000" pt_clust_8="13000.00000" pt_clust_9="71.53048"></scales>
<clustering>
<clus scale="   71.530">  1  9  2 -1</clus>
<clus scale="   82.036">  5  6 -1 -1</clus>
<clus scale="   84.614">  7  8 -1 -1</clus>
<clus scale="  213.304">  1  5  2 -1</clus>
<clus scale="  214.309">  2  5  1 -1</clus>
</clustering>
</event>
<event>
 9    2  0.6066854E-005  0.1178784E+03  0.7546771E-02  0.1250540E+00
         -1   -1    0    0    0  501 -0.00000000000E+00  0.00000000000E+00  0.62667084299E+02  0.62667084299E+02  0.00000000000E+00 0.  1.
          2   -1    0    0  502    0  0.00000000000E+00 -0.00000000000E+00 -0.37363129960E+03  0.37363129960E+03  0.00000000000E+00 0. -1.
         23    2    1    2    0    0  0.76985341907E+02 -0.82052044149E+02 -0.10042223923E+03  0.17559648862E+03  0.89945649514E+02 0.  0.
         24    2    1    2    0    0 -0.38728052739E+02  0.49324817051E+02 -0.16412737653E+03  0.19222557369E+03  0.77974840861E+02 0.  0.
        -11    1    4    4    0    0 -0.24417501664E+02  0.65426233676E+02 -0.15253911489E+03  0.16776468046E+03  0.00000000000E+00 0.  1.
         12    1    4    4    0    0 -0.14310551075E+02 -0.16101416625E+02 -0.11588261640E+02  0.24460893223E+02  0.00000000000E+00 0. -1.
        -11    1    3    3    0    0  0.10353118403E+02  0.19793475502E+02 -0.15998876024E+02  0.27476039874E+02  0.00000000000E+00 0.  1.
         11    1    3    3    0    0  0.66632223504E+02 -0.10184551965E+03 -0.84423363202E+02  0.14812044874E+03  0.00000000000E+00 0. -1.
         21    1    1    2  502  501 -0.38257289168E+02  0.32727227098E+02 -0.46414599551E+02  0.68476321597E+02  0.00000000000E+00 0.  1.
<scales pt_clust_5="13000.00000" pt_clust_6="13000.00000" pt_clust_7="13000.00000" pt_clust_8="13000.00000" pt_clust_9="50.34572"></scales>
<clustering>
<clus scale="   50.346">  1  9  2 -1</clus>
<clus scale="   77.975">  5  6 -1 -1</clus>
<clus scale="   89.946">  7  8 -1 -1</clus>
<clus scale="  109.019">  2  5  1 -1</clus>
<clus scale="  109.019">  2  5  1 -1</clus>
</clustering>
</event>
<event>
 9    2  0.6066854E-005  0.1157990E+03  0.7546771E-02  0.1259753E+00
          2   -1    0    0  502    0  0.00000000000E+00  0.00000000000E+00  0.13917499691E+03  0.13917499691E+03  0.00000000000E+00 0. -1.
         -1   -1    0    0    0  501 -0.00000000000E+00 -0.00000000000E+00 -0.51523806827E+03  0.51523806827E+03  0.00000000000E+00 0.  1.
         23    2    1    2    0    0 -0.14687610631E+02  0.58275765909E+02 -0.70450362529E+02  0.12903903652E+03  0.89866726694E+02 0.  0.
         24    2    1    2    0    0 -0.47011508722E+02  0.44681325642E+01  0.70122524388E+02  0.13947178249E+03  0.11092864158E+03 0.  0.
        -11    1    4    4    0    0 -0.28101615853E+02 -0.46669311453E+02  0.52479329684E+01  0.54729025622E+02  0.00000000000E+00 0.  1.
         12    1    4    4    0    0 -0.18909892869E+02  0.51137444017E+02  0.64874591420E+02  0.84742756864E+02  0.00000000000E+00 0. -1.
        -13    1    3    3    0    0  0.33894074937E+01 -0.22597504060E+02 -0.27325666966E+02  0.35620602860E+02  0.00000000000E+00 0.  1.
         13    1    3    3    0    0 -0.18077018125E+02  0.80873269970E+02 -0.43124695563E+02  0.93418433659E+02  0.00000000000E+00 0. -1.
         21    1    1    2  502  501  0.61699119353E+02 -0.62743898473E+02 -0.37573523322E+03  0.38590224618E+03  0.00000000000E+00 0.  1.
<scales pt_clust_5="13000.00000" pt_clust_6="13000.00000" pt_clust_7="13000.00000" pt_clust_8="13000.00000" pt_clust_9="87.99760"></scales>
<clustering>
<clus scale="   87.998">  2  9  1 -1</clus>
<clus scale="   89.867">  7  8 -1 -1</clus>
<clus scale="   95.814">  2  7  1 -1</clus>
<clus scale="  110.929">  5  6 -1 -1</clus>
<clus scale="  115.799">  1  5  2 -1</clus>
</clustering>
</event>
<event>
 9    2  0.6066854E-005  0.1266909E+03  0.7546771E-02  0.1235547E+00
          2   -1    0    0  502    0  0.00000000000E+00  0.00000000000E+00  0.62175902364E+03  0.62175902364E+03  0.00000000000E+00 0. -1.
         -1   -1    0    0    0  501 -0.00000000000E+00 -0.00000000000E+00 -0.38845250113E+02  0.38845250113E+02  0.00000000000E+00 0.  1.
         23    2    1    2    0    0 -0.11331660770E+02  0.10545413894E+03  0.19096345692E+03  0.23681203604E+03  0.91454450833E+02 0.  0.
         24    2    1    2    0    0  0.10923299413E+02 -0.80201454061E+02  0.37824610725E+03  0.39505776005E+03  0.80305195482E+02 0.  0.
        -13    1    4    4    0    0  0.17233662380E+02 -0.48725617965E+02  0.81007115628E+02  0.96090258337E+02  0.00000000000E+00 0.  1.
         14    1    4    4    0    0 -0.63103629673E+01 -0.31475836096E+02  0.29723899162E+03  0.29896750171E+03  0.00000000000E+00 0. -1.
        -11    1    3    3    0    0  0.13972147536E+02  0.10697895975E+03  0.11955546821E+03  0.16103797289E+03  0.00000000000E+00 0.  1.
         11    1    3    3    0    0 -0.25303808306E+02 -0.15248208045E+01  0.71407988713E+02  0.75774063144E+02  0.00000000000E+00 0. -1.
         21    1    1    2  502  501  0.40836135713E+00 -0.25252684883E+02  0.13704209360E+02  0.28734477670E+02  0.00000000000E+00 0.  1.
<scales pt_clust_5="13000.00000" pt_clust_6="13000.00000" pt_clust_7="13000.00000" pt_clust_8="13000.00000" pt_clust_9="25.25599"></scales>
<clustering>
<clus scale="   25.256">  2  9  1 -1</clus>
<clus scale="   80.305">  5  6 -1 -1</clus>
<clus scale="   91.454">  7  8 -1 -1</clus>
<clus scale="  118.893">  1  5  2 -1</clus>
<clus scale="  118.893">  1  5  2 -1</clus>
</clustering>
</event>
<event>
 9    2  0.6066854E-005  0.1081245E+03  0.7546771E-02  0.1268845E+00
          2   -1    0    0  502    0  0.00000000000E+00  0.00000000000E+00  0.33525551262E+03  0.33525551262E+03  0.00000000000E+00 0. -1.
         -1   -1    0    0    0  501 -0.00000000000E+00 -0.00000000000E+00 -0.59416940563E+02  0.59416940563E+02  0.00000000000E+00 0.  1.
         24    2    1    2    0    0  0.47982802039E+02 -0.97199361624E+01  0.24683949802E+02  0.99116934124E+02  0.82571440593E+02 0.  0.
         23    2    1    2    0    0 -0.52193658617E+02 -0.25890298992E+02  0.22669117223E+03  0.25214721861E+03  0.93780844013E+02 0.  0.
        -13    1    3    3    0    0  0.14374616232E+02 -0.40448943440E+02 -0.71986516457E+01  0.43526626365E+02  0.00000000000E+00 0.  1.
         14    1    3    3    0    0  0.33608185808E+02  0.30729007278E+02  0.31882601448E+02  0.55590307758E+02  0.00000000000E+00 0. -1.
        -11    1    4    4    0    0 -0.20121556064E+02 -0.59940547615E+02  0.11955672052E+03  0.13524627791E+03  0.00000000000E+00 0.  1.
         11    1    4    4    0    0 -0.32072102552E+02  0.34050248623E+02  0.10713445171E+03  0.11690094070E+03  0.00000000000E+00 0. -1.
         21    1    1    2  502  501  0.42108565771E+01  0.35610235154E+02  0.24463450026E+02  0.43408300450E+02  0.00000000000E+00 0. -1.
<scales pt_clust_5="13000.00000" pt_clust_6="13000.00000" pt_clust_7="13000.00000" pt_clust_8="13000.00000" pt_clust_9="35.85833"></scales>
<clustering>
<clus scale="   35.858">  2  9  1 -1</clus>
<clus scale="   82.571">  5  6 -1 -1</clus>
<clus scale="   93.781">  7  8 -1 -1</clus>
<clus scale="   98.560">  2  5  1 -1</clus>
<clus scale="  108.125">  1  5  2 -1</clus>
</clustering>
</event>
<event>
 9    2  0.6066854E-005  0.1354059E+03  0.7546771E-02  0.1221677E+00
         -1   -1    0    0    0  501 -0.00000000000E+00  0.00000000000E+00  0.11007591546E+03  0.11007591546E+03  0.00000000000E+00 0.  1.
          2   -1    0    0  502    0  0.00000000000E+00 -0.00000000000E+00 -0.83154889465E+03  0.83154889465E+03  0.00000000000E+00 0. -1.
         23    2    1    2    0    0 -0.49354007576E+02  0.64249638689E+02  0.20296560105E+01  0.12217338052E+03  0.91424183171E+02 0.  0.
         24    2    1    2    0    0  0.62100351480E+02 -0.80384899477E+02 -0.76339784437E+03  0.77456887576E+03  0.82840140013E+02 0.  0.
        -13    1    4    4    0    0  0.40137386020E+02  0.45598649671E+01 -0.17085101406E+03  0.17556158785E+03  0.00000000000E+00 0.  1.
         14    1    4    4    0    0  0.21962965460E+02 -0.84944764445E+02 -0.59254683031E+03  0.59900728791E+03  0.00000000000E+00 0. -1.
        -11    1    3    3    0    0 -0.57695177830E+02  0.46218267224E+01 -0.14634447272E+02  0.59701439463E+02  0.00000000000E+00 0.  1.
         11    1    3    3    0    0  0.83411702533E+01  0.59627811966E+02  0.16664103282E+02  0.62471941056E+02  0.00000000000E+00 0. -1.
         21    1    1    2  502  501 -0.12746343903E+02  0.16135260789E+02  0.39895209164E+02  0.44882553825E+02  0.00000000000E+00 0.  1.
<scales pt_clust_5="13000.00000" pt_clust_6="13000.00000" pt_clust_7="13000.00000" pt_clust_8="13000.00000" pt_clust_9="20.56249"></scales>
<clustering>
<clus scale="   20.562">  1  9  2 -1</clus>
<clus scale="   82.840">  5  6 -1 -1</clus>
<clus scale="   91.424">  7  8 -1 -1</clus>
<clus scale="  129.765">  2  5  1 -1</clus>
<clus scale="  129.765">  2  5  1 -1</clus>
</clustering>
</event>
<event>
 9    2  0.6066854E-005  0.1094221E+03  0.7546771E-02  0.1263690E+00
         -1   -1    0    0    0  501 -0.00000000000E+00  0.00000000000E+00  0.34263525899E+02  0.34263525899E+02  0.00000000000E+00 0.  1.
          2   -1    0    0  502    0  0.00000000000E+00 -0.00000000000E+00 -0.91091320427E+03  0.91091320427E+03  0.00000000000E+00 0. -1.
         23    2    1    2    0    0  0.36643217517E+02 -0.60259005599E+02 -0.10253703051E+03  0.15314144868E+03  0.89244537828E+02 0.  0.
         24    2    1    2    0    0 -0.58567875257E+02  0.25597435085E+02 -0.69463061967E+03  0.70259531339E+03  0.83922892739E+02 0.  0.
        -11    1    4    4    0    0 -0.31053391946E+02 -0.18484321915E+02 -0.11277092252E+03  0.11841986435E+03  0.00000000000E+00 0.  1.
         12    1    4    4    0    0 -0.27514483311E+02  0.44081757001E+02 -0.58185969715E+03  0.58417544904E+03  0.00000000000E+00 0. -1.
        -11    1    3    3    0    0  0.39862006044E+02  0.15900773477E+01 -0.88976623372E+01  0.40873906920E+02  0.00000000000E+00 0. -1.
         11    1    3    3    0    0 -0.32187885272E+01 -0.61849082947E+02 -0.93639368175E+02  0.11226754176E+03  0.00000000000E+00 0.  1.
         21    1    1    2  502  501  0.21924657740E+02  0.34661570514E+02 -0.79482028191E+02  0.89439968095E+02  0.00000000000E+00 0. -1.
<scales pt_clust_5="13000.00000" pt_clust_6="13000.00000" pt_clust_7="13000.00000" pt_clust_8="13000.00000" pt_clust_9="41.01360"></scales>
<clustering>
<clus scale="   41.014">  1  9  2 -1</clus>
<clus scale="   83.923">  5  6 -1 -1</clus>
<clus scale="   89.245">  7  8 -1 -1</clus>
<clus scale="  105.127">  2  5  1 -1</clus>
<clus scale="  105.127">  2  5  1 -1</clus>
</clustering>
</event>
<event>
 9    2  0.6066854E-005  0.9930730E+02  0.7546771E-02  0.1289940E+00
          2   -1    0    0  502    0  0.00000000000E+00  0.00000000000E+00  0.52202432565E+03  0.52202432565E+03  0.00000000000E+00 0. -1.
         -1   -1    0    0    0  501 -0.00000000000E+00 -0.00000000000E+00 -0.61012548676E+02  0.61012548676E+02  0.00000000000E+00 0.  1.
         23    2    1    2    0    0  0.72155507897E+01 -0.24818737748E+02  0.16694869935E+03  0.19391672679E+03  0.95203964179E+02 0.  0.
         24    2    1    2    0    0 -0.32690903967E+02  0.77883064543E+01  0.33035109556E+03  0.34162436398E+03  0.80287027612E+02 0.  0.
        -13    1    4    4    0    0  0.19835045651E+02 -0.83941106119E+01  0.34205007004E+02  0.40421190396E+02  0.00000000000E+00 0.  1.
         14    1    4    4    0    0 -0.52525949618E+02  0.16182417066E+02  0.29614608856E+03  0.30120317358E+03  0.00000000000E+00 0. -1.
        -13    1    3    3    0    0  0.20865698424E+02 -0.57667796293E+02  0.12243689114E+03  0.13693700892E+03  0.00000000000E+00 0.  1.
         13    1    3    3    0    0 -0.13650147634E+02  0.32849058545E+02  0.44511808213E+02  0.56979717867E+02  0.00000000000E+00 0. -1.
         21    1    1    2  502  501  0.25475353177E+02  0.17030431294E+02 -0.36288017945E+02  0.47495783560E+02  0.00000000000E+00 0.  1.
<scales pt_clust_5="13000.00000" pt_clust_6="13000.00000" pt_clust_7="13000.00000" pt_clust_8="13000.00000" pt_clust_9="30.64358"></scales>
<clustering>
<clus scale="   30.644">  2  9  1 -1</clus>
<clus scale="   80.287">  5  6 -1 -1</clus>
<clus scale="   85.113">  1  5  2 -1</clus>
<clus scale="   95.204">  7  8 -1 -1</clus>
<clus scale="   85.113">  1  5  2 -1</clus>
</clustering>
</event>
<event>
 9    2  0.6066854E-005  0.1267762E+03  0.7546771E-02  0.1236023E+00
         -1   -1    0    0    0  501 -0.00000000000E+00  0.00000000000E+00  0.35196869304E+03  0.35196869304E+03  0.00000000000E+00 0.  1.
          2   -1    0    0  502    0  0.00000000000E+00 -0.00000000000E+00 -0.19354769323E+03  0.19354769323E+03  0.00000000000E+00 0. -1.
         24    2    1    2    0    0  0.30758580840E+02  0.67401373947E+01  0.25309827824E+03  0.26701384963E+03  0.79032510384E+02 0.  0.
         23    2    1    2    0    0 -0.64206497485E+02  0.69108894162E+02 -0.13284910214E+03  0.18723958227E+03  0.92256510112E+02 0.  0.
        -13    1    3    3    0    0  0.31629905919E+02  0.34063460994E+01  0.29489083998E+02  0.43378107580E+02  0.00000000000E+00 0.  1.
         14    1    3    3    0    0 -0.87132507868E+00  0.33337912952E+01  0.22360919424E+03  0.22363574205E+03  0.00000000000E+00 0. -1.
        -13    1    4    4    0    0 -0.26655635886E+02 -0.44337243230E+01  0.40909003327E+01  0.27329769509E+02  0.00000000000E+00 0.  1.
         13    1    4    4    0    0 -0.37550861599E+02  0.73542618485E+02 -0.13694000247E+03  0.15990981276E+03  0.00000000000E+00 0. -1.
         21    1    1    2  502  501  0.33447916645E+02 -0.75849031556E+02  0.38171823709E+02  0.91262954374E+02  0.00000000000E+00 0. -1.
<scales pt_clust_5="13000.00000" pt_clust_6="13000.00000" pt_clust_7="13000.00000" pt_clust_8="13000.00000" pt_clust_9="82.89655"></scales>
<clustering>
<clus scale="   79.033">  5  6 -1 -1</clus>
<clus scale="   82.897">  1  9  2 -1</clus>
<clus scale="   92.257">  7  8 -1 -1</clus>
<clus scale="  117.504">  1  5  2 -1</clus>
<clus scale="  126.776">  2  5  1 -1</clus>
</clustering>
</event>
<event>
 9    2  0.6066854E-005  0.9423179E+02  0.7546771E-02  0.1298195E+00
         -1   -1    0    0    0  501 -0.00000000000E+00  0.00000000000E+00  0.12088215590E+03  0.12088215590E+03  0.00000000000E+00 0.  1.
          2   -1    0    0  502    0  0.00000000000E+00 -0.00000000000E+00 -0.46448966243E+03  0.46448966243E+03  0.00000000000E+00 0. -1.
         23    2    1    2    0    0 -0.14445101067E+02  0.12071719222E+02  0.24269415739E+01  0.92170740835E+02  0.90195166560E+02 0.  0.
         24    2    1    2    0    0 -0.30186579238E+02 -0.69383516816E+01 -0.40775178454E+03  0.41686387839E+03  0.80960515186E+02 0.  0.
        -13    1    4    4    0    0 -0.24081850701E+02  0.36744796489E+01 -0.28828339757E+02  0.37742688126E+02  0.00000000000E+00 0.  1.
         14    1    4    4    0    0 -0.61047285371E+01 -0.10612831330E+02 -0.37892344479E+03  0.37912119027E+03  0.00000000000E+00 0. -1.
        -11    1    3    3    0    0  0.21576839277E+02 -0.29177389007E+02 -0.59391425993E+01  0.36771639035E+02  0.00000000000E+00 0.  1.
         11    1    3    3    0    0 -0.36021940344E+02  0.41249108229E+02  0.83660841732E+01  0.55399101800E+02  0.00000000000E+00 0. -1.
         21    1    1    2  502  501  0.44631680305E+02 -0.51333675405E+01  0.61717336440E+02  0.76337199100E+02  0.00000000000E+00 0.  1.
<scales pt_clust_5="13000.00000" pt_clust_6="13000.00000" pt_clust_7="13000.00000" pt_clust_8="13000.00000" pt_clust_9="44.92592"></scales>
<clustering>
<clus scale="   44.926">  1  9  2 -1</clus>
<clus scale="   80.961">  5  6 -1 -1</clus>
<clus scale="   85.435">  2  5  1 -1</clus>
<clus scale="   90.195">  7  8 -1 -1</clus>
<clus scale="   85.435">  2  5  1 -1</clus>
</clustering>
</event>
<event>
 9    2  0.6066854E-005  0.1830754E+03  0.7546771E-02  0.1166288E+00
         -1   -1    0    0    0  501 -0.00000000000E+00  0.00000000000E+00  0.86695509247E+02  0.86695509247E+02  0.00000000000E+00 0.  1.
          2   -1    0    0  502    0  0.00000000000E+00 -0.00000000000E+00 -0.10325831834E+04  0.10325831834E+04  0.00000000000E+00 0. -1.
         23    2    1    2    0    0 -0.65536354235E+02  0.17781706071E+03 -0.43307221800E+03  0.48156700083E+03  0.91876599205E+02 0.  0.
         24    2    1    2    0    0  0.18176531686E+02 -0.14306980151E+03 -0.54597598400E+03  0.57025840851E+03  0.79407323063E+02 0.  0.
        -13    1    4    4    0    0  0.44864433196E+02 -0.48483713611E+02 -0.20278855302E+03  0.21327607716E+03  0.00000000000E+00 0.  1.
         14    1    4    4    0    0 -0.26687901510E+02 -0.94586087903E+02 -0.34318743098E+03  0.35698233134E+03  0.00000000000E+00 0. -1.
        -11    1    3    3    0    0 -0.59477122214E+02  0.43490604805E+02 -0.11962461266E+03  0.14049558259E+03  0.00000000000E+00 0. -1.
         11    1    3    3    0    0 -0.60592320205E+01  0.13432645590E+03 -0.31344760534E+03  0.34107141824E+03  0.00000000000E+00 0.  1.
         21    1    1    2  502  501  0.47359822549E+02 -0.34747259193E+02  0.33160527892E+02  0.67453283266E+02  0.00000000000E+00 0.  1.
<scales pt_clust_5="13000.00000" pt_clust_6="13000.00000" pt_clust_7="13000.00000" pt_clust_8="13000.00000" pt_clust_9="58.73947"></scales>
<clustering>
<clus scale="   58.739">  1  9  2 -1</clus>
<clus scale="   79.407">  5  6 -1 -1</clus>
<clus scale="   91.877">  7  8 -1 -1</clus>
<clus scale="  177.146">  2  5  1 -1</clus>
<clus scale="  177.146">  2  5  1 -1</clus>
</clustering>
</event>
<event>
 9    2  0.6066854E-005  0.1027598E+03  0.7546771E-02  0.1279522E+00
          2   -1    0    0  502    0  0.00000000000E+00  0.00000000000E+00  0.77205912572E+03  0.77205912572E+03  0.00000000000E+00 0. -1.
         -1   -1    0    0    0  501 -0.00000000000E+00 -0.00000000000E+00 -0.22062219314E+02  0.22062219314E+02  0.00000000000E+00 0.  1.
         23    2    1    2    0    0 -0.65236141080E+02  0.22513056798E+02  0.28802823668E+03  0.30994374332E+03  0.91336011867E+02 0.  0.
         24    2    1    2    0    0  0.23799428593E+02 -0.32232605084E+02  0.39231887216E+03  0.40255306459E+03  0.80805437486E+02 0.  0.
        -13    1    4    4    0    0  0.24122129605E+02 -0.10010182246E+02  0.30929911935E+02  0.40481357902E+02  0.00000000000E+00 0.  1.
         14    1    4    4    0    0 -0.32270101142E+00 -0.22222422838E+02  0.36138896022E+03  0.36207170669E+03  0.00000000000E+00 0. -1.
        -13    1    3    3    0    0 -0.46481219445E+02 -0.24895627792E+02  0.21160154798E+03  0.21807226131E+03  0.00000000000E+00 0. -1.
         13    1    3    3    0    0 -0.18754921635E+02  0.47408684590E+02  0.76426688706E+02  0.91871482010E+02  0.00000000000E+00 0.  1.
         21    1    1    2  502  501  0.41436712487E+02  0.97195482864E+01  0.69649797564E+02  0.81624537128E+02  0.00000000000E+00 0.  1.
<scales pt_clust_5="13000.00000" pt_clust_6="13000.00000" pt_clust_7="13000.00000" pt_clust_8="13000.00000" pt_clust_9="42.56138"></scales>
<clustering>
<clus scale="   42.561">  2  9  1 -1</clus>
<clus scale="   80.805">  5  6 -1 -1</clus>
<clus scale="   91.336">  7  8 -1 -1</clus>
<clus scale="   93.525">  1  5  2 -1</clus>
<clus scale="   93.525">  1  5  2 -1</clus>
</clustering>
</event>
<event>
 9    2  0.6066854E-005  0.9578164E+02  0.7546771E-02  0.1294585E+00
         -1   -1    0    0    0  501 -0.00000000000E+00  0.00000000000E+00  0.12894358180E+03  0.12894358180E+03  0.00000000000E+00 0.  1.
          2   -1    0    0  502    0  0.00000000000E+00 -0.00000000000E+00 -0.36869154165E+03  0.36869154165E+03  0.00000000000E+00 0. -1.
         23    2    1    2    0    0 -0.38240223237E+02  0.15561355671E+02  0.86131427045E+02  0.13144980905E+03  0.90310348851E+02 0.  0.
         24    2    1    2    0    0 -0.24743283392E+02  0.26414770552E+02 -0.14281052302E+03  0.16808653551E+03  0.80921367747E+02 0.  0.
        -11    1    4    4    0    0 -0.14163187423E+02 -0.19582798380E+02 -0.83288009592E+01  0.25562683658E+02  0.00000000000E+00 0.  1.
         12    1    4    4    0    0 -0.10580095969E+02  0.45997568932E+02 -0.13448172206E+03  0.14252385185E+03  0.00000000000E+00 0. -1.
        -13    1    3    3    0    0 -0.25515013664E+02  0.52242422394E+02  0.65140563736E+02  0.87313112782E+02  0.00000000000E+00 0.  1.
         13    1    3    3    0    0 -0.12725209573E+02 -0.36681066722E+02  0.20990863309E+02  0.44136696263E+02  0.00000000000E+00 0. -1.
         21    1    1    2  502  501  0.62983506629E+02 -0.41976126223E+02 -0.18306886387E+03  0.19809877890E+03  0.00000000000E+00 0. -1.
<scales pt_clust_5="13000.00000" pt_clust_6="13000.00000" pt_clust_7="13000.00000" pt_clust_8="13000.00000" pt_clust_9="75.68961"></scales>
<clustering>
<clus scale="   75.690">  2  9  1 -1</clus>
<clus scale="   80.921">  5  6 -1 -1</clus>
<clus scale="   86.985">  2  5  1 -1</clus>
<clus scale="   90.310">  7  8 -1 -1</clus>
<clus scale="   75.690">  2  5  1 -1</clus>
</clustering>
</event>
<event>
 9    2  0.6066854E-005  0.1688763E+03  0.7546771E-02  0.1180843E+00
          2   -1    0    0  502    0  0.00000000000E+00  0.00000000000E+00  0.53994999402E+03  0.53994999402E+03  0.00000000000E+00 0. -1.
         -1   -1    0    0    0  501 -0.00000000000E+00 -0.00000000000E+00 -0.11556276865E+03  0.11556276865E+03  0.00000000000E+00 0.  1.
         24    2    1    2    0    0 -0.88576506367E+02 -0.82099053066E+02  0.31586632682E+02  0.14830134653E+03  0.80059490534E+02 0.  0.
         23    2    1    2    0    0  0.12125760139E+03  0.83414034741E+02  0.42624726086E+03  0.46043040759E+03  0.92995299655E+02 0.  0.
        -11    1    3    3    0    0 -0.34794812311E+01 -0.27220961643E+02 -0.20668642784E+02  0.34355208295E+02  0.00000000000E+00 0.  1.
         12    1    3    3    0    0 -0.85097025136E+02 -0.54878091423E+02  0.52255275466E+02  0.11394613824E+03  0.00000000000E+00 0. -1.
        -13    1    4    4    0    0  0.62399841922E+02  0.16712954817E+02  0.79409865755E+02  0.10236693758E+03  0.00000000000E+00 0.  1.
         13    1    4    4    0    0  0.58857759470E+02  0.66701079924E+02  0.34683739510E+03  0.35806347001E+03  0.00000000000E+00 0. -1.
         21    1    1    2  502  501 -0.32681095025E+02 -0.13149816754E+01 -0.33446668176E+02  0.46781008549E+02  0.00000000000E+00 0.  1.
<scales pt_clust_5="13000.00000" pt_clust_6="13000.00000" pt_clust_7="13000.00000" pt_clust_8="13000.00000" pt_clust_9="32.70754"></scales>
<clustering>
<clus scale="   32.708">  2  9  1 -1</clus>
<clus scale="   80.059">  5  6 -1 -1</clus>
<clus scale="   92.995">  7  8 -1 -1</clus>
<clus scale="  162.113">  2  5  1 -1</clus>
<clus scale="  168.876">  1  5  2 -1</clus>
</clustering>
</event>
<event>
 9    2  0.6066854E-005  0.9540254E+02  0.7546771E-02  0.1297374E+00
          2   -1    0    0  502    0  0.00000000000E+00  0.00000000000E+00  0.99148495461E+02  0.99148495461E+02  0.00000000000E+00 0. -1.
         -1   -1    0    0    0  501 -0.00000000000E+00 -0.00000000000E+00 -0.42312865597E+03  0.42312865597E+03  0.00000000000E+00 0.  1.
         23    2    1    2    0    0 -0.27866340915E+02  0.10083206563E+02 -0.17547077214E+03  0.20071295697E+03  0.92830464887E+02 0.  0.
         24    2    1    2    0    0 -0.83688303423E+01 -0.22752793967E+02  0.63905513367E+02  0.10570869520E+03  0.80639237641E+02 0.  0.
        -13    1    4    4    0    0  0.13346163329E+02 -0.48373914581E+02  0.32939743583E+02  0.60026514099E+02  0.00000000000E+00 0.  1.
         14    1    4    4    0    0 -0.21714993672E+02  0.25621120614E+02  0.30965769784E+02  0.45682181099E+02  0.00000000000E+00 0. -1.
        -11    1    3    3    0    0 -0.90050667829E+01 -0.39074798720E+02 -0.46459972914E+02  0.61371493431E+02  0.00000000000E+00 0. -1.
         11    1    3    3    0    0 -0.18861274132E+02  0.49158005283E+02 -0.12901079923E+03  0.13934146354E+03  0.00000000000E+00 0.  1.
         21    1    1    2  502  501  0.36235171257E+02  0.12669587404E+02 -0.21241490174E+03  0.21585549926E+03  0.00000000000E+00 0.  1.
<scales pt_clust_5="13000.00000" pt_clust_6="13000.00000" pt_clust_7="13000.00000" pt_clust_8="13000.00000" pt_clust_9="38.38627"></scales>
<clustering>
<clus scale="   38.386">  2  9  1 -1</clus>
<clus scale="   80.639">  5  6 -1 -1</clus>
<clus scale="   83.587">  1  5  2 -1</clus>
<clus scale="   92.830">  7  8 -1 -1</clus>
<clus scale="   83.587">  1  5  2 -1</clus>
</clustering>
</event>
<event>
 9    2  0.6066854E-005  0.9817214E+02  0.7546771E-02  0.1290820E+00
         -1   -1    0    0    0  501 -0.00000000000E+00  0.00000000000E+00  0.37858725070E+03  0.37858725070E+03  0.00000000000E+00 0.  1.
          2   -1    0    0  502    0  0.00000000000E+00 -0.00000000000E+00 -0.53612279927E+02  0.53612279927E+02  0.00000000000E+00 0. -1.
         23    2    1    2    0    0 -0.39833688251E+02  0.20946721843E+02  0.23454172285E+03  0.25615200340E+03  0.92620414652E+02 0.  0.
         24    2    1    2    0    0  0.15179088329E+02 -0.27414141457E+02  0.44085797956E+01  0.86326178936E+02  0.80317082364E+02 0.  0.
        -11    1    4    4    0    0  0.35323222772E+01  0.24258275598E+02  0.19416830853E+02  0.31272264965E+02  0.00000000000E+00 0.  1.
         12    1    4    4    0    0  0.11646766052E+02 -0.51672417055E+02 -0.15008251057E+02  0.55053913971E+02  0.00000000000E+00 0. -1.
        -11    1    3    3    0    0 -0.61301359076E+02  0.26019654784E+02  0.21968409628E+03  0.22955605245E+03  0.00000000000E+00 0.  1.
         11    1    3    3    0    0  0.21467670825E+02 -0.50729329408E+01  0.14857626574E+02  0.26595950945E+02  0.00000000000E+00 0. -1.
         21    1    1    2  502  501  0.24654599922E+02  0.64674196136E+01  0.86024668124E+02  0.89721348293E+02  0.00000000000E+00 0.  1.
<scales pt_clust_5="13000.00000" pt_clust_6="13000.00000" pt_clust_7="13000.00000" pt_clust_8="13000.00000" pt_clust_9="25.48876"></scales>
<clustering>
<clus scale="   25.489">  1  9  2 -1</clus>
<clus scale="   80.317">  5  6 -1 -1</clus>
<clus scale="   86.661">  2  5  1 -1</clus>
<clus scale="   92.620">  7  8 -1 -1</clus>
<clus scale="   86.661">  2  5  1 -1</clus>
</clustering>
</event>
<event>
 9    2  0.1975374E-004  0.8873453E+02  0.7546771E-02  0.1308889E+00
         -1   -1    0    0    0  501 -0.00000000000E+00  0.00000000000E+00  0.34856805544E+03  0.34856805544E+03  0.00000000000E+00 0.  1.
          2   -1    0    0  502    0  0.00000000000E+00 -0.00000000000E+00 -0.42581505618E+03  0.42581505618E+03  0.00000000000E+00 0. -1.
         24    2    1    2    0    0 -0.31678106339E+02  0.25673371853E+02 -0.49644331234E+02  0.10248912223E+03  0.79855094447E+02 0.  0.
         23    2    1    2    0    0 -0.81738285307E+01 -0.26505182177E+02 -0.34279194716E+03  0.35419421072E+03  0.84722392074E+02 0.  0.
        -13    1    3    3    0    0  0.21693021109E+02  0.26264457146E+02 -0.30685243464E+02  0.45847497647E+02  0.00000000000E+00 0.  1.
         14    1    3    3    0    0 -0.53371127447E+02 -0.59108529307E+00 -0.18959087770E+02  0.56641624587E+02  0.00000000000E+00 0. -1.
        -11    1    4    4    0    0  0.30005143633E+02  0.92366355363E+01 -0.74370856050E+02  0.80725759892E+02  0.00000000000E+00 0.  1.
         11    1    4    4    0    0 -0.38178972164E+02 -0.35741817713E+02 -0.26842109111E+03  0.27346845083E+03  0.00000000000E+00 0. -1.
         21    1    1    2  502  501  0.39851934870E+02  0.83181032362E+00  0.31518927765E+03  0.31769977867E+03  0.00000000000E+00 0.  1.
<scales pt_clust_5="13000.00000" pt_clust_6="13000.00000" pt_clust_7="13000.00000" pt_clust_8="13000.00000" pt_clust_9="39.86061"></scales>
<clustering>
<clus scale="   39.861">  1  9  2 -1</clus>
<clus scale="   79.855">  5  6 -1 -1</clus>
<clus scale="   84.100">  1  5  2 -1</clus>
<clus scale="   84.722">  7  8 -1 -1</clus>
<clus scale="   88.735">  2  5  1 -1</clus>
</clustering>
</event>
<event>
 9    2  0.6066854E-005  0.2113135E+03  0.7546771E-02  0.1141862E+00
          2   -1    0    0  502    0  0.00000000000E+00  0.00000000000E+00  0.24729854958E+03  0.24729854958E+03  0.00000000000E+00 0. -1.
         -1   -1    0    0    0  501 -0.00000000000E+00 -0.00000000000E+00 -0.36354097905E+03  0.36354097905E+03  0.00000000000E+00 0.  1.
         23    2    1    2    0    0 -0.12894875696E+03 -0.11269036665E+03 -0.11922183333E+03  0.22942181331E+03  0.95360485654E+02 0.  0.
         24    2    1    2    0    0  0.13478248361E+03  0.14021471955E+03  0.13281462858E+03  0.24856889919E+03  0.79500230264E+02 0.  0.
        -11    1    4    4    0    0  0.71650880131E+02  0.78487813008E+02  0.24928601629E+02  0.10915869454E+03  0.00000000000E+00 0.  1.
         12    1    4    4    0    0  0.63131603483E+02  0.61726906543E+02  0.10788602695E+03  0.13941020465E+03  0.00000000000E+00 0. -1.
        -13    1    3    3    0    0 -0.22615493875E+00 -0.52572739107E+02 -0.44625179066E+02  0.68959050529E+02  0.00000000000E+00 0.  1.
         13    1    3    3    0    0 -0.12872260202E+03 -0.60117627543E+02 -0.74596654262E+02  0.16046276278E+03  0.00000000000E+00 0. -1.
         21    1    1    2  502  501 -0.58337266511E+01 -0.27524352902E+02 -0.12983522471E+03  0.13284881613E+03  0.00000000000E+00 0.  1.
<scales pt_clust_5="13000.00000" pt_clust_6="13000.00000" pt_clust_7="13000.00000" pt_clust_8="13000.00000" pt_clust_9="28.13578"></scales>
<clustering>
<clus scale="   28.136">  2  9  1 -1</clus>
<clus scale="   79.500">  5  6 -1 -1</clus>
<clus scale="   95.360">  7  8 -1 -1</clus>
<clus scale="  204.646">  1  5  2 -1</clus>
<clus scale="  204.646">  1  5  2 -1</clus>
</clustering>
</event>
<event>
 9    2  0.6066854E-005  0.9710108E+02  0.7546771E-02  0.1289759E+00
          2   -1    0    0  502    0  0.00000000000E+00  0.00000000000E+00  0.15439196916E+03  0.15439196916E+03  0.00000000000E+00 0. -1.
         -1   -1    0    0    0  501 -0.00000000000E+00 -0.00000000000E+00 -0.13875076699E+03  0.13875076699E+03  0.00000000000E+00 0.  1.
         24    2    1    2    0    0  0.20978777742E+02 -0.14211417365E+02 -0.46291158899E+02  0.96409485637E+02  0.80683604466E+02 0.  0.
         23    2    1    2    0    0 -0.37919438565E+02  0.28828763151E+02  0.10726740154E+03  0.14617715611E+03  0.87134861733E+02 0.  0.
        -11    1    3    3    0    0  0.44649509644E+02 -0.31871351554E+02 -0.33050609894E+02  0.64044551491E+02  0.00000000000E+00 0.  1.
         12    1    3    3    0    0 -0.23670731903E+02  0.17659934189E+02 -0.13240549004E+02  0.32364934146E+02  0.00000000000E+00 0. -1.
        -13    1    4    4    0    0  0.22423113064E+02  0.26193528039E+02  0.19432916338E+02  0.39579478875E+02  0.00000000000E+00 0.  1.
         13    1    4    4    0    0 -0.60342551629E+02  0.26352351121E+01  0.87834485199E+02  0.10659767723E+03  0.00000000000E+00 0. -1.
         21    1    1    2  502  501  0.16940660824E+02 -0.14617345786E+02 -0.45335040471E+02  0.50556094405E+02  0.00000000000E+00 0. -1.
<scales pt_clust_5="13000.00000" pt_clust_6="13000.00000" pt_clust_7="13000.00000" pt_clust_8="13000.00000" pt_clust_9="22.37527"></scales>
<clustering>
<clus scale="   22.375">  2  9  1 -1</clus>
<clus scale="   80.684">  5  6 -1 -1</clus>
<clus scale="   87.135">  7  8 -1 -1</clus>
<clus scale="   91.356">  2  5  1 -1</clus>
<clus scale="   97.101">  1  5  2 -1</clus>
</clustering>
</event>
<event>
 9    2  0.6066854E-005  0.2570021E+03  0.7546771E-02  0.1109414E+00
          2   -1    0    0  502    0  0.00000000000E+00  0.00000000000E+00  0.16379093710E+04  0.16379093710E+04  0.00000000000E+00 0. -1.
         -1   -1    0    0    0  501 -0.00000000000E+00 -0.00000000000E+00 -0.12554086787E+03  0.12554086787E+03  0.00000000000E+00 0.  1.
         23    2    1    2    0    0 -0.14008892235E+03  0.27032175024E+03  0.46417083742E+03  0.56255163564E+03  0.91164804745E+02 0.  0.
         24    2    1    2    0    0  0.40288721062E+02 -0.22187579265E+03  0.10622771152E+04  0.10890714067E+04  0.82412445300E+02 0.  0.
        -11    1    4    4    0    0  0.24681718100E+02 -0.56445774298E+02  0.15669021879E+03  0.16836608123E+03  0.00000000000E+00 0.  1.
         12    1    4    4    0    0  0.15607002962E+02 -0.16543001835E+03  0.90558689638E+03  0.92070532550E+03  0.00000000000E+00 0. -1.
        -11    1    3    3    0    0 -0.61696187395E+02  0.19081767326E+03  0.24527111893E+03  0.31682128361E+03  0.00000000000E+00 0.  1.
         11    1    3    3    0    0 -0.78392734957E+02  0.79504076985E+02  0.21889971850E+03  0.24573035203E+03  0.00000000000E+00 0. -1.
         21    1    1    2  502  501  0.99800201290E+02 -0.48445957594E+02 -0.14079449446E+02  0.11182719652E+03  0.00000000000E+00 0.  1.
<scales pt_clust_5="13000.00000" pt_clust_6="13000.00000" pt_clust_7="13000.00000" pt_clust_8="13000.00000" pt_clust_9="110.93733"></scales>
<clustering>
<clus scale="   82.412">  5  6 -1 -1</clus>
<clus scale="   91.165">  7  8 -1 -1</clus>
<clus scale="  110.937">  2  9  1 -1</clus>
<clus scale="  254.029">  1  5  2 -1</clus>
<clus scale="  254.029">  1  5  2 -1</clus>
</clustering>
</event>
<event>
 9    2  0.6066854E-005  0.9314418E+02  0.7546771E-02  0.1297604E+00
          2   -1    0    0  502    0  0.00000000000E+00  0.00000000000E+00  0.19209898981E+03  0.19209898981E+03  0.00000000000E+00 0. -1.
         -1   -1    0    0    0  501 -0.00000000000E+00 -0.00000000000E+00 -0.87254076610E+02  0.87254076610E+02  0.00000000000E+00 0.  1.
         23    2    1    2    0    0 -0.31937397083E+02 -0.73134035353E+00 -0.13459725151E+02  0.93891172679E+02  0.87257411804E+02 0.  0.
         24    2    1    2    0    0  0.20151824775E+02  0.29626041224E+02  0.12413134219E+03  0.15371675347E+03  0.83285363794E+02 0.  0.
        -11    1    4    4    0    0 -0.26038958199E+02 -0.27791015619E+01  0.13349049208E+02  0.29392990055E+02  0.00000000000E+00 0.  1.
         12    1    4    4    0    0  0.46190782974E+02  0.32405142786E+02  0.11078229298E+03  0.12432376341E+03  0.00000000000E+00 0. -1.
        -11    1    3    3    0    0 -0.54757685811E+02 -0.86602204884E+01 -0.31479552535E+02  0.63752378796E+02  0.00000000000E+00 0.  1.
         11    1    3    3    0    0  0.22820288728E+02  0.79288801349E+01  0.18019827383E+02  0.30138793884E+02  0.00000000000E+00 0. -1.
         21    1    1    2  502  501  0.11785572309E+02 -0.28894700871E+02 -0.58267038428E+01  0.31745140269E+02  0.00000000000E+00 0.  1.
<scales pt_clust_5="13000.00000" pt_clust_6="13000.00000" pt_clust_7="13000.00000" pt_clust_8="13000.00000" pt_clust_9="31.20582"></scales>
<clustering>
<clus scale="   31.206">  2  9  1 -1</clus>
<clus scale="   83.285">  5  6 -1 -1</clus>
<clus scale="   87.257">  7  8 -1 -1</clus>
<clus scale="   89.434">  1  5  2 -1</clus>
<clus scale="   89.434">  1  5  2 -1</clus>
</clustering>
</event>
<event>
 9    2  0.6066854E-005  0.1038918E+03  0.7546771E-02  0.1284415E+00
          2   -1    0    0  502    0  0.00000000000E+00  0.00000000000E+00  0.23065084448E+03  0.23065084448E+03  0.00000000000E+00 0. -1.
         -1   -1    0    0    0  501 -0.00000000000E+00 -0.00000000000E+00 -0.56962541591E+02  0.56962541591E+02  0.00000000000E+00 0.  1.
         23    2    1    2    0    0  0.82573621154E+01  0.75786685420E+01  0.30780877300E+02  0.10582903360E+03  0.10063151445E+03 0.  0.
         24    2    1    2    0    0 -0.55003479665E+01 -0.30892460518E+02  0.13002431512E+03  0.15500546977E+03  0.78331189136E+02 0.  0.
        -13    1    4    4    0    0 -0.28522695451E+02 -0.18313757152E+02  0.12336773803E+03  0.12793958200E+03  0.00000000000E+00 0.  1.
         14    1    4    4    0    0  0.23022347484E+02 -0.12578703366E+02  0.66565770916E+01  0.27065887767E+02  0.00000000000E+00 0. -1.
        -13    1    3    3    0    0 -0.44563236378E+02  0.14286381765E+02  0.62770619306E+01  0.47216355714E+02  0.00000000000E+00 0.  1.
         13    1    3    3    0    0  0.52820598493E+02 -0.67077132233E+01  0.24503815369E+02  0.58612677891E+02  0.00000000000E+00 0. -1.
         21    1    1    2  502  501 -0.27570141489E+01  0.23313791976E+02  0.12883110475E+02  0.26778882703E+02  0.00000000000E+00 0. -1.
<scales pt_clust_5="13000.00000" pt_clust_6="13000.00000" pt_clust_7="13000.00000" pt_clust_8="13000.00000" pt_clust_9="23.47624"></scales>
<clustering>
<clus scale="   23.476">  2  9  1 -1</clus>
<clus scale="   78.331">  5  6 -1 -1</clus>
<clus scale="   82.478">  1  5  2 -1</clus>
<clus scale="  100.632">  7  8 -1 -1</clus>
<clus scale="   82.478">  1  5  2 -1</clus>
</clustering>
</event>
<event>
 9    2  0.6066854E-005  0.1395765E+03  0.7546771E-02  0.1216851E+00
          4   -1    0    0  502    0  0.00000000000E+00  0.00000000000E+00  0.69530353150E+03  0.69530353150E+03  0.00000000000E+00 0. -1.
         -3   -1    0    0    0  501 -0.00000000000E+00 -0.00000000000E+00 -0.36652841538E+02  0.36652841538E+02  0.00000000000E+00 0.  1.
         24    2    1    2    0    0  0.50786449665E+02  0.10910579232E+03  0.32255261892E+03  0.35341725344E+03  0.79876314809E+02 0.  0.
         23    2    1    2    0    0 -0.21380754432E+02 -0.88201966953E+02  0.30242180346E+03  0.32918574256E+03  0.93099851027E+02 0.  0.
        -13    1    3    3    0    0 -0.37907203027E+01  0.36662219204E+02  0.31255638770E+02  0.48326005756E+02  0.00000000000E+00 0.  1.
         14    1    3    3    0    0  0.54577169968E+02  0.72443573119E+02  0.29129698015E+03  0.30509124768E+03  0.00000000000E+00 0. -1.
        -13    1    4    4    0    0  0.31708307310E+02 -0.55860496662E+02  0.19211109388E+03  0.20256476553E+03  0.00000000000E+00 0. -1.
         13    1    4    4    0    0 -0.53089061742E+02 -0.32341470291E+02  0.11031070958E+03  0.12662097703E+03  0.00000000000E+00 0.  1.
         21    1    1    2  502  501 -0.29405695233E+02 -0.20903825370E+02  0.33676267584E+02  0.49353377043E+02  0.00000000000E+00 0.  1.
<scales pt_clust_5="13000.00000" pt_clust_6="13000.00000" pt_clust_7="13000.00000" pt_clust_8="13000.00000" pt_clust_9="36.07859"></scales>
<clustering>
<clus scale="   36.079">  2  9  1 -1</clus>
<clus scale="   79.876">  5  6 -1 -1</clus>
<clus scale="   93.100">  7  8 -1 -1</clus>
<clus scale="  131.127">  2  5  1 -1</clus>
<clus scale="  139.576">  1  5  2 -1</clus>
</clustering>
</event>
<event>
 9    2  0.6066854E-005  0.1456000E+03  0.7546771E-02  0.1207371E+00
         -1   -1    0    0    0  501 -0.00000000000E+00  0.00000000000E+00  0.32710673484E+03  0.32710673484E+03  0.00000000000E+00 0.  1.
          2   -1    0    0  502    0  0.00000000000E+00 -0.00000000000E+00 -0.17604299070E+03  0.17604299070E+03  0.00000000000E+00 0. -1.
         23    2    1    2    0    0 -0.36154750060E+02  0.11377577264E+03  0.24890998569E+03  0.28997217067E+03  0.88744500629E+02 0.  0.
         24    2    1    2    0    0  0.56370374924E+02 -0.10047786686E+03 -0.11618001028E+03  0.18281914808E+03  0.81557496395E+02 0.  0.
        -11    1    4    4    0    0  0.37122347276E+02 -0.25966700805E+02 -0.22828819652E+01  0.45360222310E+02  0.00000000000E+00 0.  1.
         12    1    4    4    0    0  0.19248027648E+02 -0.74511166056E+02 -0.11389712832E+03  0.13745892577E+03  0.00000000000E+00 0. -1.
        -11    1    3    3    0    0 -0.62350933890E+02  0.97397395012E+02  0.21478494498E+03  0.24393946811E+03  0.00000000000E+00 0.  1.
         11    1    3    3    0    0  0.26196183830E+02  0.16378377630E+02  0.34125040714E+02  0.46032702558E+02  0.00000000000E+00 0. -1.
         21    1    1    2  502  501 -0.20215624864E+02 -0.13297905781E+02  0.18333768736E+02  0.30358406791E+02  0.00000000000E+00 0. -1.
<scales pt_clust_5="13000.00000" pt_clust_6="13000.00000" pt_clust_7="13000.00000" pt_clust_8="13000.00000" pt_clust_9="24.19723"></scales>
<clustering>
<clus scale="   24.197">  1  9  2 -1</clus>
<clus scale="   81.557">  5  6 -1 -1</clus>
<clus scale="   88.745">  7  8 -1 -1</clus>
<clus scale="  141.334">  2  5  1 -1</clus>
<clus scale="  141.334">  2  5  1 -1</clus>
</clustering>
</event>
<event>
 9    2  0.6066854E-005  0.9317009E+02  0.7546771E-02  0.1302700E+00
         -1   -1    0    0    0  501 -0.00000000000E+00  0.00000000000E+00  0.24433688520E+03  0.24433688520E+03  0.00000000000E+00 0.  1.
          2   -1    0    0  502    0  0.00000000000E+00 -0.00000000000E+00 -0.17261040225E+03  0.17261040225E+03  0.00000000000E+00 0. -1.
         23    2    1    2    0    0 -0.26591232358E+02  0.27560013385E+02  0.11704360034E+03  0.15342546153E+03  0.91506939020E+02 0.  0.
         24    2    1    2    0    0  0.13823744625E+02 -0.80094659857E+01 -0.14230801874E+03  0.16375977104E+03  0.79438296508E+02 0.  0.
        -11    1    4    4    0    0  0.14654067069E+02  0.28812130926E+02 -0.25171356035E+02  0.40969229121E+02  0.00000000000E+00 0.  1.
         12    1    4    4    0    0 -0.83032244388E+00 -0.36821596912E+02 -0.11713666271E+03  0.12279054192E+03  0.00000000000E+00 0. -1.
        -13    1    3    3    0    0 -0.16198548807E+02  0.46515089446E+02  0.18621659205E+02  0.52657503940E+02  0.00000000000E+00 0.  1.
         13    1    3    3    0    0 -0.10392683552E+02 -0.18955076062E+02  0.98421941136E+02  0.10076795759E+03  0.00000000000E+00 0. -1.
         21    1    1    2  502  501  0.12767487734E+02 -0.19550547399E+02  0.96990901356E+02  0.99762054873E+02  0.00000000000E+00 0.  1.
<scales pt_clust_5="13000.00000" pt_clust_6="13000.00000" pt_clust_7="13000.00000" pt_clust_8="13000.00000" pt_clust_9="23.35022"></scales>
<clustering>
<clus scale="   23.350">  1  9  2 -1</clus>
<clus scale="   79.438">  5  6 -1 -1</clus>
<clus scale="   81.349">  2  5  1 -1</clus>
<clus scale="   91.507">  7  8 -1 -1</clus>
<clus scale="   81.349">  2  5  1 -1</clus>
</clustering>
</event>
<event>
 9    2  0.6066854E-005  0.1127148E+03  0.7546771E-02  0.1259710E+00
         -1   -1    0    0    0  501 -0.00000000000E+00  0.00000000000E+00  0.68311722057E+02  0.68311722057E+02  0.00000000000E+00 0.  1.
          2   -1    0    0  502    0  0.00000000000E+00 -0.00000000000E+00 -0.75069564228E+03  0.75069564228E+03  0.00000000000E+00 0. -1.
         23    2    1    2    0    0  0.35923618902E+02 -0.56402792243E+02 -0.15648265647E+03  0.19330374255E+03  0.91693695214E+02 0.  0.
         24    2    1    2    0    0 -0.15797294166E+02  0.64008287588E+02 -0.56850284022E+03  0.57797724727E+03  0.80719289116E+02 0.  0.
        -13    1    4    4    0    0 -0.72950531447E+01  0.53115561773E+02 -0.15082332595E+03  0.16006922363E+03  0.00000000000E+00 0.  1.
         14    1    4    4    0    0 -0.85022410217E+01  0.10892725816E+02 -0.41767951427E+03  0.41790802364E+03  0.00000000000E+00 0. -1.
        -13    1    3    3    0    0  0.24671098321E+02  0.16890952117E+02 -0.85800266499E+02  0.90860624514E+02  0.00000000000E+00 0. -1.
         13    1    3    3    0    0  0.11252520581E+02 -0.73293744360E+02 -0.70682389968E+02  0.10244311804E+03  0.00000000000E+00 0.  1.
         21    1    1    2  502  501 -0.20126324735E+02 -0.76054953454E+01  0.42601576468E+02  0.47726374515E+02  0.00000000000E+00 0.  1.
<scales pt_clust_5="13000.00000" pt_clust_6="13000.00000" pt_clust_7="13000.00000" pt_clust_8="13000.00000" pt_clust_9="21.51540"></scales>
<clustering>
<clus scale="   21.515">  1  9  2 -1</clus>
<clus scale="   80.719">  5  6 -1 -1</clus>
<clus scale="   91.694">  7  8 -1 -1</clus>
<clus scale="  103.983">  2  5  1 -1</clus>
<clus scale="  103.983">  2  5  1 -1</clus>
</clustering>
</event>
<event>
 9    2  0.6066854E-005  0.9982555E+02  0.7546771E-02  0.1286846E+00
         -1   -1    0    0    0  501 -0.00000000000E+00  0.00000000000E+00  0.54430086611E+02  0.54430086611E+02  0.00000000000E+00 0.  1.
          2   -1    0    0  502    0  0.00000000000E+00 -0.00000000000E+00 -0.52475110264E+03  0.52475110264E+03  0.00000000000E+00 0. -1.
         23    2    1    2    0    0  0.35486123152E+01 -0.34041611317E+02 -0.70184247512E+02  0.11990647067E+03  0.90996204098E+02 0.  0.
         24    2    1    2    0    0  0.21920013577E+02  0.37546272303E+02 -0.41825744780E+03  0.42782169692E+03  0.78752156517E+02 0.  0.
        -11    1    4    4    0    0  0.25087823414E+02 -0.11914719731E+02 -0.59570351901E+02  0.65726602343E+02  0.00000000000E+00 0.  1.
         12    1    4    4    0    0 -0.31678098373E+01  0.49460992034E+02 -0.35868709590E+03  0.36209509457E+03  0.00000000000E+00 0. -1.
        -13    1    3    3    0    0  0.41423405674E+02 -0.41008580582E+01 -0.55631862544E+02  0.69481074434E+02  0.00000000000E+00 0. -1.
         13    1    3    3    0    0 -0.37874793359E+02 -0.29940753259E+02 -0.14552384968E+02  0.50425396240E+02  0.00000000000E+00 0.  1.
         21    1    1    2  502  501 -0.25468625892E+02 -0.35046609853E+01  0.18120679285E+02  0.31453021655E+02  0.00000000000E+00 0.  1.
<scales pt_clust_5="13000.00000" pt_clust_6="13000.00000" pt_clust_7="13000.00000" pt_clust_8="13000.00000" pt_clust_9="25.70863"></scales>
<clustering>
<clus scale="   25.709">  1  9  2 -1</clus>
<clus scale="   78.752">  5  6 -1 -1</clus>
<clus scale="   88.807">  2  5  1 -1</clus>
<clus scale="   90.996">  7  8 -1 -1</clus>
<clus scale="   88.807">  2  5  1 -1</clus>
</clustering>
</event>
<event>
 9    2  0.6066854E-005  0.1099024E+03  0.7546771E-02  0.1265165E+00
          2   -1    0    0  502    0  0.00000000000E+00  0.00000000000E+00  0.60932208054E+03  0.60932208054E+03  0.00000000000E+00 0. -1.
         -1   -1    0    0    0  501 -0.00000000000E+00 -0.00000000000E+00 -0.77390308353E+02  0.77390308353E+02  0.00000000000E+00 0.  1.
         23    2    1    2    0    0 -0.26416313202E+01  0.80159067549E+01  0.86737303238E+02  0.12638892954E+03  0.91539984489E+02 0.  0.
         24    2    1    2    0    0  0.56579243128E+02  0.63504690417E+02  0.45536838480E+03  0.47016820243E+03  0.80397240243E+02 0.  0.
        -13    1    4    4    0    0  0.58266842864E+01  0.48549970579E+02  0.10500446536E+03  0.11583172121E+03  0.00000000000E+00 0.  1.
         14    1    4    4    0    0  0.50752558842E+02  0.14954719838E+02  0.35036391944E+03  0.35433648122E+03  0.00000000000E+00 0. -1.
        -13    1    3    3    0    0  0.64013546634E+01 -0.20324242955E+02 -0.11172392919E+02  0.24059812068E+02  0.00000000000E+00 0.  1.
         13    1    3    3    0    0 -0.90429859836E+01  0.28340149710E+02  0.97909696157E+02  0.10232911747E+03  0.00000000000E+00 0. -1.
         21    1    1    2  502  501 -0.53937611808E+02 -0.71520597172E+02 -0.10173915853E+02  0.90155256925E+02  0.00000000000E+00 0.  1.
<scales pt_clust_5="13000.00000" pt_clust_6="13000.00000" pt_clust_7="13000.00000" pt_clust_8="13000.00000" pt_clust_9="89.57936"></scales>
<clustering>
<clus scale="   80.397">  5  6 -1 -1</clus>
<clus scale="   89.579">  2  9  1 -1</clus>
<clus scale="   91.540">  7  8 -1 -1</clus>
<clus scale="  100.810">  1  5  2 -1</clus>
<clus scale="  100.810">  1  5  2 -1</clus>
</clustering>
</event>
<event>
 9    2  0.6066854E-005  0.2321467E+03  0.7546771E-02  0.1125527E+00
          2   -1    0    0  502    0  0.00000000000E+00  0.00000000000E+00  0.19312834498E+04  0.19312834498E+04  0.00000000000E+00 0. -1.
         -1   -1    0    0    0  501 -0.00000000000E+00 -0.00000000000E+00 -0.49316698011E+02  0.49316698011E+02  0.00000000000E+00 0.  1.
         23    2    1    2    0    0 -0.22566799034E+03  0.10576424296E+02  0.53707443006E+03  0.58947257617E+03  0.89392796228E+02 0.  0.
         24    2    1    2    0    0  0.20676804928E+03 -0.65245814149E+00  0.13501122413E+04  0.13691516659E+04  0.94972459995E+02 0.  0.
        -11    1    4    4    0    0  0.15300244678E+03  0.21989792783E+02  0.72341522472E+03  0.73974515008E+03  0.00000000000E+00 0.  1.
         12    1    4    4    0    0  0.53765602507E+02 -0.22642250924E+02  0.62669701658E+03  0.62940651580E+03  0.00000000000E+00 0. -1.
        -13    1    3    3    0    0 -0.13693153835E+03  0.47372339779E+02  0.35904780389E+03  0.38718175351E+03  0.00000000000E+00 0.  1.
         13    1    3    3    0    0 -0.88736451991E+02 -0.36795915483E+02  0.17802662617E+03  0.20229082266E+03  0.00000000000E+00 0. -1.
         21    1    1    2  502  501  0.18899941058E+02 -0.99239661542E+01 -0.52199195268E+01  0.21975905808E+02  0.00000000000E+00 0.  1.
<scales pt_clust_5="13000.00000" pt_clust_6="13000.00000" pt_clust_7="13000.00000" pt_clust_8="13000.00000" pt_clust_9="21.34696"></scales>
<clustering>
<clus scale="   21.347">  2  9  1 -1</clus>
<clus scale="   89.393">  7  8 -1 -1</clus>
<clus scale="   94.972">  5  6 -1 -1</clus>
<clus scale="  229.920">  2  7  1 -1</clus>
<clus scale="  232.147">  1  5  2 -1</clus>
</clustering>
</event>
<event>
 9    2  0.6066854E-005  0.1014204E+03  0.7546771E-02  0.1282847E+00
          2   -1    0    0  502    0  0.00000000000E+00  0.00000000000E+00  0.14856530696E+04  0.14856530696E+04  0.00000000000E+00 0. -1.
         -1   -1    0    0    0  501 -0.00000000000E+00 -0.00000000000E+00 -0.47785008162E+02  0.47785008162E+02  0.00000000000E+00 0.  1.
         23    2    1    2    0    0 -0.11570461628E+01  0.29415192179E+01  0.11167531734E+03  0.14636129899E+03  0.94552958962E+02 0.  0.
         24    2    1    2    0    0  0.39784451744E+02  0.40397779070E+01  0.13416800001E+04  0.13448787923E+04  0.83633850173E+02 0.  0.
        -11    1    4    4    0    0  0.38337886989E+02 -0.50823232860E+00  0.22892559754E+03  0.23211415529E+03  0.00000000000E+00 0.  1.
         12    1    4    4    0    0  0.14465647556E+01  0.45480102356E+01  0.11127544025E+04  0.11127646370E+04  0.00000000000E+00 0. -1.
        -11    1    3    3    0    0 -0.29079165732E+02  0.82239046831E+01 -0.92156871091E+00  0.30233752278E+02  0.00000000000E+00 0.  1.
         11    1    3    3    0    0  0.27922119569E+02 -0.52823854653E+01  0.11259688605E+03  0.11612754672E+03  0.00000000000E+00 0. -1.
         21    1    1    2  502  501 -0.38627405582E+02 -0.69812971248E+01 -0.15487255937E+02  0.42197986539E+02  0.00000000000E+00 0.  1.
<scales pt_clust_5="13000.00000" pt_clust_6="13000.00000" pt_clust_7="13000.00000" pt_clust_8="13000.00000" pt_clust_9="39.25322"></scales>
<clustering>
<clus scale="   39.253">  2  9  1 -1</clus>
<clus scale="   83.634">  5  6 -1 -1</clus>
<clus scale="   91.326">  1  5  2 -1</clus>
<clus scale="   94.553">  7  8 -1 -1</clus>
<clus scale="   91.326">  1  5  2 -1</clus>
</clustering>
</event>
<event>
 9    2  0.6066854E-005  0.1894097E+03  0.7546771E-02  0.1192947E+00
          2   -1    0    0  502    0  0.00000000000E+00  0.00000000000E+00  0.30310999105E+03  0.30310999105E+03  0.00000000000E+00 0. -1.
         -1   -1    0    0    0  501 -0.00000000000E+00 -0.00000000000E+00 -0.38473734843E+03  0.38473734843E+03  0.00000000000E+00 0.  1.
         23    2    1    2    0    0 -0.10571142886E+03  0.10001466642E+03  0.48172934569E+02  0.17941280490E+03  0.93222761420E+02 0.  0.
         24    2    1    2    0    0 -0.32289149008E+02 -0.23096307081E+01  0.15446636259E+03  0.17768090364E+03  0.81625503427E+02 0.  0.
        -13    1    4    4    0    0  0.27216660213E+02  0.53981933651E+01  0.45814886976E+02  0.53562029026E+02  0.00000000000E+00 0.  1.
         14    1    4    4    0    0 -0.59505809220E+02 -0.77078240732E+01  0.10865147561E+03  0.12411887461E+03  0.00000000000E+00 0. -1.
        -11    1    3    3    0    0  0.89164178219E+00  0.46498855158E+02  0.37335667393E+02  0.59639673169E+02  0.00000000000E+00 0.  1.
         11    1    3    3    0    0 -0.10660307064E+03  0.53515811263E+02  0.10837267176E+02  0.11977313173E+03  0.00000000000E+00 0. -1.
         21    1    1    2  502  501  0.13800057786E+03 -0.97705035713E+02 -0.28426665454E+03  0.33075363094E+03  0.00000000000E+00 0.  1.
<scales pt_clust_5="13000.00000" pt_clust_6="13000.00000" pt_clust_7="13000.00000" pt_clust_8="13000.00000" pt_clust_9="164.88040"></scales>
<clustering>
<clus scale="   81.626">  5  6 -1 -1</clus>
<clus scale="   87.810">  1  5  2 -1</clus>
<clus scale="   93.223">  7  8 -1 -1</clus>
<clus scale="  164.880">  2  9  1 -1</clus>
<clus scale="   87.810">  1  5  2 -1</clus>
</clustering>
</event>
<event>
 9    2  0.6066854E-005  0.1110446E+03  0.7546771E-02  0.1263624E+00
          2   -1    0    0  502    0  0.00000000000E+00  0.00000000000E+00  0.48583699291E+03  0.48583699291E+03  0.00000000000E+00 0. -1.
         -1   -1    0    0    0  501 -0.00000000000E+00 -0.00000000000E+00 -0.11140950385E+03  0.11140950385E+03  0.00000000000E+00 0.  1.
         23    2    1    2    0    0 -0.69118587512E+02 -0.23222934455E+02 -0.38321536799E+02  0.12465286326E+03  0.93558069196E+02 0.  0.
         24    2    1    2    0    0  0.59154307553E+02 -0.15382706734E+01  0.42951165456E+03  0.44107554543E+03  0.81029482238E+02 0.  0.
        -13    1    4    4    0    0  0.29117234807E+02  0.31172008030E+02  0.10190112379E+03  0.11046875793E+03  0.00000000000E+00 0.  1.
         14    1    4    4    0    0  0.30037072746E+02 -0.32710278703E+02  0.32761053077E+03  0.33060678751E+03  0.00000000000E+00 0. -1.
        -13    1    3    3    0    0 -0.33981091411E+02  0.24089028721E+02  0.15887019906E+02  0.44580189319E+02  0.00000000000E+00 0. -1.
         13    1    3    3    0    0 -0.35137496101E+02 -0.47311963176E+02 -0.54208556706E+02  0.80072673940E+02  0.00000000000E+00 0.  1.
         21    1    1    2  502  501  0.99642799587E+01  0.24761205129E+02 -0.16762628702E+02  0.31518088069E+02  0.00000000000E+00 0. -1.
<scales pt_clust_5="13000.00000" pt_clust_6="13000.00000" pt_clust_7="13000.00000" pt_clust_8="13000.00000" pt_clust_9="26.69090"></scales>
<clustering>
<clus scale="   26.691">  2  9  1 -1</clus>
<clus scale="   81.029">  5  6 -1 -1</clus>
<clus scale="   93.558">  7  8 -1 -1</clus>
<clus scale="  100.715">  1  5  2 -1</clus>
<clus scale="  100.715">  1  5  2 -1</clus>
</clustering>
</event>
<event>
 9    2  0.6066854E-005  0.1374246E+03  0.7546771E-02  0.1219321E+00
         -1   -1    0    0    0  501 -0.00000000000E+00  0.00000000000E+00  0.50944567652E+02  0.50944567652E+02  0.00000000000E+00 0.  1.
          2   -1    0    0  502    0  0.00000000000E+00 -0.00000000000E+00 -0.88734586863E+03  0.88734586863E+03  0.00000000000E+00 0. -1.
         23    2    1    2    0    0  0.56404033647E+02  0.53110369479E+02 -0.12052482748E+03  0.17001327802E+03  0.91521332526E+02 0.  0.
         24    2    1    2    0    0 -0.29466947795E+02 -0.10822608336E+03 -0.68650182918E+03  0.70026084963E+03  0.80618297734E+02 0.  0.
        -11    1    4    4    0    0 -0.22369184677E+02 -0.94389889188E+02 -0.34425506487E+03  0.35766098654E+03  0.00000000000E+00 0.  1.
         12    1    4    4    0    0 -0.70977631186E+01 -0.13836194167E+02 -0.34224676431E+03  0.34259986309E+03  0.00000000000E+00 0. -1.
        -13    1    3    3    0    0  0.29039395166E+02  0.76753800907E+02 -0.96113489586E+02  0.12638130916E+03  0.00000000000E+00 0.  1.
         13    1    3    3    0    0  0.27364638481E+02 -0.23643431428E+02 -0.24411337891E+02  0.43631968859E+02  0.00000000000E+00 0. -1.
         21    1    1    2  502  501 -0.26937085852E+02  0.55115713876E+02 -0.29374644320E+02  0.68016308627E+02  0.00000000000E+00 0.  1.
<scales pt_clust_5="13000.00000" pt_clust_6="13000.00000" pt_clust_7="13000.00000" pt_clust_8="13000.00000" pt_clust_9="61.34614"></scales>
<clustering>
<clus scale="   61.346">  1  9  2 -1</clus>
<clus scale="   80.618">  5  6 -1 -1</clus>
<clus scale="   91.521">  7  8 -1 -1</clus>
<clus scale="  130.417">  2  5  1 -1</clus>
<clus scale="  130.417">  2  5  1 -1</clus>
</clustering>
</event>
<event>
 9    2  0.6066854E-005  0.9860160E+02  0.7546771E-02  0.1289645E+00
          2   -1    0    0  502    0  0.00000000000E+00  0.00000000000E+00  0.13989678574E+04  0.13989678574E+04  0.00000000000E+00 0. -1.
         -1   -1    0    0    0  501 -0.00000000000E+00 -0.00000000000E+00 -0.46097037922E+02  0.46097037922E+02  0.00000000000E+00 0.  1.
         23    2    1    2    0    0  0.26925447347E+02  0.25352554897E+02  0.18064647315E+02  0.10091129818E+03  0.92135915169E+02 0.  0.
         24    2    1    2    0    0 -0.28293962295E+02  0.29533231249E+02  0.10667538707E+04  0.10705364218E+04  0.80072776674E+02 0.  0.
        -11    1    4    4    0    0 -0.54644604946E+00  0.24164856359E+02  0.84842729502E+02  0.88218635421E+02  0.00000000000E+00 0.  1.
         12    1    4    4    0    0 -0.27747516246E+02  0.53683748901E+01  0.98191114123E+03  0.98231778635E+03  0.00000000000E+00 0. -1.
        -11    1    3    3    0    0 -0.25465296584E+02 -0.55898842570E+01 -0.16576717564E+02  0.30895237519E+02  0.00000000000E+00 0.  1.
         11    1    3    3    0    0  0.52390743932E+02  0.30942439154E+02  0.34641364879E+02  0.70016060666E+02  0.00000000000E+00 0. -1.
         21    1    1    2  502  501  0.13685149481E+01 -0.54885786146E+02  0.26805230144E+03  0.27361717538E+03  0.00000000000E+00 0. -1.
<scales pt_clust_5="13000.00000" pt_clust_6="13000.00000" pt_clust_7="13000.00000" pt_clust_8="13000.00000" pt_clust_9="54.90284"></scales>
<clustering>
<clus scale="   54.903">  1  9  2 -1</clus>
<clus scale="   80.073">  5  6 -1 -1</clus>
<clus scale="   87.435">  1  5  2 -1</clus>
<clus scale="   92.136">  7  8 -1 -1</clus>
<clus scale="   54.903">  1  5  2 -1</clus>
</clustering>
</event>
<event>
 9    2  0.6066854E-005  0.9521592E+02  0.7546771E-02  0.1297612E+00
          2   -1    0    0  502    0  0.00000000000E+00  0.00000000000E+00  0.92096085614E+03  0.92096085614E+03  0.00000000000E+00 0. -1.
         -1   -1    0    0    0  501 -0.00000000000E+00 -0.00000000000E+00 -0.45573578790E+02  0.45573578790E+02  0.00000000000E+00 0.  1.
         23    2    1    2    0    0  0.30302786178E+02  0.22295515754E+02  0.37272880870E+02  0.10623523417E+03  0.92094019667E+02 0.  0.
         24    2    1    2    0    0 -0.23220487185E+02  0.68193616260E+01  0.82204812321E+03  0.82629978634E+03  0.80140659572E+02 0.  0.
        -13    1    4    4    0    0 -0.20222678856E+02 -0.17512052561E+01  0.46968901312E+02  0.51167383658E+02  0.00000000000E+00 0.  1.
         14    1    4    4    0    0 -0.29978083292E+01  0.85705668821E+01  0.77507922189E+03  0.77513240268E+03  0.00000000000E+00 0. -1.
        -13    1    3    3    0    0  0.34158498291E+02 -0.91235501598E+01 -0.20128522868E+02  0.40684144404E+02  0.00000000000E+00 0.  1.
         13    1    3    3    0    0 -0.38557121131E+01  0.31419065914E+02  0.57401403738E+02  0.65551089769E+02  0.00000000000E+00 0. -1.
         21    1    1    2  502  501 -0.70822989924E+01 -0.29114877380E+02  0.16066273272E+02  0.33999414418E+02  0.00000000000E+00 0.  1.
<scales pt_clust_5="13000.00000" pt_clust_6="13000.00000" pt_clust_7="13000.00000" pt_clust_8="13000.00000" pt_clust_9="29.96390"></scales>
<clustering>
<clus scale="   29.964">  2  9  1 -1</clus>
<clus scale="   80.141">  5  6 -1 -1</clus>
<clus scale="   83.710">  1  5  2 -1</clus>
<clus scale="   92.094">  7  8 -1 -1</clus>
<clus scale="   83.710">  1  5  2 -1</clus>
</clustering>
</event>
<event>
 9    2  0.6066854E-005  0.9727171E+02  0.7546771E-02  0.1290067E+00
         -1   -1    0    0    0  501 -0.00000000000E+00  0.00000000000E+00  0.32170965232E+03  0.32170965232E+03  0.00000000000E+00 0.  1.
          2   -1    0    0  502    0  0.00000000000E+00 -0.00000000000E+00 -0.39223079145E+02  0.39223079145E+02  0.00000000000E+00 0. -1.
         24    2    1    2    0    0  0.38586850793E+02  0.34079549167E+02  0.14653393944E+03  0.17443055651E+03  0.79394350624E+02 0.  0.
         23    2    1    2    0    0 -0.38223070442E+02 -0.10825731889E+02  0.76309242443E+02  0.12248493916E+03  0.87185206620E+02 0.  0.
        -13    1    3    3    0    0  0.55983703603E+02  0.20961152488E+02  0.13911239232E+03  0.15141268995E+03  0.00000000000E+00 0.  1.
         14    1    3    3    0    0 -0.17396852810E+02  0.13118396680E+02  0.74215471243E+01  0.23017866558E+02  0.00000000000E+00 0. -1.
        -11    1    4    4    0    0 -0.13026664870E+02 -0.33989338457E+02  0.80165520433E+02  0.88042488565E+02  0.00000000000E+00 0.  1.
         11    1    4    4    0    0 -0.25196405572E+02  0.23163606567E+02 -0.38562779903E+01  0.34442450594E+02  0.00000000000E+00 0. -1.
         21    1    1    2  502  501 -0.36378035061E+00 -0.23253817278E+02  0.59643391289E+02  0.64017235793E+02  0.00000000000E+00 0. -1.
<scales pt_clust_5="13000.00000" pt_clust_6="13000.00000" pt_clust_7="13000.00000" pt_clust_8="13000.00000" pt_clust_9="23.25666"></scales>
<clustering>
<clus scale="   23.257">  1  9  2 -1</clus>
<clus scale="   79.394">  5  6 -1 -1</clus>
<clus scale="   87.185">  7  8 -1 -1</clus>
<clus scale="   90.355">  1  5  2 -1</clus>
<clus scale="   97.272">  2  5  1 -1</clus>
</clustering>
</event>
<event>
 9    2  0.6066854E-005  0.1230759E+03  0.7546771E-02  0.1255843E+00
         -1   -1    0    0    0  501 -0.00000000000E+00  0.00000000000E+00  0.74307735296E+02  0.74307735296E+02  0.00000000000E+00 0.  1.
          2   -1    0    0  502    0  0.00000000000E+00 -0.00000000000E+00 -0.43280218009E+03  0.43280218009E+03  0.00000000000E+00 0. -1.
         23    2    1    2    0    0 -0.20959229284E+02  0.48356997248E+02 -0.21958771667E+03  0.24347034171E+03  0.91001942314E+02 0.  0.
         24    2    1    2    0    0 -0.11358591453E+02  0.33265891995E+02 -0.15213604542E+03  0.17486033949E+03  0.78709115361E+02 0.  0.
        -11    1    4    4    0    0 -0.30755590544E+02 -0.98964807025E+01 -0.96804233811E+02  0.10205344856E+03  0.00000000000E+00 0.  1.
         12    1    4    4    0    0  0.19396999090E+02  0.43162372698E+02 -0.55331811611E+02  0.72806890929E+02  0.00000000000E+00 0. -1.
        -13    1    3    3    0    0  0.23663808281E+02 -0.12455979566E+02 -0.34854222495E+02  0.43931128770E+02  0.00000000000E+00 0.  1.
         13    1    3    3    0    0 -0.44623037564E+02  0.60812976814E+02 -0.18473349417E+03  0.19953921294E+03  0.00000000000E+00 0. -1.
         21    1    1    2  502  501  0.32317820737E+02 -0.81622889243E+02  0.13229317299E+02  0.88779234181E+02  0.00000000000E+00 0.  1.
<scales pt_clust_5="13000.00000" pt_clust_6="13000.00000" pt_clust_7="13000.00000" pt_clust_8="13000.00000" pt_clust_9="82.86336"></scales>
<clustering>
<clus scale="   78.709">  5  6 -1 -1</clus>
<clus scale="   86.202">  2  5  1 -1</clus>
<clus scale="   82.863">  1  9  2 -1</clus>
<clus scale="   91.002">  7  8 -1 -1</clus>
<clus scale="   86.202">  2  5  1 -1</clus>
</clustering>
</event>
<event>
 9    2  0.6066854E-005  0.1057431E+03  0.7546771E-02  0.1272877E+00
         -1   -1    0    0    0  501 -0.00000000000E+00  0.00000000000E+00  0.38034177021E+03  0.38034177021E+03  0.00000000000E+00 0.  1.
          2   -1    0    0  502    0  0.00000000000E+00 -0.00000000000E+00 -0.76660924172E+02  0.76660924172E+02  0.00000000000E+00 0. -1.
         24    2    1    2    0    0 -0.96330766204E+01 -0.43314353087E+02  0.20621028432E+03  0.22567416554E+03  0.80232277067E+02 0.  0.
         23    2    1    2    0    0 -0.21077752668E+02  0.55074309718E+02 -0.19843397477E+02  0.10949250528E+03  0.90096598388E+02 0.  0.
        -11    1    3    3    0    0  0.34762184375E+02 -0.27481818696E+02  0.10806081841E+03  0.11679383673E+03  0.00000000000E+00 0.  1.
         12    1    3    3    0    0 -0.44395260996E+02 -0.15832534391E+02  0.98149465911E+02  0.10888032881E+03  0.00000000000E+00 0. -1.
        -13    1    4    4    0    0  0.34958119715E+02  0.12339268962E+02 -0.42383391751E+01  0.37313418652E+02  0.00000000000E+00 0.  1.
         13    1    4    4    0    0 -0.56035872383E+02  0.42735040756E+02 -0.15605058301E+02  0.72179086630E+02  0.00000000000E+00 0. -1.
         21    1    1    2  502  501  0.30710829288E+02 -0.11759956631E+02  0.11731395920E+03  0.12183602356E+03  0.00000000000E+00 0.  1.
<scales pt_clust_5="13000.00000" pt_clust_6="13000.00000" pt_clust_7="13000.00000" pt_clust_8="13000.00000" pt_clust_9="32.88543"></scales>
<clustering>
<clus scale="   32.885">  1  9  2 -1</clus>
<clus scale="   80.232">  5  6 -1 -1</clus>
<clus scale="   90.097">  7  8 -1 -1</clus>
<clus scale="   97.475">  1  5  2 -1</clus>
<clus scale="  105.743">  2  5  1 -1</clus>
</clustering>
</event>
<event>
 9    2  0.6066854E-005  0.1037507E+03  0.7546771E-02  0.1277008E+00
          2   -1    0    0  502    0  0.00000000000E+00  0.00000000000E+00  0.84508592213E+03  0.84508592213E+03  0.00000000000E+00 0. -1.
         -1   -1    0    0    0  501 -0.00000000000E+00 -0.00000000000E+00 -0.25054304248E+03  0.25054304248E+03  0.00000000000E+00 0.  1.
         23    2    1    2    0    0  0.28836270915E+02 -0.82390511271E+01 -0.22979299091E+03  0.24874795100E+03  0.90395309472E+02 0.  0.
         24    2    1    2    0    0 -0.48774497205E+02  0.32900812859E+02  0.79611396442E+03  0.80442855378E+03  0.99229223086E+02 0.  0.
        -13    1    4    4    0    0 -0.39191111554E+02  0.46756013543E+02  0.22670937621E+03  0.23477480548E+03  0.00000000000E+00 0.  1.
         14    1    4    4    0    0 -0.95833856512E+01 -0.13855200684E+02  0.56940458821E+03  0.56965374829E+03  0.00000000000E+00 0. -1.
        -13    1    3    3    0    0 -0.24371142983E+02 -0.20478987461E+02 -0.14070523794E+03  0.14426124054E+03  0.00000000000E+00 0.  1.
         13    1    3    3    0    0  0.53207413898E+02  0.12239936334E+02 -0.89087752967E+02  0.10448671047E+03  0.00000000000E+00 0. -1.
         21    1    1    2  502  501  0.19938226290E+02 -0.24661761732E+02  0.28221906135E+02  0.42452459825E+02  0.00000000000E+00 0.  1.
<scales pt_clust_5="13000.00000" pt_clust_6="13000.00000" pt_clust_7="13000.00000" pt_clust_8="13000.00000" pt_clust_9="31.71333"></scales>
<clustering>
<clus scale="   31.713">  1  9  2 -1</clus>
<clus scale="   90.395">  7  8 -1 -1</clus>
<clus scale="   95.337">  2  7  1 -1</clus>
<clus scale="   99.229">  5  6 -1 -1</clus>
<clus scale="   31.713">  1  5  2 -1</clus>
</clustering>
</event>
<event>
 9    2  0.6066854E-005  0.1504167E+03  0.7546771E-02  0.1202233E+00
          2   -1    0    0  502    0  0.00000000000E+00  0.00000000000E+00  0.18220655856E+04  0.18220655856E+04  0.00000000000E+00 0. -1.
         -1   -1    0    0    0  501 -0.00000000000E+00 -0.00000000000E+00 -0.57386995341E+02  0.57386995341E+02  0.00000000000E+00 0.  1.
         23    2    1    2    0    0  0.79374153343E+02 -0.74196401009E+02  0.76522195525E+02  0.16183742179E+03  0.92359853518E+02 0.  0.
         24    2    1    2    0    0 -0.32867640395E+02  0.11603639628E+03  0.16145086147E+04  0.16209847475E+04  0.80054716610E+02 0.  0.
        -11    1    4    4    0    0  0.58401097997E+01  0.22140149281E+02  0.82652061092E+02  0.85765122838E+02  0.00000000000E+00 0.  1.
         12    1    4    4    0    0 -0.38707750194E+02  0.93896246996E+02  0.15318565537E+04  0.15352196247E+04  0.00000000000E+00 0. -1.
        -11    1    3    3    0    0  0.33911885216E+02 -0.85980534629E+02  0.33997290510E+02  0.98480881678E+02  0.00000000000E+00 0.  1.
         11    1    3    3    0    0  0.45462268127E+02  0.11784133620E+02  0.42524905015E+02  0.63356540112E+02  0.00000000000E+00 0. -1.
         21    1    1    2  502  501 -0.46506512948E+02 -0.41839995268E+02  0.73647780014E+02  0.96630411630E+02  0.00000000000E+00 0. -1.
<scales pt_clust_5="13000.00000" pt_clust_6="13000.00000" pt_clust_7="13000.00000" pt_clust_8="13000.00000" pt_clust_9="62.55750"></scales>
<clustering>
<clus scale="   62.558">  2  9  1 -1</clus>
<clus scale="   80.055">  5  6 -1 -1</clus>
<clus scale="   92.360">  7  8 -1 -1</clus>
<clus scale="  143.191">  1  5  2 -1</clus>
<clus scale="  143.191">  1  5  2 -1</clus>
</clustering>
</event>
<event>
 9    2  0.6066854E-005  0.1563642E+03  0.7546771E-02  0.1209733E+00
          2   -1    0    0  502    0  0.00000000000E+00  0.00000000000E+00  0.72074547138E+03  0.72074547138E+03  0.00000000000E+00 0. -1.
         -1   -1    0    0    0  501 -0.00000000000E+00 -0.00000000000E+00 -0.16993635028E+03  0.16993635028E+03  0.00000000000E+00 0.  1.
         24    2    1    2    0    0 -0.12344650897E+03 -0.13441789518E+01  0.51584531905E+02  0.15312084198E+03  0.74459256801E+02 0.  0.
         23    2    1    2    0    0 -0.12422527833E+02  0.58814808003E+02  0.56551590435E+03  0.57582722677E+03  0.90306457026E+02 0.  0.
        -13    1    3    3    0    0 -0.10554331023E+03  0.28539473783E+02  0.39030905500E+02  0.11609178904E+03  0.00000000000E+00 0.  1.
         14    1    3    3    0    0 -0.17903198740E+02 -0.29883652734E+02  0.12553626404E+02  0.37029052942E+02  0.00000000000E+00 0. -1.
        -11    1    4    4    0    0  0.12774894383E+02 -0.20950773989E+02  0.14688533013E+03  0.14892089532E+03  0.00000000000E+00 0.  1.
         11    1    4    4    0    0 -0.25197422216E+02  0.79765581991E+02  0.41863057422E+03  0.42690633145E+03  0.00000000000E+00 0. -1.
         21    1    1    2  502  501  0.13586903681E+03 -0.57470629051E+02 -0.66291315141E+02  0.16173375291E+03  0.00000000000E+00 0.  1.
<scales pt_clust_5="13000.00000" pt_clust_6="13000.00000" pt_clust_7="13000.00000" pt_clust_8="13000.00000" pt_clust_9="137.49755"></scales>
<clustering>
<clus scale="   74.459">  5  6 -1 -1</clus>
<clus scale="   90.306">  7  8 -1 -1</clus>
<clus scale="  108.484">  1  7  2 -1</clus>
<clus scale="  137.498">  2  9  1 -1</clus>
<clus scale="  108.484">  1  5  2 -1</clus>
</clustering>
</event>
<event>
 9    2  0.6066854E-005  0.9602261E+02  0.7546771E-02  0.1296209E+00
          2   -1    0    0  502    0  0.00000000000E+00  0.00000000000E+00  0.22491702377E+03  0.22491702377E+03  0.00000000000E+00 0. -1.
         -1   -1    0    0    0  501 -0.00000000000E+00 -0.00000000000E+00 -0.17635549849E+03  0.17635549849E+03  0.00000000000E+00 0.  1.
         23    2    1    2    0    0 -0.39683680072E+02 -0.81997816271E+00 -0.76538833261E+02  0.12666016769E+03  0.92785442036E+02 0.  0.
         24    2    1    2    0    0  0.21769779071E+02 -0.93643597828E+01  0.18946108781E+03  0.20703327452E+03  0.80035357498E+02 0.  0.
        -11    1    4    4    0    0 -0.23676142330E+02  0.63302851210E+01  0.22438720813E+02  0.33228427845E+02  0.00000000000E+00 0.  1.
         12    1    4    4    0    0  0.45445921402E+02 -0.15694644904E+02  0.16702236699E+03  0.17380484667E+03  0.00000000000E+00 0. -1.
        -13    1    3    3    0    0 -0.63265659799E+02  0.98543149590E+00 -0.80802169737E+02  0.10262799530E+03  0.00000000000E+00 0.  1.
         13    1    3    3    0    0  0.23581979726E+02 -0.18054096586E+01  0.42633364763E+01  0.24032172390E+02  0.00000000000E+00 0. -1.
         21    1    1    2  502  501  0.17913901001E+02  0.10184337945E+02 -0.64360729266E+02  0.67579080048E+02  0.00000000000E+00 0. -1.
<scales pt_clust_5="13000.00000" pt_clust_6="13000.00000" pt_clust_7="13000.00000" pt_clust_8="13000.00000" pt_clust_9="20.60652"></scales>
<clustering>
<clus scale="   20.607">  2  9  1 -1</clus>
<clus scale="   80.035">  5  6 -1 -1</clus>
<clus scale="   83.767">  1  5  2 -1</clus>
<clus scale="   92.785">  7  8 -1 -1</clus>
<clus scale="   83.767">  1  5  2 -1</clus>
</clustering>
</event>
<event>
 9    2  0.6066854E-005  0.1173121E+03  0.7546771E-02  0.1250795E+00
         -1   -1    0    0    0  501 -0.00000000000E+00  0.00000000000E+00  0.29380711519E+02  0.29380711519E+02  0.00000000000E+00 0.  1.
          2   -1    0    0  502    0  0.00000000000E+00 -0.00000000000E+00 -0.88093877960E+03  0.88093877960E+03  0.00000000000E+00 0. -1.
         23    2    1    2    0    0  0.21096399181E+02  0.47128256715E+02 -0.21144221854E+03  0.23569068145E+03  0.90422093014E+02 0.  0.
         24    2    1    2    0    0 -0.65344688255E+02 -0.85031237199E+02 -0.28837458159E+03  0.31809484691E+03  0.80772475146E+02 0.  0.
        -13    1    4    4    0    0 -0.68125171717E+02 -0.81900020902E+02 -0.17660866758E+03  0.20625051251E+03  0.00000000000E+00 0.  1.
         14    1    4    4    0    0  0.27804834617E+01 -0.31312162970E+01 -0.11176591400E+03  0.11184433440E+03  0.00000000000E+00 0. -1.
        -11    1    3    3    0    0 -0.28072103951E+02  0.10737819233E+02 -0.23824830602E+02  0.38353178947E+02  0.00000000000E+00 0. -1.
         11    1    3    3    0    0  0.49168503132E+02  0.36390437482E+02 -0.18761738793E+03  0.19733750251E+03  0.00000000000E+00 0.  1.
         21    1    1    2  502  501  0.44248289074E+02  0.37902980484E+02 -0.35174126796E+03  0.35653396276E+03  0.00000000000E+00 0.  1.
<scales pt_clust_5="13000.00000" pt_clust_6="13000.00000" pt_clust_7="13000.00000" pt_clust_8="13000.00000" pt_clust_9="58.26274"></scales>
<clustering>
<clus scale="   58.263">  2  9  1 -1</clus>
<clus scale="   80.772">  5  6 -1 -1</clus>
<clus scale="   90.422">  7  8 -1 -1</clus>
<clus scale="  110.046">  2  5  1 -1</clus>
<clus scale="   58.263">  2  5  1 -1</clus>
</clustering>
</event>
<event>
 9    2  0.6066854E-005  0.1339533E+03  0.7546771E-02  0.1224285E+00
          2   -1    0    0  502    0  0.00000000000E+00  0.00000000000E+00  0.38611413659E+03  0.38611413659E+03  0.00000000000E+00 0. -1.
         -1   -1    0    0    0  501 -0.00000000000E+00 -0.00000000000E+00 -0.57735399732E+02  0.57735399732E+02  0.00000000000E+00 0.  1.
         24    2    1    2    0    0 -0.80620022296E+02  0.36382134006E+02  0.89810855133E+02  0.14937922237E+03  0.80155565661E+02 0.  0.
         23    2    1    2    0    0  0.10166878261E+03 -0.27483553387E+02  0.23231477266E+03  0.27077777460E+03  0.90876633748E+02 0.  0.
        -13    1    3    3    0    0 -0.23138564328E+02  0.34649242664E+02 -0.12454319827E+01  0.41683501259E+02  0.00000000000E+00 0.  1.
         14    1    3    3    0    0 -0.57481457968E+02  0.17328913427E+01  0.91056287116E+02  0.10769572111E+03  0.00000000000E+00 0. -1.
        -13    1    4    4    0    0  0.47780791474E+02 -0.57114679242E+02  0.15523515918E+03  0.17217155765E+03  0.00000000000E+00 0. -1.
         13    1    4    4    0    0  0.53887991134E+02  0.29631125855E+02  0.77079613479E+02  0.98606216954E+02  0.00000000000E+00 0.  1.
         21    1    1    2  502  501 -0.21048760312E+02 -0.88985806197E+01  0.62531090690E+01  0.23692539348E+02  0.00000000000E+00 0.  1.
<scales pt_clust_5="13000.00000" pt_clust_6="13000.00000" pt_clust_7="13000.00000" pt_clust_8="13000.00000" pt_clust_9="22.85246"></scales>
<clustering>
<clus scale="   22.852">  2  9  1 -1</clus>
<clus scale="   80.156">  5  6 -1 -1</clus>
<clus scale="   90.877">  7  8 -1 -1</clus>
<clus scale="  126.925">  2  5  1 -1</clus>
<clus scale="  133.953">  1  5  2 -1</clus>
</clustering>
</event>
<event>
 9    2  0.6066854E-005  0.9595272E+02  0.7546771E-02  0.1294401E+00
          2   -1    0    0  502    0  0.00000000000E+00  0.00000000000E+00  0.39080150665E+03  0.39080150665E+03  0.00000000000E+00 0. -1.
         -1   -1    0    0    0  501 -0.00000000000E+00 -0.00000000000E+00 -0.51694992982E+02  0.51694992982E+02  0.00000000000E+00 0.  1.
         23    2    1    2    0    0  0.29081262370E+02  0.55508306824E+01  0.44950105804E+02  0.10450821488E+03  0.89581936931E+02 0.  0.
         24    2    1    2    0    0 -0.33211947788E+02  0.14707203162E+02  0.30306735417E+03  0.31547483407E+03  0.79719599031E+02 0.  0.
        -13    1    4    4    0    0 -0.35224873175E+02 -0.27678631379E+02  0.14108169264E+03  0.14802345194E+03  0.00000000000E+00 0.  1.
         14    1    4    4    0    0  0.20129253872E+01  0.42385834540E+02  0.16198566152E+03  0.16745138213E+03  0.00000000000E+00 0. -1.
        -11    1    3    3    0    0  0.20354048252E+01 -0.35289569836E+02 -0.36118586907E+01  0.35532268929E+02  0.00000000000E+00 0.  1.
         11    1    3    3    0    0  0.27045857545E+02  0.40840400519E+02  0.48561964495E+02  0.68975945955E+02  0.00000000000E+00 0. -1.
         21    1    1    2  502  501  0.41306854174E+01 -0.20258033844E+02 -0.89109463039E+01  0.22513450674E+02  0.00000000000E+00 0.  1.
<scales pt_clust_5="13000.00000" pt_clust_6="13000.00000" pt_clust_7="13000.00000" pt_clust_8="13000.00000" pt_clust_9="20.67488"></scales>
<clustering>
<clus scale="   20.675">  2  9  1 -1</clus>
<clus scale="   79.720">  5  6 -1 -1</clus>
<clus scale="   86.817">  1  5  2 -1</clus>
<clus scale="   89.582">  7  8 -1 -1</clus>
<clus scale="   86.817">  1  5  2 -1</clus>
</clustering>
</event>
<event>
 9    2  0.6066854E-005  0.1880318E+03  0.7546771E-02  0.1161441E+00
         -1   -1    0    0    0  501 -0.00000000000E+00  0.00000000000E+00  0.22410481321E+03  0.22410481321E+03  0.00000000000E+00 0.  1.
          2   -1    0    0  502    0  0.00000000000E+00 -0.00000000000E+00 -0.21400299982E+03  0.21400299982E+03  0.00000000000E+00 0. -1.
         23    2    1    2    0    0  0.14984948378E+03  0.87060794028E+02  0.53291458786E+02  0.20376205907E+03  0.92976058704E+02 0.  0.
         24    2    1    2    0    0 -0.15358398909E+03 -0.45118094560E+02 -0.59069845575E+02  0.18934222825E+03  0.82082571728E+02 0.  0.
        -11    1    4    4    0    0 -0.72925370840E+02  0.20458652537E+02 -0.20511560777E+02  0.78469040401E+02  0.00000000000E+00 0.  1.
         12    1    4    4    0    0 -0.80658618253E+02 -0.65576747097E+02 -0.38558284797E+02  0.11087318785E+03  0.00000000000E+00 0. -1.
        -13    1    3    3    0    0  0.71948812938E+01  0.37095813071E+02  0.35002947699E+02  0.51507980080E+02  0.00000000000E+00 0.  1.
         13    1    3    3    0    0  0.14265460248E+03  0.49964980956E+02  0.18288511087E+02  0.15225407899E+03  0.00000000000E+00 0. -1.
         21    1    1    2  502  501  0.37345053160E+01 -0.41942699467E+02  0.15880200174E+02  0.45003525708E+02  0.00000000000E+00 0. -1.
<scales pt_clust_5="13000.00000" pt_clust_6="13000.00000" pt_clust_7="13000.00000" pt_clust_8="13000.00000" pt_clust_9="42.10863"></scales>
<clustering>
<clus scale="   42.109">  1  9  2 -1</clus>
<clus scale="   82.083">  5  6 -1 -1</clus>
<clus scale="   92.976">  7  8 -1 -1</clus>
<clus scale="  182.891">  2  5  1 -1</clus>
<clus scale="  182.891">  2  5  1 -1</clus>
</clustering>
</event>
<event>
 9    2  0.6066854E-005  0.1011198E+03  0.7546771E-02  0.1284341E+00
          2   -1    0    0  502    0  0.00000000000E+00  0.00000000000E+00  0.77332542243E+02  0.77332542243E+02  0.00000000000E+00 0. -1.
         -1   -1    0    0    0  501 -0.00000000000E+00 -0.00000000000E+00 -0.50957845326E+03  0.50957845326E+03  0.00000000000E+00 0.  1.
         23    2    1    2    0    0 -0.42962589682E+02 -0.45592813042E+02 -0.15775208488E+03  0.19371591296E+03  0.93357623874E+02 0.  0.
         24    2    1    2    0    0  0.35511562790E+02  0.64287949325E+01  0.24351827517E+02  0.91702026532E+02  0.80708423789E+02 0.  0.
        -11    1    4    4    0    0  0.75403266943E+01 -0.21529921870E+02 -0.21363673592E+02  0.31253809555E+02  0.00000000000E+00 0.  1.
         12    1    4    4    0    0  0.27971236096E+02  0.27958716802E+02  0.45715501109E+02  0.60448216976E+02  0.00000000000E+00 0. -1.
        -13    1    3    3    0    0 -0.16677501655E+02 -0.46720994776E+02 -0.15980378469E+03  0.16732674626E+03  0.00000000000E+00 0.  1.
         13    1    3    3    0    0 -0.26285088028E+02  0.11281817336E+01  0.20516998094E+01  0.26389166693E+02  0.00000000000E+00 0. -1.
         21    1    1    2  502  501  0.74510268923E+01  0.39164018110E+02 -0.29884565366E+03  0.30149305602E+03  0.00000000000E+00 0.  1.
<scales pt_clust_5="13000.00000" pt_clust_6="13000.00000" pt_clust_7="13000.00000" pt_clust_8="13000.00000" pt_clust_9="39.86650"></scales>
<clustering>
<clus scale="   39.867">  2  9  1 -1</clus>
<clus scale="   80.708">  5  6 -1 -1</clus>
<clus scale="   89.574">  1  5  2 -1</clus>
<clus scale="   93.358">  7  8 -1 -1</clus>
<clus scale="   89.574">  1  5  2 -1</clus>
</clustering>
</event>
<event>
 9    2  0.6066854E-005  0.1035037E+03  0.7546771E-02  0.1280138E+00
         -3   -1    0    0    0  501 -0.00000000000E+00  0.00000000000E+00  0.11457290316E+04  0.11457290316E+04  0.00000000000E+00 0.  1.
          4   -1    0    0  502    0  0.00000000000E+00 -0.00000000000E+00 -0.18838976035E+02  0.18838976035E+02  0.00000000000E+00 0. -1.
         23    2    1    2    0    0  0.42508072927E+02  0.78315886618E+02  0.63578405246E+03  0.64759364467E+03  0.84946176477E+02 0.  0.
         24    2    1    2    0    0 -0.53899509111E+02 -0.13952605050E+02  0.19963016085E+03  0.21825950989E+03  0.68448376628E+02 0.  0.
        -11    1    4    4    0    0 -0.53206822473E+02  0.11738220087E+02  0.17244991515E+03  0.18085277162E+03  0.00000000000E+00 0.  1.
         12    1    4    4    0    0 -0.69268663829E+00 -0.25690825137E+02  0.27180245707E+02  0.37406738266E+02  0.00000000000E+00 0. -1.
        -13    1    3    3    0    0  0.68327869736E+02  0.50197861616E+02  0.42327142502E+03  0.43167953661E+03  0.00000000000E+00 0.  1.
         13    1    3    3    0    0 -0.25819796809E+02  0.28118025002E+02  0.21251262744E+03  0.21591410806E+03  0.00000000000E+00 0. -1.
         21    1    1    2  502  501  0.11391436184E+02 -0.64363281568E+02  0.29147584225E+03  0.29871485308E+03  0.00000000000E+00 0.  1.
<scales pt_clust_5="13000.00000" pt_clust_6="13000.00000" pt_clust_7="13000.00000" pt_clust_8="13000.00000" pt_clust_9="65.36357"></scales>
<clustering>
<clus scale="   65.364">  1  9  2 -1</clus>
<clus scale="   68.448">  5  6 -1 -1</clus>
<clus scale="   84.946">  7  8 -1 -1</clus>
<clus scale="   90.456">  2  5  1 -1</clus>
<clus scale="   90.456">  2  5  1 -1</clus>
</clustering>
</event>
<event>
 9    2  0.6066854E-005  0.2536213E+03  0.7546771E-02  0.1130920E+00
          2   -1    0    0  502    0  0.00000000000E+00  0.00000000000E+00  0.27933229306E+04  0.27933229306E+04  0.00000000000E+00 0. -1.
         -1   -1    0    0    0  501 -0.00000000000E+00 -0.00000000000E+00 -0.41583115055E+02  0.41583115055E+02  0.00000000000E+00 0.  1.
         24    2    1    2    0    0  0.12889442503E+03 -0.33372272485E+02  0.42341146876E+03  0.45067927278E+03  0.78147640129E+02 0.  0.
         23    2    1    2    0    0  0.29330314871E+02 -0.19068274275E+03  0.67187608427E+03  0.70521819156E+03  0.93247248411E+02 0.  0.
        -11    1    3    3    0    0  0.99089095154E+02  0.12018488239E+02  0.28667632413E+03  0.30355626769E+03  0.00000000000E+00 0.  1.
         12    1    3    3    0    0  0.29805329874E+02 -0.45390760724E+02  0.13673514463E+03  0.14712300509E+03  0.00000000000E+00 0. -1.
        -11    1    4    4    0    0  0.22465735370E+02 -0.14404905329E+03  0.61140312702E+03  0.62854484545E+03  0.00000000000E+00 0. -1.
         11    1    4    4    0    0  0.68645795004E+01 -0.46633689452E+02  0.60472957255E+02  0.76673346104E+02  0.00000000000E+00 0.  1.
         21    1    1    2  502  501 -0.15822473990E+03  0.22405501523E+03  0.16564522625E+04  0.16790085813E+04  0.00000000000E+00 0. -1.
<scales pt_clust_5="13000.00000" pt_clust_6="13000.00000" pt_clust_7="13000.00000" pt_clust_8="13000.00000" pt_clust_9="235.85736"></scales>
<clustering>
<clus scale="   78.148">  5  6 -1 -1</clus>
<clus scale="   93.247">  7  8 -1 -1</clus>
<clus scale="  154.384">  2  5  1 -1</clus>
<clus scale="  235.857">  1  9  2 -1</clus>
<clus scale="  235.857">  1  5  2 -1</clus>
</clustering>
</event>
<event>
 9    2  0.6066854E-005  0.1180812E+03  0.7546771E-02  0.1248048E+00
         -1   -1    0    0    0  501 -0.00000000000E+00  0.00000000000E+00  0.50404819791E+02  0.50404819791E+02  0.00000000000E+00 0.  1.
          2   -1    0    0  502    0  0.00000000000E+00 -0.00000000000E+00 -0.59310221066E+03  0.59310221066E+03  0.00000000000E+00 0. -1.
         23    2    1    2    0    0  0.55635136742E+02 -0.51729460441E+02 -0.96433604871E+02  0.14996523938E+03  0.86133195433E+02 0.  0.
         24    2    1    2    0    0 -0.73213907261E+02  0.38336540280E+02 -0.45528928944E+03  0.46967040242E+03  0.80448637640E+02 0.  0.
        -13    1    4    4    0    0 -0.59252138924E+02  0.60786316517E+02 -0.28608251237E+03  0.29841078420E+03  0.00000000000E+00 0.  1.
         14    1    4    4    0    0 -0.13961768336E+02 -0.22449776237E+02 -0.16920677707E+03  0.17125961823E+03  0.00000000000E+00 0. -1.
        -13    1    3    3    0    0  0.61595825873E+02 -0.15739156078E+02 -0.22354194472E+02  0.67390480111E+02  0.00000000000E+00 0.  1.
         13    1    3    3    0    0 -0.59606891311E+01 -0.35990304363E+02 -0.74079410399E+02  0.82574759267E+02  0.00000000000E+00 0. -1.
         21    1    1    2  502  501  0.17578770518E+02  0.13392920162E+02  0.90255034452E+01  0.23871388645E+02  0.00000000000E+00 0. -1.
<scales pt_clust_5="13000.00000" pt_clust_6="13000.00000" pt_clust_7="13000.00000" pt_clust_8="13000.00000" pt_clust_9="22.09940"></scales>
<clustering>
<clus scale="   22.099">  1  9  2 -1</clus>
<clus scale="   80.449">  5  6 -1 -1</clus>
<clus scale="   86.133">  7  8 -1 -1</clus>
<clus scale="  114.001">  2  5  1 -1</clus>
<clus scale="  114.001">  2  5  1 -1</clus>
</clustering>
</event>
<event>
 9    2  0.6066854E-005  0.1305557E+03  0.7546771E-02  0.1244937E+00
         -3   -1    0    0    0  501 -0.00000000000E+00  0.00000000000E+00  0.46917606081E+03  0.46917606081E+03  0.00000000000E+00 0.  1.
          4   -1    0    0  502    0  0.00000000000E+00 -0.00000000000E+00 -0.71324187855E+02  0.71324187855E+02  0.00000000000E+00 0. -1.
         23    2    1    2    0    0  0.67509407952E+02 -0.38937069819E+02  0.22120299461E+03  0.25227402158E+03  0.92939773899E+02 0.  0.
         24    2    1    2    0    0  0.69236267175E+01 -0.38815983245E+02  0.10696212836E+02  0.90423039291E+02  0.80667836859E+02 0.  0.
        -13    1    4    4    0    0 -0.34729256089E+01 -0.45829825930E+02 -0.25187885528E+02  0.52410530759E+02  0.00000000000E+00 0.  1.
         14    1    4    4    0    0  0.10396552326E+02  0.70138426847E+01  0.35884098365E+02  0.38012508532E+02  0.00000000000E+00 0. -1.
        -11    1    3    3    0    0  0.90743032239E+02 -0.36673875270E+02  0.17506350945E+03  0.20056545906E+03  0.00000000000E+00 0. -1.
         11    1    3    3    0    0 -0.23233624288E+02 -0.22631945491E+01  0.46139485163E+02  0.51708562523E+02  0.00000000000E+00 0.  1.
         21    1    1    2  502  501 -0.74433034669E+02  0.77753053064E+02  0.16595266551E+03  0.19780318779E+03  0.00000000000E+00 0.  1.
<scales pt_clust_5="13000.00000" pt_clust_6="13000.00000" pt_clust_7="13000.00000" pt_clust_8="13000.00000" pt_clust_9="91.68957"></scales>
<clustering>
<clus scale="   80.668">  5  6 -1 -1</clus>
<clus scale="   89.788">  2  5  1 -1</clus>
<clus scale="   91.690">  2  9  1 -1</clus>
<clus scale="   92.940">  7  8 -1 -1</clus>
<clus scale="   89.788">  2  5  1 -1</clus>
</clustering>
</event>
<event>
 9    2  0.6066854E-005  0.9236698E+02  0.7546771E-02  0.1302823E+00
          2   -1    0    0  502    0  0.00000000000E+00  0.00000000000E+00  0.36567469916E+03  0.36567469916E+03  0.00000000000E+00 0. -1.
         -1   -1    0    0    0  501 -0.00000000000E+00 -0.00000000000E+00 -0.43586465154E+02  0.43586465154E+02  0.00000000000E+00 0.  1.
         23    2    1    2    0    0 -0.80778722861E+01 -0.87294586512E+01  0.57504731470E+02  0.10840129071E+03  0.91118550345E+02 0.  0.
         24    2    1    2    0    0 -0.17440341225E+02  0.90463615508E+01  0.26200034536E+03  0.27520929176E+03  0.81914413505E+02 0.  0.
        -11    1    4    4    0    0  0.27246540699E+02 -0.99577980062E+01  0.50809872396E+02  0.58507904202E+02  0.00000000000E+00 0.  1.
         12    1    4    4    0    0 -0.44686881923E+02  0.19004159557E+02  0.21119047296E+03  0.21670138755E+03  0.00000000000E+00 0. -1.
        -11    1    3    3    0    0 -0.22973540754E+01  0.26758589211E+02 -0.12560321221E+02  0.29648973026E+02  0.00000000000E+00 0. -1.
         11    1    3    3    0    0 -0.57805182108E+01 -0.35488047862E+02  0.70065052691E+02  0.78752317683E+02  0.00000000000E+00 0.  1.
         21    1    1    2  502  501  0.25518213511E+02 -0.31690289964E+00  0.25831571753E+01  0.25650581850E+02  0.00000000000E+00 0. -1.
<scales pt_clust_5="13000.00000" pt_clust_6="13000.00000" pt_clust_7="13000.00000" pt_clust_8="13000.00000" pt_clust_9="25.52018"></scales>
<clustering>
<clus scale="   25.520">  2  9  1 -1</clus>
<clus scale="   81.914">  5  6 -1 -1</clus>
<clus scale="   83.301">  1  5  2 -1</clus>
<clus scale="   91.119">  7  8 -1 -1</clus>
<clus scale="   83.301">  1  5  2 -1</clus>
</clustering>
</event>
<event>
 9    2  0.6066854E-005  0.1082109E+03  0.7546771E-02  0.1271325E+00
          2   -1    0    0  502    0  0.00000000000E+00  0.00000000000E+00  0.13057442923E+03  0.13057442923E+03  0.00000000000E+00 0. -1.
         -1   -1    0    0    0  501 -0.00000000000E+00 -0.00000000000E+00 -0.18529283280E+03  0.18529283280E+03  0.00000000000E+00 0.  1.
         23    2    1    2    0    0 -0.13000977240E+02 -0.70994076008E+02  0.79163762953E+01  0.11948476507E+03  0.94893391932E+02 0.  0.
         24    2    1    2    0    0  0.26417362310E+02  0.33951801922E+02  0.31406852365E+02  0.94421925898E+02  0.77964785831E+02 0.  0.
        -11    1    4    4    0    0 -0.12610418671E+02  0.16869029830E+02 -0.19040374683E+02  0.28392299916E+02  0.00000000000E+00 0.  1.
         12    1    4    4    0    0  0.39027780980E+02  0.17082772093E+02  0.50447227047E+02  0.66029625983E+02  0.00000000000E+00 0. -1.
        -13    1    3    3    0    0 -0.33720775790E+02 -0.57060957977E+02 -0.31059818152E+02  0.73196693564E+02  0.00000000000E+00 0.  1.
         13    1    3    3    0    0  0.20719798550E+02 -0.13933118032E+02  0.38976194447E+02  0.46288071505E+02  0.00000000000E+00 0. -1.
         21    1    1    2  502  501 -0.13416385070E+02  0.37042274086E+02 -0.94041632232E+02  0.10196057106E+03  0.00000000000E+00 0.  1.
<scales pt_clust_5="13000.00000" pt_clust_6="13000.00000" pt_clust_7="13000.00000" pt_clust_8="13000.00000" pt_clust_9="39.39707"></scales>
<clustering>
<clus scale="   39.397">  2  9  1 -1</clus>
<clus scale="   77.965">  5  6 -1 -1</clus>
<clus scale="   93.720">  1  5  2 -1</clus>
<clus scale="   94.893">  7  8 -1 -1</clus>
<clus scale="   93.720">  1  5  2 -1</clus>
</clustering>
</event>
<event>
 9    2  0.6066854E-005  0.2376915E+03  0.7546771E-02  0.1148624E+00
         -1   -1    0    0    0  501 -0.00000000000E+00  0.00000000000E+00  0.96465520415E+03  0.96465520415E+03  0.00000000000E+00 0.  1.
          2   -1    0    0  502    0  0.00000000000E+00 -0.00000000000E+00 -0.19755528415E+03  0.19755528415E+03  0.00000000000E+00 0. -1.
         24    2    1    2    0    0 -0.18108814744E+03 -0.25045343120E+02 -0.84500376660E+02  0.21688947225E+03  0.80501820882E+02 0.  0.
         23    2    1    2    0    0 -0.42598156714E+02  0.76364518098E+02  0.95628273734E+02  0.15528119438E+03  0.85564829280E+02 0.  0.
        -13    1    3    3    0    0 -0.41696031467E+02  0.17799140737E+02  0.52761843307E+01  0.45642157839E+02  0.00000000000E+00 0.  1.
         14    1    3    3    0    0 -0.13939211597E+03 -0.42844483857E+02 -0.89776560991E+02  0.17124731441E+03  0.00000000000E+00 0. -1.
        -13    1    4    4    0    0 -0.63501984701E+02  0.43010662290E+02  0.85043320348E+02  0.11451980382E+03  0.00000000000E+00 0. -1.
         13    1    4    4    0    0  0.20903827986E+02  0.33353855808E+02  0.10584953386E+02  0.40761390554E+02  0.00000000000E+00 0.  1.
         21    1    1    2  502  501  0.22368630415E+03 -0.51319174978E+02  0.75597202292E+03  0.79003982167E+03  0.00000000000E+00 0.  1.
<scales pt_clust_5="13000.00000" pt_clust_6="13000.00000" pt_clust_7="13000.00000" pt_clust_8="13000.00000" pt_clust_9="223.64416"></scales>
<clustering>
<clus scale="   80.502">  5  6 -1 -1</clus>
<clus scale="   85.565">  7  8 -1 -1</clus>
<clus scale="  122.342">  2  7  1 -1</clus>
<clus scale="  223.644">  1  9  2 -1</clus>
<clus scale="  122.342">  2  5  1 -1</clus>
</clustering>
</event>
<event>
 9    2  0.6066854E-005  0.1036442E+03  0.7546771E-02  0.1278646E+00
          4   -1    0    0  502    0  0.00000000000E+00  0.00000000000E+00  0.24007579527E+03  0.24007579527E+03  0.00000000000E+00 0. -1.
         -3   -1    0    0    0  501 -0.00000000000E+00 -0.00000000000E+00 -0.70324136814E+02  0.70324136814E+02  0.00000000000E+00 0.  1.
         24    2    1    2    0    0 -0.20048454095E+02 -0.20514653064E+02 -0.31606014265E+01  0.84334997136E+02  0.79243995600E+02 0.  0.
         23    2    1    2    0    0  0.41053547634E+02  0.36613983849E+02  0.16791873955E+03  0.19913284161E+03  0.91821609267E+02 0.  0.
        -11    1    3    3    0    0 -0.17097876241E+02  0.24512959199E+02 -0.20230459365E+02  0.36090082110E+02  0.00000000000E+00 0.  1.
         12    1    3    3    0    0 -0.29505778548E+01 -0.45027612263E+02  0.17069857938E+02  0.48244915026E+02  0.00000000000E+00 0. -1.
        -11    1    4    4    0    0  0.25134308771E+02 -0.29301611829E+02  0.71503041140E+02  0.81258863058E+02  0.00000000000E+00 0.  1.
         11    1    4    4    0    0  0.15919238863E+02  0.65915595677E+02  0.96415698406E+02  0.11787397855E+03  0.00000000000E+00 0. -1.
         21    1    1    2  502  501 -0.21005093539E+02 -0.16099330784E+02  0.49935203322E+01  0.26932093339E+02  0.00000000000E+00 0.  1.
<scales pt_clust_5="13000.00000" pt_clust_6="13000.00000" pt_clust_7="13000.00000" pt_clust_8="13000.00000" pt_clust_9="26.46512"></scales>
<clustering>
<clus scale="   26.465">  2  9  1 -1</clus>
<clus scale="   79.244">  5  6 -1 -1</clus>
<clus scale="   91.822">  7  8 -1 -1</clus>
<clus scale="   92.685">  2  5  1 -1</clus>
<clus scale="  103.644">  1  5  2 -1</clus>
</clustering>
</event>
<event>
 9    2  0.6066854E-005  0.9935697E+02  0.7546771E-02  0.1286996E+00
          2   -1    0    0  502    0  0.00000000000E+00  0.00000000000E+00  0.10983193850E+04  0.10983193850E+04  0.00000000000E+00 0. -1.
         -1   -1    0    0    0  501 -0.00000000000E+00 -0.00000000000E+00 -0.26247379364E+02  0.26247379364E+02  0.00000000000E+00 0.  1.
         23    2    1    2    0    0  0.70556155563E+02  0.34857412249E+02  0.20849434374E+03  0.24070294641E+03  0.90965964840E+02 0.  0.
         24    2    1    2    0    0 -0.18704851621E+02 -0.30076516721E+02  0.78305454310E+03  0.78797123564E+03  0.80434957551E+02 0.  0.
        -13    1    4    4    0    0 -0.73480949444E+01 -0.37394376231E+02  0.14976707723E+03  0.15453967547E+03  0.00000000000E+00 0.  1.
         14    1    4    4    0    0 -0.11356756676E+02  0.73178595104E+01  0.63328746588E+03  0.63343156018E+03  0.00000000000E+00 0. -1.
        -13    1    3    3    0    0  0.74141020404E+02  0.59654744156E+02  0.16170536951E+03  0.18762783892E+03  0.00000000000E+00 0. -1.
         13    1    3    3    0    0 -0.35848648410E+01 -0.24797331907E+02  0.46788974230E+02  0.53075107491E+02  0.00000000000E+00 0.  1.
         21    1    1    2  502  501 -0.51851303942E+02 -0.47808955286E+01  0.80523118775E+02  0.95892582298E+02  0.00000000000E+00 0.  1.
<scales pt_clust_5="13000.00000" pt_clust_6="13000.00000" pt_clust_7="13000.00000" pt_clust_8="13000.00000" pt_clust_9="52.07125"></scales>
<clustering>
<clus scale="   52.071">  2  9  1 -1</clus>
<clus scale="   80.435">  5  6 -1 -1</clus>
<clus scale="   89.815">  1  5  2 -1</clus>
<clus scale="   90.966">  7  8 -1 -1</clus>
<clus scale="   89.815">  1  5  2 -1</clus>
</clustering>
</event>
<event>
 9    2  0.6066854E-005  0.2867129E+03  0.7546771E-02  0.1092531E+00
          2   -1    0    0  502    0  0.00000000000E+00  0.00000000000E+00  0.17158211866E+04  0.17158211866E+04  0.00000000000E+00 0. -1.
         -1   -1    0    0    0  501 -0.00000000000E+00 -0.00000000000E+00 -0.26917407774E+03  0.26917407774E+03  0.00000000000E+00 0.  1.
         23    2    1    2    0    0  0.37902639500E+03 -0.70998940532E+01  0.45297518958E+02  0.39262153755E+03  0.91588153828E+02 0.  0.
         24    2    1    2    0    0 -0.18632531995E+03  0.19709761468E+03  0.12514368981E+04  0.12830088074E+04  0.80328670824E+02 0.  0.
        -11    1    4    4    0    0 -0.95116098587E+02  0.14277008661E+03  0.64908737692E+03  0.67137529945E+03  0.00000000000E+00 0.  1.
         12    1    4    4    0    0 -0.91209221366E+02  0.54327528071E+02  0.60234952120E+03  0.61163350796E+03  0.00000000000E+00 0. -1.
        -13    1    3    3    0    0  0.36267412835E+03 -0.22762062511E+02  0.28645968426E+02  0.36451505644E+03  0.00000000000E+00 0.  1.
         13    1    3    3    0    0  0.16352266657E+02  0.15662168458E+02  0.16651550532E+02  0.28106481116E+02  0.00000000000E+00 0. -1.
         21    1    1    2  502  501 -0.19270107505E+03 -0.18999772063E+03  0.14991269175E+03  0.30936491934E+03  0.00000000000E+00 0. -1.
<scales pt_clust_5="13000.00000" pt_clust_6="13000.00000" pt_clust_7="13000.00000" pt_clust_8="13000.00000" pt_clust_9="270.61567"></scales>
<clustering>
<clus scale="   80.329">  5  6 -1 -1</clus>
<clus scale="   91.588">  7  8 -1 -1</clus>
<clus scale="  270.616">  2  9  1 -1</clus>
<clus scale="  283.317">  1  5  2 -1</clus>
<clus scale="  283.317">  1  5  2 -1</clus>
</clustering>
</event>
<event>
 9    2  0.6066854E-005  0.9384221E+02  0.7546771E-02  0.1300722E+00
         -1   -1    0    0    0  501 -0.00000000000E+00  0.00000000000E+00  0.24193760438E+03  0.24193760438E+03  0.00000000000E+00 0.  1.
          2   -1    0    0  502    0  0.00000000000E+00 -0.00000000000E+00 -0.19441604029E+03  0.19441604029E+03  0.00000000000E+00 0. -1.
         23    2    1    2    0    0 -0.10975852871E+02  0.45015715151E+02  0.17810558757E+03  0.20564815665E+03  0.91775160319E+02 0.  0.
         24    2    1    2    0    0  0.14903075069E+02  0.16299387787E+02 -0.14538876884E+03  0.16750623638E+03  0.80203948983E+02 0.  0.
        -11    1    4    4    0    0  0.22787766409E+02 -0.13547189959E+02 -0.95097458197E+01  0.28164586261E+02  0.00000000000E+00 0.  1.
         12    1    4    4    0    0 -0.78846913397E+01  0.29846577747E+02 -0.13587902302E+03  0.13934165012E+03  0.00000000000E+00 0. -1.
        -13    1    3    3    0    0 -0.44320625210E+02  0.41711206113E+02  0.71474941735E+02  0.93876566993E+02  0.00000000000E+00 0. -1.
         13    1    3    3    0    0  0.33344772339E+02  0.33045090375E+01  0.10663064584E+03  0.11177158966E+03  0.00000000000E+00 0.  1.
         21    1    1    2  502  501 -0.39272221978E+01 -0.61315102938E+02  0.14804745366E+02  0.63199251640E+02  0.00000000000E+00 0.  1.
<scales pt_clust_5="13000.00000" pt_clust_6="13000.00000" pt_clust_7="13000.00000" pt_clust_8="13000.00000" pt_clust_9="61.44074"></scales>
<clustering>
<clus scale="   61.441">  1  9  2 -1</clus>
<clus scale="   80.204">  5  6 -1 -1</clus>
<clus scale="   82.561">  2  5  1 -1</clus>
<clus scale="   91.775">  7  8 -1 -1</clus>
<clus scale="   82.561">  2  5  1 -1</clus>
</clustering>
</event>
<event>
 9    2  0.6066854E-005  0.2058531E+03  0.7546771E-02  0.1145712E+00
         -1   -1    0    0    0  501 -0.00000000000E+00  0.00000000000E+00  0.53845475097E+02  0.53845475097E+02  0.00000000000E+00 0.  1.
          2   -1    0    0  502    0  0.00000000000E+00 -0.00000000000E+00 -0.92641183968E+03  0.92641183968E+03  0.00000000000E+00 0. -1.
         24    2    1    2    0    0 -0.18254980591E+03 -0.72918945158E+02 -0.41460966618E+03  0.46954393929E+03  0.99643020003E+02 0.  0.
         23    2    1    2    0    0  0.15768548831E+03  0.57963039141E+02 -0.42935393022E+03  0.46996988813E+03  0.91117897383E+02 0.  0.
        -11    1    3    3    0    0 -0.13656927587E+03 -0.30269687984E+02 -0.18748000518E+03  0.23391488508E+03  0.00000000000E+00 0.  1.
         12    1    3    3    0    0 -0.45980530040E+02 -0.42649257174E+02 -0.22712966100E+03  0.23562905421E+03  0.00000000000E+00 0. -1.
        -13    1    4    4    0    0  0.84378477783E+02  0.88437732714E+01 -0.31085537150E+03  0.32222507945E+03  0.00000000000E+00 0. -1.
         13    1    4    4    0    0  0.73307010531E+02  0.49119265869E+02 -0.11849855872E+03  0.14774480868E+03  0.00000000000E+00 0.  1.
         21    1    1    2  502  501  0.24864317594E+02  0.14955906018E+02 -0.28602768191E+02  0.40743487362E+02  0.00000000000E+00 0. -1.
<scales pt_clust_5="13000.00000" pt_clust_6="13000.00000" pt_clust_7="13000.00000" pt_clust_8="13000.00000" pt_clust_9="29.01574"></scales>
<clustering>
<clus scale="   29.016">  1  9  2 -1</clus>
<clus scale="   91.118">  7  8 -1 -1</clus>
<clus scale="   99.643">  5  6 -1 -1</clus>
<clus scale="  201.864">  2  7  1 -1</clus>
<clus scale="  201.864">  2  5  1 -1</clus>
</clustering>
</event>
<event>
 9    2  0.6066854E-005  0.3406835E+03  0.7546771E-02  0.1066775E+00
          2   -1    0    0  502    0  0.00000000000E+00  0.00000000000E+00  0.37905243909E+03  0.37905243909E+03  0.00000000000E+00 0. -1.
         -1   -1    0    0    0  501 -0.00000000000E+00 -0.00000000000E+00 -0.36812550984E+03  0.36812550984E+03  0.00000000000E+00 0.  1.
         23    2    1    2    0    0 -0.21568334121E+03 -0.22890176274E+03 -0.34082927064E+02  0.32900449817E+03  0.90371418250E+02 0.  0.
         24    2    1    2    0    0  0.23780423640E+03  0.24119232319E+03  0.96133012020E+02  0.36112988031E+03  0.80303442220E+02 0.  0.
        -13    1    4    4    0    0  0.61235840439E+02  0.11448710794E+03  0.23193810863E+02  0.13189040489E+03  0.00000000000E+00 0.  1.
         14    1    4    4    0    0  0.17656839597E+03  0.12670521525E+03  0.72939201157E+02  0.22923947542E+03  0.00000000000E+00 0. -1.
        -11    1    3    3    0    0 -0.12530063551E+03 -0.17228659306E+03 -0.55680763838E+02  0.22018916156E+03  0.00000000000E+00 0.  1.
         11    1    3    3    0    0 -0.90382705701E+02 -0.56615169680E+02  0.21597836773E+02  0.10881533661E+03  0.00000000000E+00 0. -1.
         21    1    1    2  502  501 -0.22120895196E+02 -0.12290560451E+02 -0.51123155706E+02  0.57043570451E+02  0.00000000000E+00 0. -1.
<scales pt_clust_5="13000.00000" pt_clust_6="13000.00000" pt_clust_7="13000.00000" pt_clust_8="13000.00000" pt_clust_9="25.30597"></scales>
<clustering>
<clus scale="   25.306">  2  9  1 -1</clus>
<clus scale="   80.303">  5  6 -1 -1</clus>
<clus scale="   90.371">  7  8 -1 -1</clus>
<clus scale="  338.152">  1  5  2 -1</clus>
<clus scale="  338.152">  1  5  2 -1</clus>
</clustering>
</event>
<event>
 9    2  0.6066854E-005  0.1110432E+03  0.7546771E-02  0.1262559E+00
          2   -1    0    0  502    0  0.00000000000E+00  0.00000000000E+00  0.10678180739E+03  0.10678180739E+03  0.00000000000E+00 0. -1.
         -1   -1    0    0    0  501 -0.00000000000E+00 -0.00000000000E+00 -0.19938767215E+03  0.19938767215E+03  0.00000000000E+00 0.  1.
         23    2    1    2    0    0  0.42328715898E+02  0.75851363630E+02 -0.45143204797E+02  0.13386467675E+03  0.91305493739E+02 0.  0.
         24    2    1    2    0    0 -0.25854387806E+02 -0.45787554284E+02  0.18062536043E+02  0.98353552433E+02  0.81130860785E+02 0.  0.
        -13    1    4    4    0    0 -0.30314770929E+01 -0.21340129740E+02 -0.31737710473E+02  0.38365000414E+02  0.00000000000E+00 0.  1.
         14    1    4    4    0    0 -0.22822910713E+02 -0.24447424544E+02  0.49800246516E+02  0.59988552019E+02  0.00000000000E+00 0. -1.
        -13    1    3    3    0    0  0.15032382254E+02  0.34432410240E+02  0.27033365205E+02  0.46285702171E+02  0.00000000000E+00 0. -1.
         13    1    3    3    0    0  0.27296333645E+02  0.41418953389E+02 -0.72176570002E+02  0.87578974575E+02  0.00000000000E+00 0.  1.
         21    1    1    2  502  501 -0.16474328093E+02 -0.30063809345E+02 -0.65525196001E+02  0.73951250357E+02  0.00000000000E+00 0.  1.
<scales pt_clust_5="13000.00000" pt_clust_6="13000.00000" pt_clust_7="13000.00000" pt_clust_8="13000.00000" pt_clust_9="34.28172"></scales>
<clustering>
<clus scale="   34.282">  2  9  1 -1</clus>
<clus scale="   81.131">  5  6 -1 -1</clus>
<clus scale="   91.305">  7  8 -1 -1</clus>
<clus scale="  102.840">  1  5  2 -1</clus>
<clus scale="  102.840">  1  5  2 -1</clus>
</clustering>
</event>
<event>
 9    2  0.6066854E-005  0.1100842E+03  0.7546771E-02  0.1264967E+00
         -1   -1    0    0    0  501 -0.00000000000E+00  0.00000000000E+00  0.23108971944E+03  0.23108971944E+03  0.00000000000E+00 0.  1.
          2   -1    0    0  502    0  0.00000000000E+00 -0.00000000000E+00 -0.92913140923E+02  0.92913140923E+02  0.00000000000E+00 0. -1.
         23    2    1    2    0    0  0.17566673122E+01 -0.36126838714E+02  0.10984661781E+03  0.14693994201E+03  0.90646747089E+02 0.  0.
         24    2    1    2    0    0 -0.50261351942E+02  0.55514310514E+02 -0.14117783847E+02  0.10975475012E+03  0.78985765689E+02 0.  0.
        -11    1    4    4    0    0 -0.40538287151E+02 -0.65656296571E+01  0.10303221829E+02  0.42339303230E+02  0.00000000000E+00 0.  1.
         12    1    4    4    0    0 -0.97230647905E+01  0.62079940171E+02 -0.24421005676E+02  0.67415446886E+02  0.00000000000E+00 0. -1.
        -11    1    3    3    0    0  0.39857385800E+02 -0.63706533853E+01  0.81374557135E+02  0.90835097712E+02  0.00000000000E+00 0.  1.
         11    1    3    3    0    0 -0.38100718488E+02 -0.29756185329E+02  0.28472060678E+02  0.56104844299E+02  0.00000000000E+00 0. -1.
         21    1    1    2  502  501  0.48504684629E+02 -0.19387471800E+02  0.42447744550E+02  0.67308168235E+02  0.00000000000E+00 0. -1.
<scales pt_clust_5="13000.00000" pt_clust_6="13000.00000" pt_clust_7="13000.00000" pt_clust_8="13000.00000" pt_clust_9="52.23580"></scales>
<clustering>
<clus scale="   52.236">  1  9  2 -1</clus>
<clus scale="   78.986">  5  6 -1 -1</clus>
<clus scale="   90.647">  7  8 -1 -1</clus>
<clus scale="  100.700">  2  5  1 -1</clus>
<clus scale="  100.700">  2  5  1 -1</clus>
</clustering>
</event>
<event>
 9    2  0.6066854E-005  0.9283472E+02  0.7546771E-02  0.1299881E+00
          2   -1    0    0  502    0  0.00000000000E+00  0.00000000000E+00  0.27398748838E+03  0.27398748838E+03  0.00000000000E+00 0. -1.
         -1   -1    0    0    0  501 -0.00000000000E+00 -0.00000000000E+00 -0.89246790403E+02  0.89246790403E+02  0.00000000000E+00 0.  1.
         23    2    1    2    0    0  0.26219507140E+02  0.10425319852E+02  0.32635212831E+01  0.94823026716E+02  0.90468812172E+02 0.  0.
         24    2    1    2    0    0  0.50482669257E+01  0.70344546018E+02  0.12867771866E+03  0.16697542163E+03  0.79680587327E+02 0.  0.
        -11    1    4    4    0    0  0.41287225122E+02  0.27351028907E+02  0.51080188602E+02  0.71147026699E+02  0.00000000000E+00 0.  1.
         12    1    4    4    0    0 -0.36238958196E+02  0.42993517111E+02  0.77597530053E+02  0.95828394931E+02  0.00000000000E+00 0. -1.
        -13    1    3    3    0    0  0.40522759007E+02  0.37400685910E+02  0.21581170463E+02  0.59216992685E+02  0.00000000000E+00 0. -1.
         13    1    3    3    0    0 -0.14303251867E+02 -0.26975366058E+02 -0.18317649180E+02  0.35606034031E+02  0.00000000000E+00 0.  1.
         21    1    1    2  502  501 -0.31267774066E+02 -0.80769865870E+02  0.52799458043E+02  0.10143583044E+03  0.00000000000E+00 0.  1.
<scales pt_clust_5="13000.00000" pt_clust_6="13000.00000" pt_clust_7="13000.00000" pt_clust_8="13000.00000" pt_clust_9="86.61088"></scales>
<clustering>
<clus scale="   79.681">  5  6 -1 -1</clus>
<clus scale="   86.611">  1  9  2 -1</clus>
<clus scale="   86.611">  1  5  2 -1</clus>
<clus scale="   90.469">  7  8 -1 -1</clus>
<clus scale="   86.611">  1  5  2 -1</clus>
</clustering>
</event>
<event>
 9    2  0.6903822E-005  0.1258475E+03  0.7546771E-02  0.1253631E+00
         -1   -1    0    0    0  501 -0.00000000000E+00  0.00000000000E+00  0.23761674044E+03  0.23761674044E+03  0.00000000000E+00 0.  1.
          2   -1    0    0  502    0  0.00000000000E+00 -0.00000000000E+00 -0.48719102927E+03  0.48719102927E+03  0.00000000000E+00 0. -1.
         24    2    1    2    0    0  0.77672157908E+01  0.26862382821E+02  0.13113711616E+03  0.15586582679E+03  0.79468833340E+02 0.  0.
         23    2    1    2    0    0  0.31735814770E+02  0.76081498209E+02 -0.43044557094E+03  0.44798153896E+03  0.92782074758E+02 0.  0.
        -11    1    3    3    0    0  0.30972915216E+02  0.27720852502E+02  0.27929808480E+02  0.50078352031E+02  0.00000000000E+00 0.  1.
         12    1    3    3    0    0 -0.23205699425E+02 -0.85846968073E+00  0.10320730768E+03  0.10578747476E+03  0.00000000000E+00 0. -1.
        -11    1    4    4    0    0 -0.21874457939E+02  0.65874684687E+02 -0.25103639632E+03  0.26045582787E+03  0.00000000000E+00 0. -1.
         11    1    4    4    0    0  0.53610272709E+02  0.10206813521E+02 -0.17940917462E+03  0.18752571109E+03  0.00000000000E+00 0.  1.
         21    1    1    2  502  501 -0.39503030561E+02 -0.10294388103E+03  0.49734165943E+02  0.12096040396E+03  0.00000000000E+00 0. -1.
<scales pt_clust_5="13000.00000" pt_clust_6="13000.00000" pt_clust_7="13000.00000" pt_clust_8="13000.00000" pt_clust_9="85.02393"></scales>
<clustering>
<clus scale="   79.469">  5  6 -1 -1</clus>
<clus scale="   84.245">  1  5  2 -1</clus>
<clus scale="   85.024">  1  9  2 -1</clus>
<clus scale="   92.782">  7  8 -1 -1</clus>
<clus scale="  125.847">  2  5  1 -1</clus>
</clustering>
</event>
<event>
 9    2  0.6066854E-005  0.1031485E+03  0.7546771E-02  0.1279275E+00
          2   -1    0    0  502    0  0.00000000000E+00  0.00000000000E+00  0.35874677221E+03  0.35874677221E+03  0.00000000000E+00 0. -1.
         -1   -1    0    0    0  501 -0.00000000000E+00 -0.00000000000E+00 -0.87633680349E+02  0.87633680349E+02  0.00000000000E+00 0.  1.
         23    2    1    2    0    0  0.48982564520E+02  0.16336975076E+02 -0.17055711705E+02  0.10556993449E+03  0.90487155909E+02 0.  0.
         24    2    1    2    0    0 -0.98915983718E+01 -0.51444219141E+02  0.26862349511E+03  0.28475125208E+03  0.78615151451E+02 0.  0.
        -11    1    4    4    0    0  0.59184767898E+01  0.19868632022E+02  0.74835979447E+02  0.77654457218E+02  0.00000000000E+00 0.  1.
         12    1    4    4    0    0 -0.15810075162E+02 -0.71312851163E+02  0.19378751566E+03  0.20709679487E+03  0.00000000000E+00 0. -1.
        -13    1    3    3    0    0  0.31301856671E+00 -0.33978544181E+02 -0.25143017079E+01  0.34072880101E+02  0.00000000000E+00 0. -1.
         13    1    3    3    0    0  0.48669545953E+02  0.50315519257E+02 -0.14541409997E+02  0.71497054388E+02  0.00000000000E+00 0.  1.
         21    1    1    2  502  501 -0.39090966148E+02  0.35107244065E+02  0.19545308456E+02  0.56059265986E+02  0.00000000000E+00 0. -1.
<scales pt_clust_5="13000.00000" pt_clust_6="13000.00000" pt_clust_7="13000.00000" pt_clust_8="13000.00000" pt_clust_9="52.54162"></scales>
<clustering>
<clus scale="   52.542">  2  9  1 -1</clus>
<clus scale="   78.615">  5  6 -1 -1</clus>
<clus scale="   90.487">  7  8 -1 -1</clus>
<clus scale="   92.909">  1  5  2 -1</clus>
<clus scale="   92.909">  1  5  2 -1</clus>
</clustering>
</event>
<event>
 9    2  0.6066854E-005  0.1270550E+03  0.7546771E-02  0.1236260E+00
          2   -1    0    0  502    0  0.00000000000E+00  0.00000000000E+00  0.64521606933E+03  0.64521606933E+03  0.00000000000E+00 0. -1.
         -1   -1    0    0    0  501 -0.00000000000E+00 -0.00000000000E+00 -0.76098985404E+02  0.76098985404E+02  0.00000000000E+00 0.  1.
         24    2    1    2    0    0  0.40964963877E+02 -0.73046992169E+02 -0.12312788533E+02  0.11752883147E+03  0.81531773773E+02 0.  0.
         23    2    1    2    0    0 -0.14116092809E+02  0.74604097327E+02  0.54415718928E+03  0.55782385425E+03  0.96412500812E+02 0.  0.
        -11    1    3    3    0    0  0.39611795408E+02  0.38457595614E+01 -0.72910283229E+01  0.40460391694E+02  0.00000000000E+00 0.  1.
         12    1    3    3    0    0  0.13531684684E+01 -0.76892751731E+02 -0.50217602098E+01  0.77068439774E+02  0.00000000000E+00 0. -1.
        -11    1    4    4    0    0 -0.16500060044E+02 -0.17889577894E+02  0.57322021443E+02  0.62274417870E+02  0.00000000000E+00 0. -1.
         11    1    4    4    0    0  0.23839672352E+01  0.92493675221E+02  0.48683516784E+03  0.49554943638E+03  0.00000000000E+00 0.  1.
         21    1    1    2  502  501 -0.26848871068E+02 -0.15571051580E+01  0.37272683181E+02  0.45962369016E+02  0.00000000000E+00 0. -1.
<scales pt_clust_5="13000.00000" pt_clust_6="13000.00000" pt_clust_7="13000.00000" pt_clust_8="13000.00000" pt_clust_9="26.89399"></scales>
<clustering>
<clus scale="   26.894">  1  9  2 -1</clus>
<clus scale="   81.532">  5  6 -1 -1</clus>
<clus scale="   96.413">  7  8 -1 -1</clus>
<clus scale="  116.168">  2  5  1 -1</clus>
<clus scale="   26.894">  1  5  2 -1</clus>
</clustering>
</event>
<event>
 9    2  0.6066854E-005  0.1291073E+03  0.7546771E-02  0.1230654E+00
         -1   -1    0    0    0  501 -0.00000000000E+00  0.00000000000E+00  0.17083001532E+03  0.17083001532E+03  0.00000000000E+00 0.  1.
          2   -1    0    0  502    0  0.00000000000E+00 -0.00000000000E+00 -0.50986552635E+03  0.50986552635E+03  0.00000000000E+00 0. -1.
         23    2    1    2    0    0 -0.37220044931E+02 -0.84524928263E+02  0.93028525366E+02  0.15960317082E+03  0.91044331855E+02 0.  0.
         24    2    1    2    0    0 -0.82167970598E+02  0.11884113526E+03 -0.22556421198E+03  0.28010839254E+03  0.81894487159E+02 0.  0.
        -13    1    4    4    0    0 -0.45256437556E+02  0.57533021998E+02 -0.45111700724E+02  0.85984064237E+02  0.00000000000E+00 0.  1.
         14    1    4    4    0    0 -0.36911533042E+02  0.61308113257E+02 -0.18045251125E+03  0.19412432831E+03  0.00000000000E+00 0. -1.
        -11    1    3    3    0    0  0.57997808153E+01 -0.58053821022E+02  0.92170995065E+02  0.10908426066E+03  0.00000000000E+00 0.  1.
         11    1    3    3    0    0 -0.43019825747E+02 -0.26471107241E+02  0.85753030022E+00  0.50518910163E+02  0.00000000000E+00 0. -1.
         21    1    1    2  502  501  0.11938801553E+03 -0.34316206992E+02 -0.20649982442E+03  0.24098397831E+03  0.00000000000E+00 0. -1.
<scales pt_clust_5="13000.00000" pt_clust_6="13000.00000" pt_clust_7="13000.00000" pt_clust_8="13000.00000" pt_clust_9="124.22198"></scales>
<clustering>
<clus scale="   81.894">  5  6 -1 -1</clus>
<clus scale="   91.044">  7  8 -1 -1</clus>
<clus scale="  124.222">  2  9  1 -1</clus>
<clus scale="  124.222">  2  5  1 -1</clus>
<clus scale="  124.222">  2  5  1 -1</clus>
</clustering>
</event>
<event>
 9    2  0.6066854E-005  0.8830394E+02  0.7546771E-02  0.1309883E+00
         -1   -1    0    0    0  501 -0.00000000000E+00  0.00000000000E+00  0.31083583585E+02  0.31083583585E+02  0.00000000000E+00 0.  1.
          2   -1    0    0  502    0  0.00000000000E+00 -0.00000000000E+00 -0.52240088609E+03  0.52240088609E+03  0.00000000000E+00 0. -1.
         23    2    1    2    0    0  0.28165492221E+02 -0.28337791655E+02 -0.12606328075E+03  0.15615928574E+03  0.83050866235E+02 0.  0.
         24    2    1    2    0    0 -0.32127399627E+02 -0.30712099501E+02 -0.15850257714E+03  0.18226996729E+03  0.78255166934E+02 0.  0.
        -11    1    4    4    0    0  0.94637147249E+01 -0.44561889881E+02 -0.91291963468E+02  0.10202718520E+03  0.00000000000E+00 0.  1.
         12    1    4    4    0    0 -0.41591114352E+02  0.13849790380E+02 -0.67210613672E+02  0.80242782085E+02  0.00000000000E+00 0. -1.
        -13    1    3    3    0    0  0.44453796983E+02 -0.19465878782E+01 -0.26302214078E+02  0.51688835699E+02  0.00000000000E+00 0. -1.
         13    1    3    3    0    0 -0.16288304762E+02 -0.26391203777E+02 -0.99761066668E+02  0.10447045004E+03  0.00000000000E+00 0.  1.
         21    1    1    2  502  501  0.39619074060E+01  0.59049891156E+02 -0.20675144462E+03  0.21505521665E+03  0.00000000000E+00 0. -1.
<scales pt_clust_5="13000.00000" pt_clust_6="13000.00000" pt_clust_7="13000.00000" pt_clust_8="13000.00000" pt_clust_9="59.18265"></scales>
<clustering>
<clus scale="   59.183">  2  9  1 -1</clus>
<clus scale="   78.255">  5  6 -1 -1</clus>
<clus scale="   83.051">  7  8 -1 -1</clus>
<clus scale="   83.809">  2  5  1 -1</clus>
<clus scale="   59.183">  2  5  1 -1</clus>
</clustering>
</event>
<event>
 9    2  0.6066854E-005  0.1181653E+03  0.7546771E-02  0.1250394E+00
         -1   -1    0    0    0  501 -0.00000000000E+00  0.00000000000E+00  0.75510401189E+02  0.75510401189E+02  0.00000000000E+00 0.  1.
          2   -1    0    0  502    0  0.00000000000E+00 -0.00000000000E+00 -0.39653305812E+03  0.39653305812E+03  0.00000000000E+00 0. -1.
         23    2    1    2    0    0 -0.45413735026E+02  0.30108397956E+02  0.10368167617E+02  0.10706893791E+03  0.91582397922E+02 0.  0.
         24    2    1    2    0    0  0.72122459334E+02 -0.29920099626E+02 -0.31421898062E+03  0.33322135409E+03  0.78778433180E+02 0.  0.
        -11    1    4    4    0    0 -0.71095533256E+00  0.21186178001E+02 -0.46489028515E+02  0.51093926919E+02  0.00000000000E+00 0.  1.
         12    1    4    4    0    0  0.72833414667E+02 -0.51106277627E+02 -0.26772995211E+03  0.28212742717E+03  0.00000000000E+00 0. -1.
        -13    1    3    3    0    0  0.11225976310E+02  0.43925715152E+02 -0.77985679185E+01  0.46003354848E+02  0.00000000000E+00 0. -1.
         13    1    3    3    0    0 -0.56639711336E+02 -0.13817317195E+02  0.18166735536E+02  0.61065583062E+02  0.00000000000E+00 0.  1.
         21    1    1    2  502  501 -0.26708724308E+02 -0.18829833047E+00 -0.17171843923E+02  0.31753167309E+02  0.00000000000E+00 0.  1.
<scales pt_clust_5="13000.00000" pt_clust_6="13000.00000" pt_clust_7="13000.00000" pt_clust_8="13000.00000" pt_clust_9="26.70939"></scales>
<clustering>
<clus scale="   26.709">  1  9  2 -1</clus>
<clus scale="   78.778">  5  6 -1 -1</clus>
<clus scale="   91.582">  7  8 -1 -1</clus>
<clus scale="  108.544">  2  5  1 -1</clus>
<clus scale="  108.544">  2  5  1 -1</clus>
</clustering>
</event>
<event>
 9    2  0.6066854E-005  0.1493716E+03  0.7546771E-02  0.1202972E+00
         -1   -1    0    0    0  501 -0.00000000000E+00  0.00000000000E+00  0.21351444578E+03  0.21351444578E+03  0.00000000000E+00 0.  1.
          2   -1    0    0  502    0  0.00000000000E+00 -0.00000000000E+00 -0.21005596970E+03  0.21005596970E+03  0.00000000000E+00 0. -1.
         24    2    1    2    0    0  0.12717719309E+03 -0.11888889860E+03  0.40342134535E+01  0.19212096268E+03  0.81151591306E+02 0.  0.
         23    2    1    2    0    0 -0.85948413698E+02  0.35564979075E+02 -0.31371309021E+02  0.13351552074E+03  0.90499932016E+02 0.  0.
        -13    1    3    3    0    0  0.33163512551E+02 -0.45822456375E+02  0.38191199249E+02  0.68250155846E+02  0.00000000000E+00 0.  1.
         14    1    3    3    0    0  0.94013680535E+02 -0.73066442224E+02 -0.34156985795E+02  0.12387080683E+03  0.00000000000E+00 0. -1.
        -13    1    4    4    0    0 -0.53431852094E+02  0.14320834642E+02  0.28439033611E+02  0.62199901574E+02  0.00000000000E+00 0.  1.
         13    1    4    4    0    0 -0.32516561605E+02  0.21244144433E+02 -0.59810342632E+02  0.71315619166E+02  0.00000000000E+00 0. -1.
         21    1    1    2  502  501 -0.41228779388E+02  0.83323919524E+02  0.30795571650E+02  0.97933932056E+02  0.00000000000E+00 0.  1.
<scales pt_clust_5="13000.00000" pt_clust_6="13000.00000" pt_clust_7="13000.00000" pt_clust_8="13000.00000" pt_clust_9="92.96606"></scales>
<clustering>
<clus scale="   81.152">  5  6 -1 -1</clus>
<clus scale="   90.500">  7  8 -1 -1</clus>
<clus scale="   92.966">  1  9  2 -1</clus>
<clus scale="  143.900">  1  5  2 -1</clus>
<clus scale="  149.372">  2  5  1 -1</clus>
</clustering>
</event>
<event>
 9    2  0.6066854E-005  0.2112046E+03  0.7546771E-02  0.1167382E+00
          2   -1    0    0  502    0  0.00000000000E+00  0.00000000000E+00  0.33641824663E+03  0.33641824663E+03  0.00000000000E+00 0. -1.
         -1   -1    0    0    0  501 -0.00000000000E+00 -0.00000000000E+00 -0.30134854837E+03  0.30134854837E+03  0.00000000000E+00 0.  1.
         23    2    1    2    0    0  0.56101387365E+02  0.23088563687E+03 -0.37333934464E+02  0.25585701573E+03  0.87255067810E+02 0.  0.
         24    2    1    2    0    0 -0.14394608427E+02 -0.65733553530E+02  0.15586244288E+03  0.19222572873E+03  0.90163877870E+02 0.  0.
        -11    1    4    4    0    0  0.13894982403E+02 -0.50602149057E+02  0.26198134633E+02  0.58651430361E+02  0.00000000000E+00 0.  1.
         12    1    4    4    0    0 -0.28289590830E+02 -0.15131404473E+02  0.12966430825E+03  0.13357429837E+03  0.00000000000E+00 0. -1.
        -13    1    3    3    0    0  0.56792110777E+02  0.78788162609E+02  0.71509866488E+01  0.97386113095E+02  0.00000000000E+00 0.  1.
         13    1    3    3    0    0 -0.69072341187E+00  0.15209747426E+03 -0.44484921113E+02  0.15847090263E+03  0.00000000000E+00 0. -1.
         21    1    1    2  502  501 -0.41706778938E+02 -0.16515208334E+03 -0.83458810155E+02  0.18968405055E+03  0.00000000000E+00 0. -1.
<scales pt_clust_5="13000.00000" pt_clust_6="13000.00000" pt_clust_7="13000.00000" pt_clust_8="13000.00000" pt_clust_9="192.33804"></scales>
<clustering>
<clus scale="   87.255">  7  8 -1 -1</clus>
<clus scale="   90.164">  5  6 -1 -1</clus>
<clus scale="  112.506">  1  5  2 -1</clus>
<clus scale="  192.338">  2  9  1 -1</clus>
<clus scale="  112.506">  1  5  2 -1</clus>
</clustering>
</event>
<event>
 9    2  0.6066854E-005  0.1890882E+03  0.7546771E-02  0.1161456E+00
         -1   -1    0    0    0  501 -0.00000000000E+00  0.00000000000E+00  0.10327902444E+03  0.10327902444E+03  0.00000000000E+00 0.  1.
          2   -1    0    0  502    0  0.00000000000E+00 -0.00000000000E+00 -0.76618292101E+03  0.76618292101E+03  0.00000000000E+00 0. -1.
         24    2    1    2    0    0 -0.80993297492E+02  0.14129473673E+03 -0.16208782964E+03  0.24117714665E+03  0.73279155847E+02 0.  0.
         23    2    1    2    0    0  0.12427441791E+03 -0.11181317239E+03 -0.53326711750E+03  0.56667726108E+03  0.93824214071E+02 0.  0.
        -11    1    3    3    0    0 -0.29476841839E+02  0.10900129191E+03 -0.13080252392E+03  0.17279891813E+03  0.00000000000E+00 0.  1.
         12    1    3    3    0    0 -0.51516455653E+02  0.32293444815E+02 -0.31285305723E+02  0.68378228518E+02  0.00000000000E+00 0. -1.
        -13    1    4    4    0    0  0.28724372725E+01 -0.55122034673E+02 -0.11675862516E+03  0.12914823325E+03  0.00000000000E+00 0.  1.
         13    1    4    4    0    0  0.12140198063E+03 -0.56691137717E+02 -0.41650849234E+03  0.43752902783E+03  0.00000000000E+00 0. -1.
         21    1    1    2  502  501 -0.43281120415E+02 -0.29481564338E+02  0.32451050574E+02  0.61607537717E+02  0.00000000000E+00 0.  1.
<scales pt_clust_5="13000.00000" pt_clust_6="13000.00000" pt_clust_7="13000.00000" pt_clust_8="13000.00000" pt_clust_9="52.36810"></scales>
<clustering>
<clus scale="   52.368">  1  9  2 -1</clus>
<clus scale="   73.279">  5  6 -1 -1</clus>
<clus scale="   93.824">  7  8 -1 -1</clus>
<clus scale="  179.781">  1  5  2 -1</clus>
<clus scale="  189.088">  2  5  1 -1</clus>
</clustering>
</event>
<event>
 9    2  0.6066854E-005  0.1749409E+03  0.7546771E-02  0.1207932E+00
         -1   -1    0    0    0  501 -0.00000000000E+00  0.00000000000E+00  0.25993687705E+03  0.25993687705E+03  0.00000000000E+00 0.  1.
          2   -1    0    0  502    0  0.00000000000E+00 -0.00000000000E+00 -0.19300061191E+03  0.19300061191E+03  0.00000000000E+00 0. -1.
         23    2    1    2    0    0 -0.53764270110E+02  0.11614472010E+03  0.35605162417E+02  0.17986738458E+03  0.12126151779E+03 0.  0.
         24    2    1    2    0    0  0.15762538689E+02  0.35887937981E+01 -0.73836548166E+02  0.10923945788E+03  0.78867523390E+02 0.  0.
        -13    1    4    4    0    0 -0.14676985669E+02  0.28942097377E+02 -0.97262746097E+01  0.33877120992E+02  0.00000000000E+00 0.  1.
         14    1    4    4    0    0  0.30439524358E+02 -0.25353303579E+02 -0.64110273556E+02  0.75362336886E+02  0.00000000000E+00 0. -1.
        -11    1    3    3    0    0 -0.68931382101E+02  0.36989627426E+02  0.56630089530E+02  0.96575022732E+02  0.00000000000E+00 0.  1.
         11    1    3    3    0    0  0.15167111991E+02  0.79155092671E+02 -0.21024927113E+02  0.83292361847E+02  0.00000000000E+00 0. -1.
         21    1    1    2  502  501  0.38001731421E+02 -0.11973351390E+03  0.10516765089E+03  0.16383064651E+03  0.00000000000E+00 0.  1.
<scales pt_clust_5="13000.00000" pt_clust_6="13000.00000" pt_clust_7="13000.00000" pt_clust_8="13000.00000" pt_clust_9="126.09510"></scales>
<clustering>
<clus scale="   78.868">  5  6 -1 -1</clus>
<clus scale="   80.507">  2  5  1 -1</clus>
<clus scale="  121.262">  7  8 -1 -1</clus>
<clus scale="  126.095">  1  9  2 -1</clus>
<clus scale="   80.507">  2  5  1 -1</clus>
</clustering>
</event>
<event>
 9    2  0.6066854E-005  0.1686216E+03  0.7546771E-02  0.1183418E+00
          2   -1    0    0  502    0  0.00000000000E+00  0.00000000000E+00  0.53634355341E+03  0.53634355341E+03  0.00000000000E+00 0. -1.
         -1   -1    0    0    0  501 -0.00000000000E+00 -0.00000000000E+00 -0.92973547511E+02  0.92973547511E+02  0.00000000000E+00 0.  1.
         23    2    1    2    0    0  0.13820937167E+03  0.11178538772E+03  0.14862478661E+03  0.25873348594E+03  0.11513420962E+03 0.  0.
         24    2    1    2    0    0 -0.95562697734E+02 -0.42099700456E+02  0.21721009255E+03  0.25794911900E+03  0.91939706940E+02 0.  0.
        -11    1    4    4    0    0 -0.57123627263E+02  0.23519680179E+02  0.80030117446E+02  0.10109947500E+03  0.00000000000E+00 0.  1.
         12    1    4    4    0    0 -0.38439070471E+02 -0.65619380634E+02  0.13717997510E+03  0.15684964400E+03  0.00000000000E+00 0. -1.
        -13    1    3    3    0    0  0.78287586246E+02  0.10813488393E+03  0.48589012340E+02  0.14206685540E+03  0.00000000000E+00 0. -1.
         13    1    3    3    0    0  0.59921785423E+02  0.36505037875E+01  0.10003577427E+03  0.11666663054E+03  0.00000000000E+00 0.  1.
         21    1    1    2  502  501 -0.42646673935E+02 -0.69685687264E+02  0.77535126745E+02  0.11263449599E+03  0.00000000000E+00 0.  1.
<scales pt_clust_5="13000.00000" pt_clust_6="13000.00000" pt_clust_7="13000.00000" pt_clust_8="13000.00000" pt_clust_9="81.69966"></scales>
<clustering>
<clus scale="   81.700">  2  9  1 -1</clus>
<clus scale="   91.940">  5  6 -1 -1</clus>
<clus scale="  115.134">  7  8 -1 -1</clus>
<clus scale="  153.721">  1  5  2 -1</clus>
<clus scale="  153.721">  1  5  2 -1</clus>
</clustering>
</event>
<event>
 9    2  0.6066854E-005  0.1032440E+03  0.7546771E-02  0.1278728E+00
         -1   -1    0    0    0  501 -0.00000000000E+00  0.00000000000E+00  0.91541462287E+02  0.91541462287E+02  0.00000000000E+00 0.  1.
          2   -1    0    0  502    0  0.00000000000E+00 -0.00000000000E+00 -0.17731592445E+03  0.17731592445E+03  0.00000000000E+00 0. -1.
         23    2    1    2    0    0 -0.28102335571E+02  0.19151350524E+02  0.12422930116E+02  0.99707610712E+02  0.92901899603E+02 0.  0.
         24    2    1    2    0    0  0.22185881885E+02 -0.44712312514E+02 -0.10472813775E+03  0.14211243447E+03  0.82076531051E+02 0.  0.
        -13    1    4    4    0    0  0.45137142425E+02 -0.33214706875E+02 -0.31000631741E+02  0.64043872052E+02  0.00000000000E+00 0.  1.
         14    1    4    4    0    0 -0.22951260540E+02 -0.11497605639E+02 -0.73727506009E+02  0.78068562419E+02  0.00000000000E+00 0. -1.
        -13    1    3    3    0    0 -0.42612182664E+02  0.48997551473E+02  0.14215793902E+02  0.66472903938E+02  0.00000000000E+00 0. -1.
         13    1    3    3    0    0  0.14509847092E+02 -0.29846200950E+02 -0.17928637857E+01  0.33234706774E+02  0.00000000000E+00 0.  1.
         21    1    1    2  502  501  0.59164536864E+01  0.25560961991E+02  0.65307454673E+01  0.27037341557E+02  0.00000000000E+00 0. -1.
<scales pt_clust_5="13000.00000" pt_clust_6="13000.00000" pt_clust_7="13000.00000" pt_clust_8="13000.00000" pt_clust_9="26.23675"></scales>
<clustering>
<clus scale="   26.237">  1  9  2 -1</clus>
<clus scale="   82.077">  5  6 -1 -1</clus>
<clus scale="   92.902">  7  8 -1 -1</clus>
<clus scale="   93.622">  2  5  1 -1</clus>
<clus scale="   93.622">  2  5  1 -1</clus>
</clustering>
</event>
<event>
 9    2  0.6066854E-005  0.9402371E+02  0.7546771E-02  0.1302164E+00
          4   -1    0    0  502    0  0.00000000000E+00  0.00000000000E+00  0.43185927118E+03  0.43185927118E+03  0.00000000000E+00 0. -1.
         -3   -1    0    0    0  501 -0.00000000000E+00 -0.00000000000E+00 -0.10772322116E+03  0.10772322116E+03  0.00000000000E+00 0.  1.
         23    2    1    2    0    0 -0.79612184574E+01  0.19531368058E+02 -0.60427776717E+02  0.11280614023E+03  0.92891623611E+02 0.  0.
         24    2    1    2    0    0 -0.15588290161E+02  0.89727969780E-01  0.38776418562E+03  0.39595737967E+03  0.78601399619E+02 0.  0.
        -11    1    4    4    0    0  0.16235818640E+02 -0.23982702258E+02  0.70847800205E+02  0.76538765396E+02  0.00000000000E+00 0.  1.
         12    1    4    4    0    0 -0.31824108801E+02  0.24072430228E+02  0.31691638542E+03  0.31941861427E+03  0.00000000000E+00 0. -1.
        -13    1    3    3    0    0 -0.43758965492E+02  0.34003913947E+02 -0.26597686988E+02  0.61469912784E+02  0.00000000000E+00 0. -1.
         13    1    3    3    0    0  0.35797747034E+02 -0.14472545890E+02 -0.33830089730E+02  0.51336227446E+02  0.00000000000E+00 0.  1.
         21    1    1    2  502  501  0.23549508619E+02 -0.19621096027E+02 -0.32003588906E+01  0.30818972444E+02  0.00000000000E+00 0.  1.
<scales pt_clust_5="13000.00000" pt_clust_6="13000.00000" pt_clust_7="13000.00000" pt_clust_8="13000.00000" pt_clust_9="30.65235"></scales>
<clustering>
<clus scale="   30.652">  2  9  1 -1</clus>
<clus scale="   78.601">  5  6 -1 -1</clus>
<clus scale="   79.936">  1  5  2 -1</clus>
<clus scale="   92.892">  7  8 -1 -1</clus>
<clus scale="   79.936">  1  5  2 -1</clus>
</clustering>
</event>
<event>
 9    2  0.6066854E-005  0.9380035E+02  0.7546771E-02  0.1298413E+00
         -1   -1    0    0    0  501 -0.00000000000E+00  0.00000000000E+00  0.66146288769E+02  0.66146288769E+02  0.00000000000E+00 0.  1.
          2   -1    0    0  502    0  0.00000000000E+00 -0.00000000000E+00 -0.63306983584E+03  0.63306983584E+03  0.00000000000E+00 0. -1.
         23    2    1    2    0    0 -0.50530810263E+01  0.64675545504E+01 -0.37752886312E+01  0.93826543298E+02  0.93390601954E+02 0.  0.
         24    2    1    2    0    0  0.41816608388E+02  0.71576749098E+02 -0.43924245494E+03  0.45440905800E+03  0.81742265874E+02 0.  0.
        -11    1    4    4    0    0  0.25698292685E+02 -0.12668057694E+02 -0.15021619277E+03  0.15292412008E+03  0.00000000000E+00 0.  1.
         12    1    4    4    0    0  0.16118315703E+02  0.84244806793E+02 -0.28902626217E+03  0.30148493792E+03  0.00000000000E+00 0. -1.
        -11    1    3    3    0    0 -0.41696175448E+02  0.78428778626E+01  0.23151577039E+02  0.48332983557E+02  0.00000000000E+00 0.  1.
         11    1    3    3    0    0  0.36643094422E+02 -0.13753233122E+01 -0.26926865670E+02  0.45493559740E+02  0.00000000000E+00 0. -1.
         21    1    1    2  502  501 -0.36763527362E+02 -0.78044303649E+02 -0.12390580350E+03  0.15098052331E+03  0.00000000000E+00 0.  1.
<scales pt_clust_5="13000.00000" pt_clust_6="13000.00000" pt_clust_7="13000.00000" pt_clust_8="13000.00000" pt_clust_9="86.26975"></scales>
<clustering>
<clus scale="   81.742">  5  6 -1 -1</clus>
<clus scale="   86.270">  2  9  1 -1</clus>
<clus scale="   86.270">  2  5  1 -1</clus>
<clus scale="   93.391">  7  8 -1 -1</clus>
<clus scale="   86.270">  2  5  1 -1</clus>
</clustering>
</event>
<event>
 9    2  0.6066854E-005  0.1793926E+03  0.7546771E-02  0.1169669E+00
          2   -1    0    0  502    0  0.00000000000E+00  0.00000000000E+00  0.17699621001E+04  0.17699621001E+04  0.00000000000E+00 0. -1.
         -1   -1    0    0    0  501 -0.00000000000E+00 -0.00000000000E+00 -0.43222189276E+02  0.43222189276E+02  0.00000000000E+00 0.  1.
         23    2    1    2    0    0 -0.33042367874E+02  0.13995272109E+03  0.64973628448E+03  0.67174068405E+03  0.91650122876E+02 0.  0.
         24    2    1    2    0    0  0.65656927315E+02 -0.14848250840E+03  0.10902313888E+04  0.11052297894E+04  0.81058738162E+02 0.  0.
        -11    1    4    4    0    0 -0.28702927057E+01 -0.34520874993E+02  0.94321919899E+02  0.10048161008E+03  0.00000000000E+00 0.  1.
         12    1    4    4    0    0  0.68527220020E+02 -0.11396163341E+03  0.99590946886E+03  0.10047481794E+04  0.00000000000E+00 0. -1.
        -13    1    3    3    0    0 -0.64065139772E+02  0.10619887850E+03  0.49933223108E+03  0.51450483081E+03  0.00000000000E+00 0.  1.
         13    1    3    3    0    0  0.31022771899E+02  0.33753842591E+02  0.15040405340E+03  0.15723585324E+03  0.00000000000E+00 0. -1.
         21    1    1    2  502  501 -0.32614559441E+02  0.85297873148E+01 -0.13227762445E+02  0.36213815851E+02  0.00000000000E+00 0. -1.
<scales pt_clust_5="13000.00000" pt_clust_6="13000.00000" pt_clust_7="13000.00000" pt_clust_8="13000.00000" pt_clust_9="33.71152"></scales>
<clustering>
<clus scale="   33.712">  2  9  1 -1</clus>
<clus scale="   81.059">  5  6 -1 -1</clus>
<clus scale="   91.650">  7  8 -1 -1</clus>
<clus scale="  174.220">  1  5  2 -1</clus>
<clus scale="  174.220">  1  5  2 -1</clus>
</clustering>
</event>
<event>
 9    2  0.6066854E-005  0.1674432E+03  0.7546771E-02  0.1181998E+00
          2   -1    0    0  502    0  0.00000000000E+00  0.00000000000E+00  0.25066285675E+03  0.25066285675E+03  0.00000000000E+00 0. -1.
         -1   -1    0    0    0  501 -0.00000000000E+00 -0.00000000000E+00 -0.34525582741E+03  0.34525582741E+03  0.00000000000E+00 0.  1.
         24    2    1    2    0    0 -0.52736577339E+02  0.87836903657E+02 -0.16197433501E+03  0.20999874007E+03  0.85833078689E+02 0.  0.
         23    2    1    2    0    0  0.83090830220E+02 -0.11736325470E+03  0.18967194428E+03  0.25650521536E+03  0.95609933794E+02 0.  0.
        -13    1    3    3    0    0 -0.46801831210E+02  0.73221707191E+02 -0.17100745285E+03  0.19182121556E+03  0.00000000000E+00 0.  1.
         14    1    3    3    0    0 -0.59347461299E+01  0.14615196467E+02  0.90331178437E+01  0.18177524511E+02  0.00000000000E+00 0. -1.
        -11    1    4    4    0    0  0.48230609452E+02 -0.29071673199E+02  0.15932267675E+02  0.58525131558E+02  0.00000000000E+00 0.  1.
         11    1    4    4    0    0  0.34860220768E+02 -0.88291581501E+02  0.17373967660E+03  0.19798008380E+03  0.00000000000E+00 0. -1.
         21    1    1    2  502  501 -0.30354252880E+02  0.29526351043E+02 -0.12229057993E+03  0.12941472873E+03  0.00000000000E+00 0. -1.
<scales pt_clust_5="13000.00000" pt_clust_6="13000.00000" pt_clust_7="13000.00000" pt_clust_8="13000.00000" pt_clust_9="42.34603"></scales>
<clustering>
<clus scale="   42.346">  2  9  1 -1</clus>
<clus scale="   85.833">  5  6 -1 -1</clus>
<clus scale="   95.610">  7  8 -1 -1</clus>
<clus scale="  162.059">  2  5  1 -1</clus>
<clus scale="  167.443">  1  5  2 -1</clus>
</clustering>
</event>
<event>
 9    2  0.6066854E-005  0.1018369E+03  0.7546771E-02  0.1283266E+00
          2   -1    0    0  502    0  0.00000000000E+00  0.00000000000E+00  0.60896486085E+03  0.60896486085E+03  0.00000000000E+00 0. -1.
         -1   -1    0    0    0  501 -0.00000000000E+00 -0.00000000000E+00 -0.56142180026E+02  0.56142180026E+02  0.00000000000E+00 0.  1.
         23    2    1    2    0    0  0.52626727329E+02 -0.72915996234E+01  0.51008306068E+02  0.11836073771E+03  0.92653532528E+02 0.  0.
         24    2    1    2    0    0 -0.26163452785E+02  0.33555185134E+02  0.50151437733E+03  0.50946130856E+03  0.78890288028E+02 0.  0.
        -13    1    4    4    0    0  0.21688582924E+01 -0.21841818714E+02  0.66727846772E+02  0.70245103216E+02  0.00000000000E+00 0.  1.
         14    1    4    4    0    0 -0.28332311078E+02  0.55397003848E+02  0.43478653056E+03  0.43921620535E+03  0.00000000000E+00 0. -1.
        -13    1    3    3    0    0  0.45990198517E+02 -0.27356523837E+02 -0.94281231195E+01  0.54335690496E+02  0.00000000000E+00 0.  1.
         13    1    3    3    0    0  0.66365288119E+01  0.20064924214E+02  0.60436429188E+02  0.64025047219E+02  0.00000000000E+00 0. -1.
         21    1    1    2  502  501 -0.26463274544E+02 -0.26263585511E+02  0.29999742364E+00  0.37284994595E+02  0.00000000000E+00 0.  1.
<scales pt_clust_5="13000.00000" pt_clust_6="13000.00000" pt_clust_7="13000.00000" pt_clust_8="13000.00000" pt_clust_9="37.28379"></scales>
<clustering>
<clus scale="   37.284">  2  9  1 -1</clus>
<clus scale="   78.890">  5  6 -1 -1</clus>
<clus scale="   89.497">  1  5  2 -1</clus>
<clus scale="   92.654">  7  8 -1 -1</clus>
<clus scale="   89.497">  1  5  2 -1</clus>
</clustering>
</event>
<event>
 9    2  0.6066854E-005  0.1054468E+03  0.7546771E-02  0.1273578E+00
          2   -1    0    0  502    0  0.00000000000E+00  0.00000000000E+00  0.17062254873E+02  0.17062254873E+02  0.00000000000E+00 0. -1.
         -1   -1    0    0    0  501 -0.00000000000E+00 -0.00000000000E+00 -0.82653818967E+03  0.82653818967E+03  0.00000000000E+00 0.  1.
         24    2    1    2    0    0  0.57788981886E+02 -0.15699994726E+02 -0.45625345748E+03  0.46740895934E+03  0.81962561875E+02 0.  0.
         23    2    1    2    0    0 -0.48288571300E+02 -0.64779457549E+01 -0.26293158640E+03  0.28273259676E+03  0.91820216979E+02 0.  0.
        -11    1    3    3    0    0  0.66637238132E+02 -0.37666146985E+02 -0.31383626758E+03  0.32303631837E+03  0.00000000000E+00 0.  1.
         12    1    3    3    0    0 -0.88482562455E+01  0.21966152259E+02 -0.14241718989E+03  0.14437264097E+03  0.00000000000E+00 0. -1.
        -13    1    4    4    0    0  0.34811842091E+01 -0.29933502656E+02 -0.17803567881E+03  0.18056809284E+03  0.00000000000E+00 0.  1.
         13    1    4    4    0    0 -0.51769755509E+02  0.23455556901E+02 -0.84895907588E+02  0.10216450392E+03  0.00000000000E+00 0. -1.
         21    1    1    2  502  501 -0.95004105861E+01  0.22177940481E+02 -0.90290890925E+02  0.93458888445E+02  0.00000000000E+00 0. -1.
<scales pt_clust_5="13000.00000" pt_clust_6="13000.00000" pt_clust_7="13000.00000" pt_clust_8="13000.00000" pt_clust_9="24.12714"></scales>
<clustering>
<clus scale="   24.127">  2  9  1 -1</clus>
<clus scale="   81.963">  5  6 -1 -1</clus>
<clus scale="   91.820">  7  8 -1 -1</clus>
<clus scale="   96.984">  2  5  1 -1</clus>
<clus scale="  105.447">  1  5  2 -1</clus>
</clustering>
</event>
<event>
 9    2  0.6066854E-005  0.1175241E+03  0.7546771E-02  0.1248832E+00
         -1   -1    0    0    0  501 -0.00000000000E+00  0.00000000000E+00  0.11989497220E+03  0.11989497220E+03  0.00000000000E+00 0.  1.
          2   -1    0    0  502    0  0.00000000000E+00 -0.00000000000E+00 -0.16807013784E+03  0.16807013784E+03  0.00000000000E+00 0. -1.
         23    2    1    2    0    0  0.30624478273E+02  0.88825965924E+02 -0.22361874962E+02  0.13352833152E+03  0.92205482347E+02 0.  0.
         24    2    1    2    0    0 -0.29864482004E+02 -0.51786477212E+02 -0.42073816708E+02  0.11397808322E+03  0.87447532237E+02 0.  0.
        -13    1    4    4    0    0 -0.28006189827E+01 -0.58921929562E+02  0.50128533812E+01  0.59201063749E+02  0.00000000000E+00 0.  1.
         14    1    4    4    0    0 -0.27063863021E+02  0.71354523502E+01 -0.47086670089E+02  0.54777019469E+02  0.00000000000E+00 0. -1.
        -11    1    3    3    0    0  0.20368507402E+02  0.42117725861E+02 -0.57541931118E+02  0.74160992188E+02  0.00000000000E+00 0. -1.
         11    1    3    3    0    0  0.10255970871E+02  0.46708240063E+02  0.35180056156E+02  0.59367339332E+02  0.00000000000E+00 0.  1.
         21    1    1    2  502  501 -0.75999626894E+00 -0.37039488712E+02  0.16260526026E+02  0.40458695296E+02  0.00000000000E+00 0.  1.
<scales pt_clust_5="13000.00000" pt_clust_6="13000.00000" pt_clust_7="13000.00000" pt_clust_8="13000.00000" pt_clust_9="37.04728"></scales>
<clustering>
<clus scale="   37.047">  1  9  2 -1</clus>
<clus scale="   87.448">  5  6 -1 -1</clus>
<clus scale="   92.205">  7  8 -1 -1</clus>
<clus scale="  113.829">  2  5  1 -1</clus>
<clus scale="  113.829">  2  5  1 -1</clus>
</clustering>
</event>
<event>
 9    2  0.6066854E-005  0.9493383E+02  0.7546771E-02  0.1295900E+00
          2   -1    0    0  502    0  0.00000000000E+00  0.00000000000E+00  0.16816190272E+03  0.16816190272E+03  0.00000000000E+00 0. -1.
         -1   -1    0    0    0  501 -0.00000000000E+00 -0.00000000000E+00 -0.19869330126E+03  0.19869330126E+03  0.00000000000E+00 0.  1.
         24    2    1    2    0    0  0.45240949683E+02 -0.74299445565E+02 -0.20870257534E+02  0.12014435753E+03  0.80199425539E+02 0.  0.
         23    2    1    2    0    0 -0.22901225949E+02  0.46655793489E+01  0.86442995628E+02  0.12594684661E+03  0.88566262749E+02 0.  0.
        -11    1    3    3    0    0  0.42843868121E+02 -0.89716769683E+02 -0.76880269962E+01  0.99718611889E+02  0.00000000000E+00 0.  1.
         12    1    3    3    0    0  0.23970815613E+01  0.15417324118E+02 -0.13182230538E+02  0.20425745639E+02  0.00000000000E+00 0. -1.
        -13    1    4    4    0    0  0.14526601958E+02 -0.34490699865E+02  0.36042248827E+02  0.51958389526E+02  0.00000000000E+00 0.  1.
         13    1    4    4    0    0 -0.37427827907E+02  0.39156279213E+02  0.50400746801E+02  0.73988457085E+02  0.00000000000E+00 0. -1.
         21    1    1    2  502  501 -0.22339723734E+02  0.69633866216E+02 -0.96104136628E+02  0.12076399984E+03  0.00000000000E+00 0. -1.
<scales pt_clust_5="13000.00000" pt_clust_6="13000.00000" pt_clust_7="13000.00000" pt_clust_8="13000.00000" pt_clust_9="73.12960"></scales>
<clustering>
<clus scale="   73.130">  2  9  1 -1</clus>
<clus scale="   80.199">  5  6 -1 -1</clus>
<clus scale="   87.180">  2  5  1 -1</clus>
<clus scale="   88.566">  7  8 -1 -1</clus>
<clus scale="   94.934">  1  5  2 -1</clus>
</clustering>
</event>
<event>
 9    2  0.6066854E-005  0.1020776E+03  0.7546771E-02  0.1282005E+00
          2   -1    0    0  502    0  0.00000000000E+00  0.00000000000E+00  0.23235034087E+03  0.23235034087E+03  0.00000000000E+00 0. -1.
         -1   -1    0    0    0  501 -0.00000000000E+00 -0.00000000000E+00 -0.10425859770E+03  0.10425859770E+03  0.00000000000E+00 0.  1.
         23    2    1    2    0    0 -0.31375592100E+02  0.74265856779E+02  0.11122730672E+03  0.16512175400E+03  0.91617872821E+02 0.  0.
         24    2    1    2    0    0  0.17773522825E+02 -0.75720986860E+01  0.50237451743E+02  0.95679323456E+02  0.79104339877E+02 0.  0.
        -13    1    4    4    0    0 -0.17420022314E+02 -0.17873511039E+02 -0.85587246697E+01  0.26385059072E+02  0.00000000000E+00 0.  1.
         14    1    4    4    0    0  0.35193545138E+02  0.10301412353E+02  0.58796176412E+02  0.69294264384E+02  0.00000000000E+00 0. -1.
        -11    1    3    3    0    0 -0.82207501863E+01  0.26455168238E+02  0.10844371099E+03  0.11192629322E+03  0.00000000000E+00 0. -1.
         11    1    3    3    0    0 -0.23154841914E+02  0.47810688541E+02  0.27835957349E+01  0.53195460784E+02  0.00000000000E+00 0.  1.
         21    1    1    2  502  501  0.13602069275E+02 -0.66693758093E+02 -0.33373015288E+02  0.75807861113E+02  0.00000000000E+00 0.  1.
<scales pt_clust_5="13000.00000" pt_clust_6="13000.00000" pt_clust_7="13000.00000" pt_clust_8="13000.00000" pt_clust_9="68.06669"></scales>
<clustering>
<clus scale="   68.067">  2  9  1 -1</clus>
<clus scale="   79.104">  5  6 -1 -1</clus>
<clus scale="   91.014">  1  5  2 -1</clus>
<clus scale="   91.618">  7  8 -1 -1</clus>
<clus scale="   91.014">  1  5  2 -1</clus>
</clustering>
</event>
<event>
 9    2  0.6066854E-005  0.9275369E+02  0.7546771E-02  0.1297691E+00
         -1   -1    0    0    0  501 -0.00000000000E+00  0.00000000000E+00  0.13499934114E+03  0.13499934114E+03  0.00000000000E+00 0.  1.
          2   -1    0    0  502    0  0.00000000000E+00 -0.00000000000E+00 -0.18116122914E+03  0.18116122914E+03  0.00000000000E+00 0. -1.
         23    2    1    2    0    0 -0.87066396718E+01 -0.25267772444E+02  0.26460456679E+02  0.91215163294E+02  0.83101049021E+02 0.  0.
         24    2    1    2    0    0  0.39732995854E+02  0.23709074345E+02 -0.12996995714E+03  0.15972414532E+03  0.80490879438E+02 0.  0.
        -13    1    4    4    0    0  0.33290186800E+02  0.42022306076E+02 -0.37961957188E+02  0.65690341289E+02  0.00000000000E+00 0.  1.
         14    1    4    4    0    0  0.64428090546E+01 -0.18313231731E+02 -0.92007999955E+02  0.94033804031E+02  0.00000000000E+00 0. -1.
        -11    1    3    3    0    0 -0.30051914666E+02 -0.47333087997E+02  0.12270642637E+02  0.57394315617E+02  0.00000000000E+00 0.  1.
         11    1    3    3    0    0  0.21345274994E+02  0.22065315553E+02  0.14189814042E+02  0.33820847677E+02  0.00000000000E+00 0. -1.
         21    1    1    2  502  501 -0.31026356182E+02  0.15586980990E+01  0.57347612464E+02  0.65221261664E+02  0.00000000000E+00 0.  1.
<scales pt_clust_5="13000.00000" pt_clust_6="13000.00000" pt_clust_7="13000.00000" pt_clust_8="13000.00000" pt_clust_9="31.06548"></scales>
<clustering>
<clus scale="   31.065">  1  9  2 -1</clus>
<clus scale="   80.491">  5  6 -1 -1</clus>
<clus scale="   83.101">  7  8 -1 -1</clus>
<clus scale="   90.423">  2  5  1 -1</clus>
<clus scale="   90.423">  2  5  1 -1</clus>
</clustering>
</event>
<event>
 9    2  0.6066854E-005  0.1310099E+03  0.7546771E-02  0.1227606E+00
          2   -1    0    0  502    0  0.00000000000E+00  0.00000000000E+00  0.60343729724E+03  0.60343729724E+03  0.00000000000E+00 0. -1.
         -1   -1    0    0    0  501 -0.00000000000E+00 -0.00000000000E+00 -0.60622846655E+02  0.60622846655E+02  0.00000000000E+00 0.  1.
         24    2    1    2    0    0  0.10257623084E+03  0.86228843949E+01  0.47450115860E+02  0.13883531539E+03  0.80171653560E+02 0.  0.
         23    2    1    2    0    0 -0.71698308602E+02 -0.48260236601E+02  0.38294182610E+03  0.40208512647E+03  0.86938534946E+02 0.  0.
        -11    1    3    3    0    0  0.10202109740E+03  0.67255529760E+01  0.65012695541E+02  0.12116182550E+03  0.00000000000E+00 0.  1.
         12    1    3    3    0    0  0.55513344249E+00  0.18973314189E+01 -0.17562579682E+02  0.17673489885E+02  0.00000000000E+00 0. -1.
        -11    1    4    4    0    0 -0.60024448148E+02 -0.73346495646E+02  0.28805397899E+03  0.30324534228E+03  0.00000000000E+00 0. -1.
         11    1    4    4    0    0 -0.11673860454E+02  0.25086259045E+02  0.94887847109E+02  0.98839784195E+02  0.00000000000E+00 0.  1.
         21    1    1    2  502  501 -0.30877922242E+02  0.39637352206E+02  0.11242250863E+03  0.12313970204E+03  0.00000000000E+00 0. -1.
<scales pt_clust_5="13000.00000" pt_clust_6="13000.00000" pt_clust_7="13000.00000" pt_clust_8="13000.00000" pt_clust_9="50.24506"></scales>
<clustering>
<clus scale="   50.245">  1  9  2 -1</clus>
<clus scale="   80.172">  5  6 -1 -1</clus>
<clus scale="   86.939">  7  8 -1 -1</clus>
<clus scale="  126.621">  2  5  1 -1</clus>
<clus scale="   50.245">  1  5  2 -1</clus>
</clustering>
</event>
<event>
 9    2  0.6066854E-005  0.1984006E+03  0.7546771E-02  0.1151663E+00
         -1   -1    0    0    0  501 -0.00000000000E+00  0.00000000000E+00  0.78251518685E+03  0.78251518685E+03  0.00000000000E+00 0.  1.
          2   -1    0    0  502    0  0.00000000000E+00 -0.00000000000E+00 -0.45195213165E+03  0.45195213165E+03  0.00000000000E+00 0. -1.
         23    2    1    2    0    0 -0.95682306136E+02  0.11612916768E+03  0.69170426702E+03  0.71349131956E+03  0.89297159987E+02 0.  0.
         24    2    1    2    0    0  0.11953793514E+03 -0.13190586115E+03 -0.41545569855E+03  0.45959148492E+03  0.83261163863E+02 0.  0.
        -13    1    4    4    0    0  0.84499542555E+02 -0.51808917742E+02 -0.14729289351E+03  0.17753741332E+03  0.00000000000E+00 0.  1.
         14    1    4    4    0    0  0.35038392582E+02 -0.80096943412E+02 -0.26816280504E+03  0.28205407159E+03  0.00000000000E+00 0. -1.
        -13    1    3    3    0    0 -0.64864524244E+02  0.10756350176E+03  0.64347140385E+03  0.65561632148E+03  0.00000000000E+00 0.  1.
         13    1    3    3    0    0 -0.30817781891E+02  0.85656659157E+01  0.48232863163E+02  0.57874998075E+02  0.00000000000E+00 0. -1.
         21    1    1    2  502  501 -0.23855629002E+02  0.15776693477E+02  0.54314486738E+02  0.61384514022E+02  0.00000000000E+00 0. -1.
<scales pt_clust_5="13000.00000" pt_clust_6="13000.00000" pt_clust_7="13000.00000" pt_clust_8="13000.00000" pt_clust_9="28.60061"></scales>
<clustering>
<clus scale="   28.601">  1  9  2 -1</clus>
<clus scale="   83.261">  5  6 -1 -1</clus>
<clus scale="   89.297">  7  8 -1 -1</clus>
<clus scale="  195.758">  2  5  1 -1</clus>
<clus scale="  195.758">  2  5  1 -1</clus>
</clustering>
</event>
<event>
 9    2  0.8939446E-005  0.9417967E+02  0.7546771E-02  0.1301336E+00
          2   -1    0    0  502    0  0.00000000000E+00  0.00000000000E+00  0.24593262501E+03  0.24593262501E+03  0.00000000000E+00 0. -1.
         -1   -1    0    0    0  501 -0.00000000000E+00 -0.00000000000E+00 -0.32057785811E+03  0.32057785811E+03  0.00000000000E+00 0.  1.
         24    2    1    2    0    0 -0.51391840366E+02 -0.71356484089E+02 -0.22137066308E+03  0.24926359696E+03  0.73447268298E+02 0.  0.
         23    2    1    2    0    0 -0.98061241609E+01  0.18659719635E+02  0.19967955531E+03  0.22067422317E+03  0.91546942894E+02 0.  0.
        -11    1    3    3    0    0 -0.15162166735E+02 -0.65129407040E+02 -0.18828110683E+03  0.19980366902E+03  0.00000000000E+00 0.  1.
         12    1    3    3    0    0 -0.36229673630E+02 -0.62270770484E+01 -0.33089556247E+02  0.49459927947E+02  0.00000000000E+00 0. -1.
        -13    1    4    4    0    0 -0.72887160475E+01 -0.23023821735E+02  0.94794690884E+01  0.25943825530E+02  0.00000000000E+00 0.  1.
         13    1    4    4    0    0 -0.25174081134E+01  0.41683541370E+02  0.19020008622E+03  0.19473039764E+03  0.00000000000E+00 0. -1.
         21    1    1    2  502  501  0.61197964527E+02  0.52696764454E+02 -0.52954125335E+02  0.96572662985E+02  0.00000000000E+00 0.  1.
<scales pt_clust_5="13000.00000" pt_clust_6="13000.00000" pt_clust_7="13000.00000" pt_clust_8="13000.00000" pt_clust_9="80.75977"></scales>
<clustering>
<clus scale="   73.447">  5  6 -1 -1</clus>
<clus scale="   80.760">  2  9  1 -1</clus>
<clus scale="   80.760">  2  5  1 -1</clus>
<clus scale="   91.547">  7  8 -1 -1</clus>
<clus scale="   94.180">  1  5  2 -1</clus>
</clustering>
</event>
<event>
 9    2  0.6066854E-005  0.9654360E+02  0.7546771E-02  0.1293112E+00
         -1   -1    0    0    0  501 -0.00000000000E+00  0.00000000000E+00  0.50388299307E+03  0.50388299307E+03  0.00000000000E+00 0.  1.
          2   -1    0    0  502    0  0.00000000000E+00 -0.00000000000E+00 -0.89610976572E+02  0.89610976572E+02  0.00000000000E+00 0. -1.
         24    2    1    2    0    0  0.53974657440E+02  0.49028931101E+02  0.19613333121E+03  0.22403652783E+03  0.80043628463E+02 0.  0.
         23    2    1    2    0    0 -0.20314987488E+02 -0.21211816739E+02 -0.43489048824E+02  0.10421069539E+03  0.90032948306E+02 0.  0.
        -13    1    3    3    0    0  0.33300394260E+02  0.42405599751E+02  0.19497882906E+03  0.20229655194E+03  0.00000000000E+00 0.  1.
         14    1    3    3    0    0  0.20674263180E+02  0.66233313506E+01  0.11545021574E+01  0.21739975884E+02  0.00000000000E+00 0. -1.
        -11    1    4    4    0    0 -0.29937409822E+02 -0.47789815176E+02 -0.49816465723E+02  0.75244901478E+02  0.00000000000E+00 0. -1.
         11    1    4    4    0    0  0.96224223336E+01  0.26577998437E+02  0.63274168987E+01  0.28965793914E+02  0.00000000000E+00 0.  1.
         21    1    1    2  502  501 -0.33659669952E+02 -0.27817114363E+02  0.26162773411E+03  0.26524674642E+03  0.00000000000E+00 0.  1.
<scales pt_clust_5="13000.00000" pt_clust_6="13000.00000" pt_clust_7="13000.00000" pt_clust_8="13000.00000" pt_clust_9="43.66652"></scales>
<clustering>
<clus scale="   43.667">  1  9  2 -1</clus>
<clus scale="   80.044">  5  6 -1 -1</clus>
<clus scale="   87.302">  1  5  2 -1</clus>
<clus scale="   90.033">  7  8 -1 -1</clus>
<clus scale="   96.544">  2  5  1 -1</clus>
</clustering>
</event>
<event>
 9    2  0.6066854E-005  0.1012028E+03  0.7546771E-02  0.1281383E+00
         -1   -1    0    0    0  501 -0.00000000000E+00  0.00000000000E+00  0.35203828495E+02  0.35203828495E+02  0.00000000000E+00 0.  1.
          2   -1    0    0  502    0  0.00000000000E+00 -0.00000000000E+00 -0.66648774719E+03  0.66648774719E+03  0.00000000000E+00 0. -1.
         24    2    1    2    0    0 -0.41756552815E+02 -0.14784269016E+02 -0.90098806465E+02  0.12747399634E+03  0.78547059163E+02 0.  0.
         23    2    1    2    0    0  0.39661328338E+02  0.38947707557E+02 -0.54024943215E+03  0.54994543018E+03  0.86490359822E+02 0.  0.
        -13    1    3    3    0    0 -0.23162062124E+02 -0.42015150046E+02 -0.79470629102E+02  0.92829601125E+02  0.00000000000E+00 0.  1.
         14    1    3    3    0    0 -0.18594490691E+02  0.27230881030E+02 -0.10628177363E+02  0.34644395215E+02  0.00000000000E+00 0. -1.
        -11    1    4    4    0    0  0.57946264815E+02  0.53729592591E+02 -0.39858437295E+03  0.40634239391E+03  0.00000000000E+00 0. -1.
         11    1    4    4    0    0 -0.18284936478E+02 -0.14781885034E+02 -0.14166505920E+03  0.14360303627E+03  0.00000000000E+00 0.  1.
         21    1    1    2  502  501  0.20952244774E+01 -0.24163438542E+02 -0.93568007276E+00  0.24272149162E+02  0.00000000000E+00 0. -1.
<scales pt_clust_5="13000.00000" pt_clust_6="13000.00000" pt_clust_7="13000.00000" pt_clust_8="13000.00000" pt_clust_9="24.25411"></scales>
<clustering>
<clus scale="   24.254">  1  9  2 -1</clus>
<clus scale="   78.547">  5  6 -1 -1</clus>
<clus scale="   86.490">  7  8 -1 -1</clus>
<clus scale="   94.504">  1  5  2 -1</clus>
<clus scale="  101.203">  2  5  1 -1</clus>
</clustering>
</event>
<event>
 9    2  0.6066854E-005  0.9477006E+02  0.7546771E-02  0.1297940E+00
         -1   -1    0    0    0  501 -0.00000000000E+00  0.00000000000E+00  0.50894048759E+02  0.50894048759E+02  0.00000000000E+00 0.  1.
          2   -1    0    0  502    0  0.00000000000E+00 -0.00000000000E+00 -0.24709573719E+03  0.24709573719E+03  0.00000000000E+00 0. -1.
         23    2    1    2    0    0 -0.35279312169E+02  0.10416462162E+02 -0.60086928812E+02  0.11497251552E+03  0.90857623563E+02 0.  0.
         24    2    1    2    0    0  0.20890343750E+02  0.17645216408E+02 -0.12213303720E+03  0.14852105646E+03  0.79964150178E+02 0.  0.
        -13    1    4    4    0    0 -0.90192975741E+01  0.39333795039E+02 -0.33329939464E+02  0.52339086977E+02  0.00000000000E+00 0.  1.
         14    1    4    4    0    0  0.29909641324E+02 -0.21688578632E+02 -0.88803097732E+02  0.96181969485E+02  0.00000000000E+00 0. -1.
        -11    1    3    3    0    0 -0.50935885834E+02 -0.26046226878E+02 -0.26787521799E+02  0.63169943204E+02  0.00000000000E+00 0. -1.
         11    1    3    3    0    0  0.15656573665E+02  0.36462689041E+02 -0.33299407012E+02  0.51802572314E+02  0.00000000000E+00 0.  1.
         21    1    1    2  502  501  0.14388968419E+02 -0.28061678570E+02 -0.13981722423E+02  0.34496213970E+02  0.00000000000E+00 0.  1.
<scales pt_clust_5="13000.00000" pt_clust_6="13000.00000" pt_clust_7="13000.00000" pt_clust_8="13000.00000" pt_clust_9="31.53570"></scales>
<clustering>
<clus scale="   31.536">  1  9  2 -1</clus>
<clus scale="   79.964">  5  6 -1 -1</clus>
<clus scale="   84.383">  2  5  1 -1</clus>
<clus scale="   90.858">  7  8 -1 -1</clus>
<clus scale="   84.383">  2  5  1 -1</clus>
</clustering>
</event>
<event>
 9    2  0.6066854E-005  0.1118437E+03  0.7546771E-02  0.1261974E+00
          4   -1    0    0  502    0  0.00000000000E+00  0.00000000000E+00  0.42858501255E+03  0.42858501255E+03  0.00000000000E+00 0. -1.
         -3   -1    0    0    0  501 -0.00000000000E+00 -0.00000000000E+00 -0.48281063405E+02  0.48281063405E+02  0.00000000000E+00 0.  1.
         23    2    1    2    0    0 -0.38341603104E+02 -0.17432239182E+02  0.62632099708E+02  0.11737529458E+03  0.89890034886E+02 0.  0.
         24    2    1    2    0    0  0.69416450259E+02  0.27584066050E+02  0.30682224339E+03  0.32504633820E+03  0.77043550496E+02 0.  0.
        -13    1    4    4    0    0  0.64914403548E+01  0.34140129645E+02  0.52402275250E+02  0.62878340479E+02  0.00000000000E+00 0.  1.
         14    1    4    4    0    0  0.62925009904E+02 -0.65560635956E+01  0.25441996814E+03  0.26216799772E+03  0.00000000000E+00 0. -1.
        -11    1    3    3    0    0 -0.40392330883E+02  0.26956200078E+02  0.12023960767E+02  0.50027519920E+02  0.00000000000E+00 0.  1.
         11    1    3    3    0    0  0.20507277792E+01 -0.44388439260E+02  0.50608138941E+02  0.67347774658E+02  0.00000000000E+00 0. -1.
         21    1    1    2  502  501 -0.31074847156E+02 -0.10151826868E+02  0.10849606051E+02  0.34444443180E+02  0.00000000000E+00 0.  1.
<scales pt_clust_5="13000.00000" pt_clust_6="13000.00000" pt_clust_7="13000.00000" pt_clust_8="13000.00000" pt_clust_9="32.69106"></scales>
<clustering>
<clus scale="   32.691">  2  9  1 -1</clus>
<clus scale="   77.044">  5  6 -1 -1</clus>
<clus scale="   89.890">  7  8 -1 -1</clus>
<clus scale="  101.806">  1  5  2 -1</clus>
<clus scale="  101.806">  1  5  2 -1</clus>
</clustering>
</event>
<event>
 9    2  0.6066854E-005  0.1050516E+03  0.7546771E-02  0.1274795E+00
         -1   -1    0    0    0  501 -0.00000000000E+00  0.00000000000E+00  0.44625781687E+02  0.44625781687E+02  0.00000000000E+00 0.  1.
          2   -1    0    0  502    0  0.00000000000E+00 -0.00000000000E+00 -0.42877014537E+03  0.42877014537E+03  0.00000000000E+00 0. -1.
         24    2    1    2    0    0  0.54217782929E+02  0.30328346306E+02 -0.17934913568E+03  0.20605776108E+03  0.80214162455E+02 0.  0.
         23    2    1    2    0    0 -0.49802764131E+02  0.19084208476E+02 -0.18684554336E+03  0.21458132623E+03  0.91045956333E+02 0.  0.
        -11    1    3    3    0    0  0.73295392107E+01  0.21646833117E+02 -0.26145089446E+01  0.23003112529E+02  0.00000000000E+00 0.  1.
         12    1    3    3    0    0  0.46888243719E+02  0.86815131897E+01 -0.17673462673E+03  0.18305464855E+03  0.00000000000E+00 0. -1.
        -11    1    4    4    0    0 -0.73633837979E+02 -0.44114908462E+00 -0.11700237513E+03  0.13824504510E+03  0.00000000000E+00 0.  1.
         11    1    4    4    0    0  0.23831073848E+02  0.19525357561E+02 -0.69843168226E+02  0.76336281128E+02  0.00000000000E+00 0. -1.
         21    1    1    2  502  501 -0.44150187978E+01 -0.49412554782E+02 -0.17949684648E+02  0.52756839747E+02  0.00000000000E+00 0.  1.
<scales pt_clust_5="13000.00000" pt_clust_6="13000.00000" pt_clust_7="13000.00000" pt_clust_8="13000.00000" pt_clust_9="49.60940"></scales>
<clustering>
<clus scale="   49.609">  1  9  2 -1</clus>
<clus scale="   80.214">  5  6 -1 -1</clus>
<clus scale="   91.046">  7  8 -1 -1</clus>
<clus scale="   95.816">  1  5  2 -1</clus>
<clus scale="  105.052">  2  5  1 -1</clus>
</clustering>
</event>
<event>
 9    2  0.6066854E-005  0.1239698E+03  0.7546771E-02  0.1239898E+00
          2   -1    0    0  502    0  0.00000000000E+00  0.00000000000E+00  0.70944689781E+03  0.70944689781E+03  0.00000000000E+00 0. -1.
         -1   -1    0    0    0  501 -0.00000000000E+00 -0.00000000000E+00 -0.98176693432E+02  0.98176693432E+02  0.00000000000E+00 0.  1.
         23    2    1    2    0    0 -0.44525883642E+02 -0.12283751315E+03  0.46227707082E+02  0.16635604927E+03  0.92009376031E+02 0.  0.
         24    2    1    2    0    0  0.13216632043E+02  0.77764221425E+02  0.57453519775E+03  0.58557210028E+03  0.81129758283E+02 0.  0.
        -13    1    4    4    0    0  0.31695528030E+02  0.97161690222E+01  0.89580176971E+02  0.95517634726E+02  0.00000000000E+00 0.  1.
         14    1    4    4    0    0 -0.18478895987E+02  0.68048052402E+02  0.48495502078E+03  0.49005446555E+03  0.00000000000E+00 0. -1.
        -13    1    3    3    0    0  0.24036634947E+02 -0.95241263750E+01  0.16336033679E+02  0.30583243764E+02  0.00000000000E+00 0. -1.
         13    1    3    3    0    0 -0.68562518589E+02 -0.11331338677E+03  0.29891673404E+02  0.13577280551E+03  0.00000000000E+00 0.  1.
         21    1    1    2  502  501  0.31309251599E+02  0.45073291721E+02 -0.94927004586E+01  0.55695441683E+02  0.00000000000E+00 0.  1.
<scales pt_clust_5="13000.00000" pt_clust_6="13000.00000" pt_clust_7="13000.00000" pt_clust_8="13000.00000" pt_clust_9="54.88051"></scales>
<clustering>
<clus scale="   54.881">  2  9  1 -1</clus>
<clus scale="   81.130">  5  6 -1 -1</clus>
<clus scale="   92.009">  7  8 -1 -1</clus>
<clus scale="  116.124">  1  5  2 -1</clus>
<clus scale="  116.124">  1  5  2 -1</clus>
</clustering>
</event>
<event>
 9    2  0.6066854E-005  0.1331451E+03  0.7546771E-02  0.1224962E+00
          2   -1    0    0  502    0  0.00000000000E+00  0.00000000000E+00  0.43501990893E+03  0.43501990893E+03  0.00000000000E+00 0. -1.
         -1   -1    0    0    0  501 -0.00000000000E+00 -0.00000000000E+00 -0.11065966175E+03  0.11065966175E+03  0.00000000000E+00 0.  1.
         24    2    1    2    0    0 -0.78186986478E+02 -0.21038992878E+02 -0.44606354977E+02  0.12439380303E+03  0.83236093440E+02 0.  0.
         23    2    1    2    0    0  0.97990500481E+02  0.12250199582E+02  0.37525293730E+03  0.39872606766E+03  0.91736058909E+02 0.  0.
        -11    1    3    3    0    0 -0.74865312601E+00 -0.33732084754E+02  0.76604370714E+00  0.33749086599E+02  0.00000000000E+00 0.  1.
         12    1    3    3    0    0 -0.77438333352E+02  0.12693091876E+02 -0.45372398684E+02  0.90644716427E+02  0.00000000000E+00 0. -1.
        -11    1    4    4    0    0  0.58035163424E+02  0.41590035609E+02  0.30166479780E+03  0.30999913143E+03  0.00000000000E+00 0.  1.
         11    1    4    4    0    0  0.39955337057E+02 -0.29339836028E+02  0.73588139499E+02  0.88726936228E+02  0.00000000000E+00 0. -1.
         21    1    1    2  502  501 -0.19803514003E+02  0.87887932962E+01 -0.62863351398E+01  0.22559699997E+02  0.00000000000E+00 0.  1.
<scales pt_clust_5="13000.00000" pt_clust_6="13000.00000" pt_clust_7="13000.00000" pt_clust_8="13000.00000" pt_clust_9="21.66615"></scales>
<clustering>
<clus scale="   21.666">  2  9  1 -1</clus>
<clus scale="   83.236">  5  6 -1 -1</clus>
<clus scale="   91.736">  7  8 -1 -1</clus>
<clus scale="  127.438">  2  5  1 -1</clus>
<clus scale="  133.145">  1  5  2 -1</clus>
</clustering>
</event>
<event>
 9    2  0.6066854E-005  0.8962618E+02  0.7546771E-02  0.1306793E+00
          2   -1    0    0  502    0  0.00000000000E+00  0.00000000000E+00  0.52647408433E+03  0.52647408433E+03  0.00000000000E+00 0. -1.
         -1   -1    0    0    0  501 -0.00000000000E+00 -0.00000000000E+00 -0.50864687765E+02  0.50864687765E+02  0.00000000000E+00 0.  1.
         24    2    1    2    0    0  0.23343079516E+02  0.19426356778E+02  0.95418097881E+02  0.13059692420E+03  0.83837106985E+02 0.  0.
         23    2    1    2    0    0 -0.79632814253E+01 -0.20145776645E+01  0.40386251392E+03  0.41357507729E+03  0.88723965373E+02 0.  0.
        -11    1    3    3    0    0  0.16381895806E+02 -0.29485993144E+02  0.16649455075E+02  0.37616414718E+02  0.00000000000E+00 0.  1.
         12    1    3    3    0    0  0.69611837097E+01  0.48912349922E+02  0.78768642806E+02  0.92980509480E+02  0.00000000000E+00 0. -1.
        -11    1    4    4    0    0 -0.21748488397E+02 -0.41673798854E+02  0.20307781502E+03  0.20844735837E+03  0.00000000000E+00 0.  1.
         11    1    4    4    0    0  0.13785206972E+02  0.39659221190E+02  0.20078469890E+03  0.20512771892E+03  0.00000000000E+00 0. -1.
         21    1    1    2  502  501 -0.15379798091E+02 -0.17411779113E+02 -0.23671215241E+02  0.33166770602E+02  0.00000000000E+00 0.  1.
<scales pt_clust_5="13000.00000" pt_clust_6="13000.00000" pt_clust_7="13000.00000" pt_clust_8="13000.00000" pt_clust_9="23.23162"></scales>
<clustering>
<clus scale="   23.232">  2  9  1 -1</clus>
<clus scale="   83.837">  5  6 -1 -1</clus>
<clus scale="   84.791">  2  5  1 -1</clus>
<clus scale="   88.724">  7  8 -1 -1</clus>
<clus scale="   89.626">  1  5  2 -1</clus>
</clustering>
</event>
<event>
 9    2  0.6066854E-005  0.1265582E+03  0.7546771E-02  0.1235471E+00
         -1   -1    0    0    0  501 -0.00000000000E+00  0.00000000000E+00  0.51870033705E+03  0.51870033705E+03  0.00000000000E+00 0.  1.
          2   -1    0    0  502    0  0.00000000000E+00 -0.00000000000E+00 -0.47869799141E+02  0.47869799141E+02  0.00000000000E+00 0. -1.
         23    2    1    2    0    0  0.18383346475E+02  0.61278900922E+02  0.17185128179E+03  0.20432378751E+03  0.90123781347E+02 0.  0.
         24    2    1    2    0    0 -0.48006379751E+02 -0.10081507187E+03  0.14125834263E+03  0.19696924965E+03  0.79841560164E+02 0.  0.
        -11    1    4    4    0    0 -0.46603506942E+02 -0.10360089998E+03  0.14972685833E+03  0.18794458077E+03  0.00000000000E+00 0.  1.
         12    1    4    4    0    0 -0.14028728099E+01  0.27858281024E+01 -0.84685156942E+01  0.90246688803E+01  0.00000000000E+00 0. -1.
        -11    1    3    3    0    0  0.47487597823E+02  0.13548414811E+02  0.50076084136E+02  0.70329550641E+02  0.00000000000E+00 0.  1.
         11    1    3    3    0    0 -0.29104251348E+02  0.47730486111E+02  0.12177519766E+03  0.13399423687E+03  0.00000000000E+00 0. -1.
         21    1    1    2  502  501  0.29623033277E+02  0.39536170951E+02  0.15772091349E+03  0.16527709903E+03  0.00000000000E+00 0.  1.
<scales pt_clust_5="13000.00000" pt_clust_6="13000.00000" pt_clust_7="13000.00000" pt_clust_8="13000.00000" pt_clust_9="49.40276"></scales>
<clustering>
<clus scale="   49.403">  1  9  2 -1</clus>
<clus scale="   79.842">  5  6 -1 -1</clus>
<clus scale="   90.124">  7  8 -1 -1</clus>
<clus scale="  119.454">  2  5  1 -1</clus>
<clus scale="  119.454">  2  5  1 -1</clus>
</clustering>
</event>
<event>
 9    2  0.6066854E-005  0.1766609E+03  0.7546771E-02  0.1172270E+00
         -1   -1    0    0    0  501 -0.00000000000E+00  0.00000000000E+00  0.75829701916E+02  0.75829701916E+02  0.00000000000E+00 0.  1.
          2   -1    0    0  502    0  0.00000000000E+00 -0.00000000000E+00 -0.56931968613E+03  0.56931968613E+03  0.00000000000E+00 0. -1.
         23    2    1    2    0    0 -0.16840956878E+03 -0.34771893506E+02 -0.14183207163E+03  0.23883216029E+03  0.85753115468E+02 0.  0.
         24    2    1    2    0    0  0.14627474284E+03  0.19824009647E+02 -0.33765071917E+03  0.37615779775E+03  0.75481049923E+02 0.  0.
        -11    1    4    4    0    0  0.89064776543E+02 -0.10701923479E+02 -0.12511916360E+03  0.15395411877E+03  0.00000000000E+00 0.  1.
         12    1    4    4    0    0  0.57209966301E+02  0.30525933126E+02 -0.21253155557E+03  0.22220367897E+03  0.00000000000E+00 0. -1.
        -13    1    3    3    0    0 -0.66950878348E+02 -0.22346491447E+02 -0.11194013253E+03  0.13233434574E+03  0.00000000000E+00 0. -1.
         13    1    3    3    0    0 -0.10145869043E+03 -0.12425402059E+02 -0.29891939092E+02  0.10649781455E+03  0.00000000000E+00 0.  1.
         21    1    1    2  502  501  0.22134825936E+02  0.14947883859E+02 -0.14007193419E+02  0.30159430011E+02  0.00000000000E+00 0.  1.
<scales pt_clust_5="13000.00000" pt_clust_6="13000.00000" pt_clust_7="13000.00000" pt_clust_8="13000.00000" pt_clust_9="26.70936"></scales>
<clustering>
<clus scale="   26.709">  1  9  2 -1</clus>
<clus scale="   75.481">  5  6 -1 -1</clus>
<clus scale="   85.753">  7  8 -1 -1</clus>
<clus scale="  171.909">  2  5  1 -1</clus>
<clus scale="  171.909">  2  5  1 -1</clus>
</clustering>
</event>
<event>
 9    2  0.6066854E-005  0.1840460E+03  0.7546771E-02  0.1165159E+00
          2   -1    0    0  502    0  0.00000000000E+00  0.00000000000E+00  0.10681187105E+04  0.10681187105E+04  0.00000000000E+00 0. -1.
         -1   -1    0    0    0  501 -0.00000000000E+00 -0.00000000000E+00 -0.72397795279E+02  0.72397795279E+02  0.00000000000E+00 0.  1.
         23    2    1    2    0    0  0.16608494349E+03 -0.60758373439E+02  0.13675463835E+03  0.24179685569E+03  0.92130884680E+02 0.  0.
         24    2    1    2    0    0 -0.14951035053E+03  0.45814947375E+02  0.85847627389E+03  0.87639783972E+03  0.81481938618E+02 0.  0.
        -11    1    4    4    0    0 -0.84928229466E+02  0.15785640683E+02  0.26644949914E+03  0.28010234952E+03  0.00000000000E+00 0.  1.
         12    1    4    4    0    0 -0.64582121064E+02  0.30029306693E+02  0.59202677475E+03  0.59629549020E+03  0.00000000000E+00 0. -1.
        -11    1    3    3    0    0  0.34361884100E+02 -0.21378220088E+02 -0.89721778637E+01  0.41451988476E+02  0.00000000000E+00 0. -1.
         11    1    3    3    0    0  0.13172305939E+03 -0.39380153351E+02  0.14572681621E+03  0.20034486721E+03  0.00000000000E+00 0.  1.
         21    1    1    2  502  501 -0.16574592962E+02  0.14943426064E+02  0.49000295923E+00  0.22321810349E+02  0.00000000000E+00 0.  1.
<scales pt_clust_5="13000.00000" pt_clust_6="13000.00000" pt_clust_7="13000.00000" pt_clust_8="13000.00000" pt_clust_9="22.31643"></scales>
<clustering>
<clus scale="   22.316">  2  9  1 -1</clus>
<clus scale="   81.482">  5  6 -1 -1</clus>
<clus scale="   92.131">  7  8 -1 -1</clus>
<clus scale="  178.953">  1  5  2 -1</clus>
<clus scale="  178.953">  1  5  2 -1</clus>
</clustering>
</event>
<event>
 9    2  0.6066854E-005  0.1611661E+03  0.7546771E-02  0.1205062E+00
         -1   -1    0    0    0  501 -0.00000000000E+00  0.00000000000E+00  0.68839867655E+03  0.68839867655E+03  0.00000000000E+00 0.  1.
          2   -1    0    0  502    0  0.00000000000E+00 -0.00000000000E+00 -0.17100311500E+03  0.17100311500E+03  0.00000000000E+00 0. -1.
         23    2    1    2    0    0  0.74980441040E+02 -0.12870020925E+03  0.42755040560E+03  0.46155128491E+03  0.89690740159E+02 0.  0.
         24    2    1    2    0    0  0.35015947204E+02  0.64849539186E+02 -0.11368349605E+03  0.15785045314E+03  0.81001536962E+02 0.  0.
        -11    1    4    4    0    0  0.48862387222E+01  0.25352439754E+02  0.74947916907E+01  0.26884817887E+02  0.00000000000E+00 0.  1.
         12    1    4    4    0    0  0.30129708481E+02  0.39497099433E+02 -0.12117828774E+03  0.13096563525E+03  0.00000000000E+00 0. -1.
        -11    1    3    3    0    0  0.67411346445E+02 -0.35879353455E+02  0.24488335491E+03  0.25651408372E+03  0.00000000000E+00 0. -1.
         11    1    3    3    0    0  0.75690945951E+01 -0.92820855790E+02  0.18266705069E+03  0.20503720119E+03  0.00000000000E+00 0.  1.
         21    1    1    2  502  501 -0.10999638824E+03  0.63850670059E+02  0.20352865200E+03  0.24000005350E+03  0.00000000000E+00 0.  1.
<scales pt_clust_5="13000.00000" pt_clust_6="13000.00000" pt_clust_7="13000.00000" pt_clust_8="13000.00000" pt_clust_9="133.90323"></scales>
<clustering>
<clus scale="   81.002">  5  6 -1 -1</clus>
<clus scale="   89.691">  7  8 -1 -1</clus>
<clus scale="  109.512">  2  5  1 -1</clus>
<clus scale="  133.903">  2  9  1 -1</clus>
<clus scale="  109.512">  2  5  1 -1</clus>
</clustering>
</event>
<event>
 9    2  0.6066854E-005  0.8998090E+02  0.7546771E-02  0.1306187E+00
         -1   -1    0    0    0  501 -0.00000000000E+00  0.00000000000E+00  0.32208109533E+02  0.32208109533E+02  0.00000000000E+00 0.  1.
          2   -1    0    0  502    0  0.00000000000E+00 -0.00000000000E+00 -0.39221498525E+03  0.39221498525E+03  0.00000000000E+00 0. -1.
         23    2    1    2    0    0 -0.11738217880E+02 -0.41627424813E+01 -0.72180982841E+02  0.11457271600E+03  0.88100503873E+02 0.  0.
         24    2    1    2    0    0  0.27674443020E+02  0.21488511271E+02 -0.24545730395E+03  0.26138139011E+03  0.82724313960E+02 0.  0.
        -13    1    4    4    0    0  0.27954115402E+02 -0.50583528236E+00 -0.18874204204E+02  0.33733129437E+02  0.00000000000E+00 0.  1.
         14    1    4    4    0    0 -0.27967238203E+00  0.21994346553E+02 -0.22658309975E+03  0.22764826067E+03  0.00000000000E+00 0. -1.
        -13    1    3    3    0    0  0.28866809197E+02  0.25358945682E+02 -0.26297475566E+02  0.46560992478E+02  0.00000000000E+00 0. -1.
         13    1    3    3    0    0 -0.40605027078E+02 -0.29521688163E+02 -0.45883507275E+02  0.68011723518E+02  0.00000000000E+00 0.  1.
         21    1    1    2  502  501 -0.15936225140E+02 -0.17325768790E+02 -0.42368588927E+02  0.48468988678E+02  0.00000000000E+00 0.  1.
<scales pt_clust_5="13000.00000" pt_clust_6="13000.00000" pt_clust_7="13000.00000" pt_clust_8="13000.00000" pt_clust_9="23.54030"></scales>
<clustering>
<clus scale="   23.540">  2  9  1 -1</clus>
<clus scale="   82.724">  5  6 -1 -1</clus>
<clus scale="   84.724">  2  5  1 -1</clus>
<clus scale="   88.101">  7  8 -1 -1</clus>
<clus scale="   23.540">  2  5  1 -1</clus>
</clustering>
</event>
<event>
 9    2  0.6066854E-005  0.1686024E+03  0.7546771E-02  0.1180586E+00
         -1   -1    0    0    0  501 -0.00000000000E+00  0.00000000000E+00  0.16017453460E+03  0.16017453460E+03  0.00000000000E+00 0.  1.
          2   -1    0    0  502    0  0.00000000000E+00 -0.00000000000E+00 -0.63019528754E+03  0.63019528754E+03  0.00000000000E+00 0. -1.
         24    2    1    2    0    0 -0.79476616868E+02 -0.40113714446E+02  0.93125298572E+02  0.15272400693E+03  0.82016207810E+02 0.  0.
         23    2    1    2    0    0  0.12355987320E+03  0.80818139452E+02 -0.54931945891E+03  0.57607180798E+03  0.91149580833E+02 0.  0.
        -11    1    3    3    0    0 -0.22941218044E+02  0.25545808162E+02  0.28731512631E+02  0.44770387737E+02  0.00000000000E+00 0.  1.
         12    1    3    3    0    0 -0.56535398824E+02 -0.65659522609E+02  0.64393785941E+02  0.10795361919E+03  0.00000000000E+00 0. -1.
        -13    1    4    4    0    0  0.63212495515E+01  0.34414655687E+02 -0.49661070374E+02  0.60749885865E+02  0.00000000000E+00 0.  1.
         13    1    4    4    0    0  0.11723862365E+03  0.46403483764E+02 -0.49965838854E+03  0.51532192212E+03  0.00000000000E+00 0. -1.
         21    1    1    2  502  501 -0.44083256332E+02 -0.40704425005E+02 -0.13826592602E+02  0.61574007234E+02  0.00000000000E+00 0.  1.
<scales pt_clust_5="13000.00000" pt_clust_6="13000.00000" pt_clust_7="13000.00000" pt_clust_8="13000.00000" pt_clust_9="60.00153"></scales>
<clustering>
<clus scale="   60.002">  1  9  2 -1</clus>
<clus scale="   82.016">  5  6 -1 -1</clus>
<clus scale="   91.150">  7  8 -1 -1</clus>
<clus scale="  163.845">  1  5  2 -1</clus>
<clus scale="  168.602">  2  5  1 -1</clus>
</clustering>
</event>
<event>
 9    2  0.6066854E-005  0.1217905E+03  0.7546771E-02  0.1243825E+00
          2   -1    0    0  502    0  0.00000000000E+00  0.00000000000E+00  0.32824440273E+03  0.32824440273E+03  0.00000000000E+00 0. -1.
         -1   -1    0    0    0  501 -0.00000000000E+00 -0.00000000000E+00 -0.77067710226E+02  0.77067710226E+02  0.00000000000E+00 0.  1.
         23    2    1    2    0    0  0.70246539334E+02 -0.13164306107E+02  0.10037951596E+03  0.15406556885E+03  0.92478522032E+02 0.  0.
         24    2    1    2    0    0 -0.71030783047E+02  0.51631603865E+02  0.17045750517E+03  0.20803917718E+03  0.80705288039E+02 0.  0.
        -11    1    4    4    0    0 -0.72992178169E+02  0.80017394001E+01  0.87008338573E+02  0.11385225904E+03  0.00000000000E+00 0.  1.
         12    1    4    4    0    0  0.19613951224E+01  0.43629864465E+02  0.83449166595E+02  0.94186918144E+02  0.00000000000E+00 0. -1.
        -11    1    3    3    0    0  0.51072295864E+02 -0.34925908156E+02  0.14678577293E+02  0.63589771950E+02  0.00000000000E+00 0.  1.
         11    1    3    3    0    0  0.19174243470E+02  0.21761602048E+02  0.85700938669E+02  0.90475796902E+02  0.00000000000E+00 0. -1.
         21    1    1    2  502  501  0.78424371285E+00 -0.38467297758E+02 -0.19660328621E+02  0.43207366924E+02  0.00000000000E+00 0.  1.
<scales pt_clust_5="13000.00000" pt_clust_6="13000.00000" pt_clust_7="13000.00000" pt_clust_8="13000.00000" pt_clust_9="38.47529"></scales>
<clustering>
<clus scale="   38.475">  2  9  1 -1</clus>
<clus scale="   80.705">  5  6 -1 -1</clus>
<clus scale="   92.479">  7  8 -1 -1</clus>
<clus scale="  113.111">  1  5  2 -1</clus>
<clus scale="  113.111">  1  5  2 -1</clus>
</clustering>
</event>
<event>
 9    2  0.6066854E-005  0.9296850E+02  0.7546771E-02  0.1302691E+00
          2   -1    0    0  502    0  0.00000000000E+00  0.00000000000E+00  0.74200128712E+02  0.74200128712E+02  0.00000000000E+00 0. -1.
         -1   -1    0    0    0  501 -0.00000000000E+00 -0.00000000000E+00 -0.28193095133E+03  0.28193095133E+03  0.00000000000E+00 0.  1.
         23    2    1    2    0    0 -0.67525093001E+01  0.61346377654E+01 -0.13689876136E+03  0.16513492593E+03  0.91896913658E+02 0.  0.
         24    2    1    2    0    0 -0.14465751108E+02  0.11683686729E+02  0.28743839133E+02  0.87637229957E+02  0.80674093089E+02 0.  0.
        -13    1    4    4    0    0 -0.15382621217E+02 -0.33804348213E+02  0.10280233763E+02  0.38536245274E+02  0.00000000000E+00 0.  1.
         14    1    4    4    0    0  0.91687010938E+00  0.45488034941E+02  0.18463605370E+02  0.49100984683E+02  0.00000000000E+00 0. -1.
        -13    1    3    3    0    0 -0.49126938923E+02 -0.21407640990E+01 -0.72742758814E+02  0.87804031563E+02  0.00000000000E+00 0.  1.
         13    1    3    3    0    0  0.42374429623E+02  0.82754018644E+01 -0.64156002543E+02  0.77330894371E+02  0.00000000000E+00 0. -1.
         21    1    1    2  502  501  0.21218260408E+02 -0.17818324494E+02 -0.99575900393E+02  0.10335892415E+03  0.00000000000E+00 0.  1.
<scales pt_clust_5="13000.00000" pt_clust_6="13000.00000" pt_clust_7="13000.00000" pt_clust_8="13000.00000" pt_clust_9="27.70753"></scales>
<clustering>
<clus scale="   27.708">  2  9  1 -1</clus>
<clus scale="   80.674">  5  6 -1 -1</clus>
<clus scale="   81.893">  1  5  2 -1</clus>
<clus scale="   91.897">  7  8 -1 -1</clus>
<clus scale="   81.893">  1  5  2 -1</clus>
</clustering>
</event>
<event>
 9    2  0.6066854E-005  0.9389405E+02  0.7546771E-02  0.1300045E+00
         -1   -1    0    0    0  501 -0.00000000000E+00  0.00000000000E+00  0.76382651769E+02  0.76382651769E+02  0.00000000000E+00 0.  1.
          2   -1    0    0  502    0  0.00000000000E+00 -0.00000000000E+00 -0.21380652121E+03  0.21380652121E+03  0.00000000000E+00 0. -1.
         23    2    1    2    0    0  0.29958738664E+02  0.17543033990E+02  0.18388023435E+02  0.96894311153E+02  0.88572592059E+02 0.  0.
         24    2    1    2    0    0 -0.26423453742E+01 -0.27806579287E+02 -0.13232872022E+03  0.15583841909E+03  0.77424381355E+02 0.  0.
        -13    1    4    4    0    0  0.20112572283E+02 -0.16778778277E+02 -0.12741472238E+03  0.13007903153E+03  0.00000000000E+00 0.  1.
         14    1    4    4    0    0 -0.22754917657E+02 -0.11027801010E+02 -0.49139978406E+01  0.25759387560E+02  0.00000000000E+00 0. -1.
        -13    1    3    3    0    0  0.40977188744E+02 -0.17680443989E+02  0.34711812934E+02  0.56538819003E+02  0.00000000000E+00 0.  1.
         13    1    3    3    0    0 -0.11018450081E+02  0.35223477979E+02 -0.16323789499E+02  0.40355492150E+02  0.00000000000E+00 0. -1.
         21    1    1    2  502  501 -0.27316393290E+02  0.10263545297E+02 -0.23483172649E+02  0.37456442731E+02  0.00000000000E+00 0. -1.
<scales pt_clust_5="13000.00000" pt_clust_6="13000.00000" pt_clust_7="13000.00000" pt_clust_8="13000.00000" pt_clust_9="29.18091"></scales>
<clustering>
<clus scale="   29.181">  2  9  1 -1</clus>
<clus scale="   77.424">  5  6 -1 -1</clus>
<clus scale="   83.460">  2  5  1 -1</clus>
<clus scale="   88.573">  7  8 -1 -1</clus>
<clus scale="   29.181">  2  5  1 -1</clus>
</clustering>
</event>
<event>
 9    2  0.6066854E-005  0.1381639E+03  0.7546771E-02  0.1240558E+00
         -1   -1    0    0    0  501 -0.00000000000E+00  0.00000000000E+00  0.27478866140E+02  0.27478866140E+02  0.00000000000E+00 0.  1.
          2   -1    0    0  502    0  0.00000000000E+00 -0.00000000000E+00 -0.17848403759E+04  0.17848403759E+04  0.00000000000E+00 0. -1.
         23    2    1    2    0    0  0.10668757535E+03 -0.74846151544E+01 -0.20486040766E+03  0.24871556005E+03  0.91942291608E+02 0.  0.
         24    2    1    2    0    0 -0.12899743461E+02  0.14398962759E+02 -0.97379645246E+03  0.97730765000E+03  0.80479677040E+02 0.  0.
        -11    1    4    4    0    0  0.16688619495E+02 -0.11273571471E+02 -0.74970759529E+02  0.77628720321E+02  0.00000000000E+00 0.  1.
         12    1    4    4    0    0 -0.29588362956E+02  0.25672534231E+02 -0.89882569293E+03  0.89967892968E+03  0.00000000000E+00 0. -1.
        -13    1    3    3    0    0  0.35273464014E+02 -0.38199154101E+02 -0.37268357262E+02  0.63971267696E+02  0.00000000000E+00 0.  1.
         13    1    3    3    0    0  0.71414111335E+02  0.30714538947E+02 -0.16759205040E+03  0.18474429235E+03  0.00000000000E+00 0. -1.
         21    1    1    2  502  501 -0.93787831887E+02 -0.69143476049E+01 -0.57870464967E+03  0.58629603202E+03  0.00000000000E+00 0.  1.
<scales pt_clust_5="13000.00000" pt_clust_6="13000.00000" pt_clust_7="13000.00000" pt_clust_8="13000.00000" pt_clust_9="103.13037"></scales>
<clustering>
<clus scale="   80.480">  5  6 -1 -1</clus>
<clus scale="   82.769">  2  5  1 -1</clus>
<clus scale="   91.942">  7  8 -1 -1</clus>
<clus scale="  103.130">  2  9  1 -1</clus>
<clus scale="   82.769">  2  5  1 -1</clus>
</clustering>
</event>
<event>
 9    2  0.6066854E-005  0.3774831E+03  0.7546771E-02  0.1064436E+00
         -1   -1    0    0    0  501 -0.00000000000E+00  0.00000000000E+00  0.19151633092E+03  0.19151633092E+03  0.00000000000E+00 0.  1.
          2   -1    0    0  502    0  0.00000000000E+00 -0.00000000000E+00 -0.15826448645E+04  0.15826448645E+04  0.00000000000E+00 0. -1.
         23    2    1    2    0    0  0.82508927760E+02  0.23629493540E+03 -0.15298601711E+03  0.30617760446E+03  0.87732459122E+02 0.  0.
         24    2    1    2    0    0  0.30525478705E+03 -0.11635306087E+02 -0.34008549875E+03  0.46432077177E+03  0.81361952225E+02 0.  0.
        -11    1    4    4    0    0  0.22475459197E+03 -0.43989012943E+02 -0.23674682259E+03  0.32939143564E+03  0.00000000000E+00 0.  1.
         12    1    4    4    0    0  0.80500195083E+02  0.32353706856E+02 -0.10333867616E+03  0.13492933613E+03  0.00000000000E+00 0. -1.
        -13    1    3    3    0    0  0.56682273006E+02  0.23166014682E+03 -0.13205709523E+03  0.27261397634E+03  0.00000000000E+00 0.  1.
         13    1    3    3    0    0  0.25826654754E+02  0.46347885804E+01 -0.20928921882E+02  0.33563628113E+02  0.00000000000E+00 0. -1.
         21    1    1    2  502  501 -0.38776371481E+03 -0.22465962931E+03 -0.89805701771E+03  0.10036628192E+04  0.00000000000E+00 0. -1.
<scales pt_clust_5="13000.00000" pt_clust_6="13000.00000" pt_clust_7="13000.00000" pt_clust_8="13000.00000" pt_clust_9="368.61051"></scales>
<clustering>
<clus scale="   81.362">  5  6 -1 -1</clus>
<clus scale="   87.732">  7  8 -1 -1</clus>
<clus scale="  265.217">  1  7  2 -1</clus>
<clus scale="  368.611">  2  9  1 -1</clus>
<clus scale="  368.611">  2  5  1 -1</clus>
</clustering>
</event>
<event>
 9    2  0.6066854E-005  0.9670593E+02  0.7546771E-02  0.1294007E+00
          2   -1    0    0  502    0  0.00000000000E+00  0.00000000000E+00  0.99754064947E+02  0.99754064947E+02  0.00000000000E+00 0. -1.
         -1   -1    0    0    0  501 -0.00000000000E+00 -0.00000000000E+00 -0.46188117732E+03  0.46188117732E+03  0.00000000000E+00 0.  1.
         23    2    1    2    0    0  0.20712083000E+02  0.53041103104E+02 -0.11368555398E+03  0.15706371716E+03  0.92207684406E+02 0.  0.
         24    2    1    2    0    0  0.36296135964E+02 -0.28805911623E+01  0.46731270630E+02  0.99787974072E+02  0.80300191925E+02 0.  0.
        -11    1    4    4    0    0  0.21696417629E+01 -0.37314002276E+02  0.31762629450E+02  0.49050043229E+02  0.00000000000E+00 0.  1.
         12    1    4    4    0    0  0.34126494201E+02  0.34433411114E+02  0.14968641180E+02  0.50737930842E+02  0.00000000000E+00 0. -1.
        -11    1    3    3    0    0 -0.36588906421E+02  0.20575613658E+02 -0.51988291810E+02  0.66819805715E+02  0.00000000000E+00 0.  1.
         11    1    3    3    0    0  0.57300989420E+02  0.32465489446E+02 -0.61697262166E+02  0.90243911442E+02  0.00000000000E+00 0. -1.
         21    1    1    2  502  501 -0.57008218963E+02 -0.50160511942E+02 -0.29517282903E+03  0.30478355104E+03  0.00000000000E+00 0.  1.
<scales pt_clust_5="13000.00000" pt_clust_6="13000.00000" pt_clust_7="13000.00000" pt_clust_8="13000.00000" pt_clust_9="75.93427"></scales>
<clustering>
<clus scale="   75.934">  2  9  1 -1</clus>
<clus scale="   80.300">  5  6 -1 -1</clus>
<clus scale="   85.428">  1  5  2 -1</clus>
<clus scale="   92.208">  7  8 -1 -1</clus>
<clus scale="   85.428">  1  5  2 -1</clus>
</clustering>
</event>
<event>
 9    2  0.6066854E-005  0.1561822E+03  0.7546771E-02  0.1220918E+00
          2   -1    0    0  502    0  0.00000000000E+00  0.00000000000E+00  0.29847401435E+03  0.29847401435E+03  0.00000000000E+00 0. -1.
         -1   -1    0    0    0  501 -0.00000000000E+00 -0.00000000000E+00 -0.17458970235E+03  0.17458970235E+03  0.00000000000E+00 0.  1.
         24    2    1    2    0    0 -0.24405606074E+02  0.15586565452E+02 -0.43551134496E+02  0.96324547862E+02  0.80889693871E+02 0.  0.
         23    2    1    2    0    0  0.10553962946E+03  0.72442004605E+02  0.19760556980E+03  0.25328069308E+03  0.93363220022E+02 0.  0.
        -13    1    3    3    0    0 -0.26479036844E+01 -0.21302691406E+02  0.13219938797E+02  0.25210768272E+02  0.00000000000E+00 0.  1.
         14    1    3    3    0    0 -0.21757702390E+02  0.36889256858E+02 -0.56771073293E+02  0.71113779590E+02  0.00000000000E+00 0. -1.
        -13    1    4    4    0    0  0.13332568516E+02  0.19103377518E+02 -0.54996624866E+01  0.23936221575E+02  0.00000000000E+00 0.  1.
         13    1    4    4    0    0  0.92207060945E+02  0.53338627087E+02  0.20310523228E+03  0.22934447150E+03  0.00000000000E+00 0. -1.
         21    1    1    2  502  501 -0.81134023387E+02 -0.88028570057E+02 -0.30170123299E+02  0.12345847576E+03  0.00000000000E+00 0.  1.
<scales pt_clust_5="13000.00000" pt_clust_6="13000.00000" pt_clust_7="13000.00000" pt_clust_8="13000.00000" pt_clust_9="125.20454"></scales>
<clustering>
<clus scale="   80.890">  5  6 -1 -1</clus>
<clus scale="   85.917">  2  5  1 -1</clus>
<clus scale="   93.363">  7  8 -1 -1</clus>
<clus scale="  125.205">  2  9  1 -1</clus>
<clus scale="  156.182">  1  5  2 -1</clus>
</clustering>
</event>
<event>
 9    2  0.6066854E-005  0.9467305E+02  0.7546771E-02  0.1297872E+00
         -1   -1    0    0    0  501 -0.00000000000E+00  0.00000000000E+00  0.27232726775E+03  0.27232726775E+03  0.00000000000E+00 0.  1.
          2   -1    0    0  502    0  0.00000000000E+00 -0.00000000000E+00 -0.16169981831E+03  0.16169981831E+03  0.00000000000E+00 0. -1.
         23    2    1    2    0    0 -0.27165872236E+01 -0.98607300470E+01  0.19915332631E+03  0.21915832555E+03  0.90904952749E+02 0.  0.
         24    2    1    2    0    0  0.26853355453E+02 -0.79621834005E+01 -0.13493234049E+03  0.15960756536E+03  0.80519186205E+02 0.  0.
        -11    1    4    4    0    0  0.19665266004E+02  0.25722395965E+02 -0.16642323920E+02  0.36405099734E+02  0.00000000000E+00 0.  1.
         12    1    4    4    0    0  0.71880894490E+01 -0.33684579365E+02 -0.11829001657E+03  0.12320246563E+03  0.00000000000E+00 0. -1.
        -13    1    3    3    0    0 -0.29263130617E+02 -0.28432979979E+02  0.17233862094E+03  0.17710269742E+03  0.00000000000E+00 0.  1.
         13    1    3    3    0    0  0.26546543394E+02  0.18572249932E+02  0.26814705365E+02  0.42055628131E+02  0.00000000000E+00 0. -1.
         21    1    1    2  502  501 -0.24136768230E+02  0.17822913448E+02  0.46406463619E+02  0.55261195155E+02  0.00000000000E+00 0.  1.
<scales pt_clust_5="13000.00000" pt_clust_6="13000.00000" pt_clust_7="13000.00000" pt_clust_8="13000.00000" pt_clust_9="30.00400"></scales>
<clustering>
<clus scale="   30.004">  1  9  2 -1</clus>
<clus scale="   80.519">  5  6 -1 -1</clus>
<clus scale="   84.750">  2  5  1 -1</clus>
<clus scale="   90.905">  7  8 -1 -1</clus>
<clus scale="   84.750">  2  5  1 -1</clus>
</clustering>
</event>
<event>
 9    2  0.6066854E-005  0.9584176E+02  0.7546771E-02  0.1297406E+00
         -3   -1    0    0    0  501 -0.00000000000E+00  0.00000000000E+00  0.25042280888E+03  0.25042280888E+03  0.00000000000E+00 0.  1.
          4   -1    0    0  502    0  0.00000000000E+00 -0.00000000000E+00 -0.58296724785E+03  0.58296724785E+03  0.00000000000E+00 0. -1.
         23    2    1    2    0    0  0.24007151447E+02  0.59067978437E+01  0.13003800438E+03  0.16219580339E+03  0.93735598744E+02 0.  0.
         24    2    1    2    0    0  0.20671148004E+01  0.20456955602E+02 -0.56047224204E+03  0.56651699917E+03  0.79935075210E+02 0.  0.
        -11    1    4    4    0    0  0.46937927451E+01 -0.22087740241E+02 -0.58010446188E+02  0.62250396194E+02  0.00000000000E+00 0.  1.
         12    1    4    4    0    0 -0.26266779447E+01  0.42544695843E+02 -0.50246179585E+03  0.50426660297E+03  0.00000000000E+00 0. -1.
        -13    1    3    3    0    0  0.53857638383E+02 -0.89062235801E+01  0.44609984682E+02  0.70498345824E+02  0.00000000000E+00 0.  1.
         13    1    3    3    0    0 -0.29850486935E+02  0.14813021424E+02  0.85428019702E+02  0.91697457567E+02  0.00000000000E+00 0. -1.
         21    1    1    2  502  501 -0.26074266248E+02 -0.26363753445E+02  0.97889798682E+02  0.10467725418E+03  0.00000000000E+00 0.  1.
<scales pt_clust_5="13000.00000" pt_clust_6="13000.00000" pt_clust_7="13000.00000" pt_clust_8="13000.00000" pt_clust_9="37.07984"></scales>
<clustering>
<clus scale="   37.080">  1  9  2 -1</clus>
<clus scale="   79.935">  5  6 -1 -1</clus>
<clus scale="   82.395">  2  5  1 -1</clus>
<clus scale="   93.736">  7  8 -1 -1</clus>
<clus scale="   82.395">  2  5  1 -1</clus>
</clustering>
</event>
<event>
 9    2  0.6066854E-005  0.1060750E+03  0.7546771E-02  0.1272339E+00
          2   -1    0    0  502    0  0.00000000000E+00  0.00000000000E+00  0.41343715513E+03  0.41343715513E+03  0.00000000000E+00 0. -1.
         -1   -1    0    0    0  501 -0.00000000000E+00 -0.00000000000E+00 -0.78904295009E+02  0.78904295009E+02  0.00000000000E+00 0.  1.
         24    2    1    2    0    0 -0.68852461210E+02 -0.32422422575E+02  0.25649181946E+02  0.11419253370E+03  0.81179919421E+02 0.  0.
         23    2    1    2    0    0  0.47587113858E+02  0.15996758484E+02  0.32867597921E+03  0.34477598402E+03  0.91225819592E+02 0.  0.
        -11    1    3    3    0    0 -0.53762293403E+02 -0.30748657602E+02 -0.20793029387E+02  0.65331571292E+02  0.00000000000E+00 0.  1.
         12    1    3    3    0    0 -0.15090167806E+02 -0.16737649725E+01  0.46442211333E+02  0.48860962405E+02  0.00000000000E+00 0. -1.
        -13    1    4    4    0    0 -0.70417560517E+00 -0.34276750500E+02  0.11671440178E+03  0.12164556330E+03  0.00000000000E+00 0.  1.
         13    1    4    4    0    0  0.48291289464E+02  0.50273508983E+02  0.21196157743E+03  0.22313042072E+03  0.00000000000E+00 0. -1.
         21    1    1    2  502  501  0.21265347351E+02  0.16425664091E+02 -0.19792301029E+02  0.33372932428E+02  0.00000000000E+00 0.  1.
<scales pt_clust_5="13000.00000" pt_clust_6="13000.00000" pt_clust_7="13000.00000" pt_clust_8="13000.00000" pt_clust_9="26.87038"></scales>
<clustering>
<clus scale="   26.870">  2  9  1 -1</clus>
<clus scale="   81.180">  5  6 -1 -1</clus>
<clus scale="   91.226">  7  8 -1 -1</clus>
<clus scale="   97.570">  2  5  1 -1</clus>
<clus scale="  106.075">  1  5  2 -1</clus>
</clustering>
</event>
<event>
 9    2  0.6066854E-005  0.1830297E+03  0.7546771E-02  0.1166643E+00
          2   -1    0    0  502    0  0.00000000000E+00  0.00000000000E+00  0.14087664379E+04  0.14087664379E+04  0.00000000000E+00 0. -1.
         -1   -1    0    0    0  501 -0.00000000000E+00 -0.00000000000E+00 -0.13024792549E+03  0.13024792549E+03  0.00000000000E+00 0.  1.
         23    2    1    2    0    0  0.14540812085E+03 -0.95123860767E+02  0.63535422919E+03  0.66496742419E+03  0.91184473387E+02 0.  0.
         24    2    1    2    0    0 -0.80092707348E+02  0.13298330255E+03  0.73508152510E+03  0.75510064914E+03  0.75714868186E+02 0.  0.
        -11    1    4    4    0    0 -0.76630293586E+02  0.10186512699E+03  0.43221878157E+03  0.45062376894E+03  0.00000000000E+00 0.  1.
         12    1    4    4    0    0 -0.34624137622E+01  0.31118175560E+02  0.30286274353E+03  0.30447688020E+03  0.00000000000E+00 0. -1.
        -13    1    3    3    0    0  0.69399985868E+02 -0.15872144310E+01  0.31820155411E+03  0.32568559429E+03  0.00000000000E+00 0. -1.
         13    1    3    3    0    0  0.76008134982E+02 -0.93536646336E+02  0.31715267508E+03  0.33928182990E+03  0.00000000000E+00 0.  1.
         21    1    1    2  502  501 -0.65315413501E+02 -0.37859441783E+02 -0.91917241853E+02  0.11894629008E+03  0.00000000000E+00 0.  1.
<scales pt_clust_5="13000.00000" pt_clust_6="13000.00000" pt_clust_7="13000.00000" pt_clust_8="13000.00000" pt_clust_9="75.49464"></scales>
<clustering>
<clus scale="   75.495">  2  9  1 -1</clus>
<clus scale="   75.715">  5  6 -1 -1</clus>
<clus scale="   91.184">  7  8 -1 -1</clus>
<clus scale="  175.835">  1  5  2 -1</clus>
<clus scale="  175.835">  1  5  2 -1</clus>
</clustering>
</event>
<event>
 9    2  0.6066854E-005  0.9321214E+02  0.7546771E-02  0.1300955E+00
         -3   -1    0    0    0  501 -0.00000000000E+00  0.00000000000E+00  0.47620534265E+03  0.47620534265E+03  0.00000000000E+00 0.  1.
          4   -1    0    0  502    0  0.00000000000E+00 -0.00000000000E+00 -0.46454770250E+02  0.46454770250E+02  0.00000000000E+00 0. -1.
         23    2    1    2    0    0  0.33956158727E+02 -0.29757591360E+02  0.11245540794E+03  0.15111582983E+03  0.90284219503E+02 0.  0.
         24    2    1    2    0    0 -0.16619869429E+02 -0.61369870191E+01  0.40593466869E+02  0.91986065280E+02  0.80620865684E+02 0.  0.
        -13    1    4    4    0    0 -0.12447058801E+02 -0.16243195392E+02  0.63439522977E+02  0.66658410909E+02  0.00000000000E+00 0.  1.
         14    1    4    4    0    0 -0.41728106284E+01  0.10106208373E+02 -0.22846056108E+02  0.25327654371E+02  0.00000000000E+00 0. -1.
        -11    1    3    3    0    0  0.60016949334E+02 -0.16127674458E+02  0.10286740975E+03  0.12018252818E+03  0.00000000000E+00 0.  1.
         11    1    3    3    0    0 -0.26060790607E+02 -0.13629916902E+02  0.95879981911E+01  0.30933301653E+02  0.00000000000E+00 0. -1.
         21    1    1    2  502  501 -0.17336289298E+02  0.35894578379E+02  0.27670169760E+03  0.27955821779E+03  0.00000000000E+00 0.  1.
<scales pt_clust_5="13000.00000" pt_clust_6="13000.00000" pt_clust_7="13000.00000" pt_clust_8="13000.00000" pt_clust_9="39.86186"></scales>
<clustering>
<clus scale="   39.862">  1  9  2 -1</clus>
<clus scale="   80.621">  5  6 -1 -1</clus>
<clus scale="   83.887">  2  5  1 -1</clus>
<clus scale="   90.284">  7  8 -1 -1</clus>
<clus scale="   83.887">  2  5  1 -1</clus>
</clustering>
</event>
<event>
 9    2  0.6066854E-005  0.9842468E+02  0.7546771E-02  0.1286811E+00
         -3   -1    0    0    0  501 -0.00000000000E+00  0.00000000000E+00  0.12994574457E+03  0.12994574457E+03  0.00000000000E+00 0.  1.
          4   -1    0    0  502    0  0.00000000000E+00 -0.00000000000E+00 -0.19612470010E+03  0.19612470010E+03  0.00000000000E+00 0. -1.
         23    2    1    2    0    0 -0.33396096831E+02  0.46815344900E+02  0.66147064208E+02  0.12333478316E+03  0.86770149436E+02 0.  0.
         24    2    1    2    0    0  0.38756544217E+02 -0.23765575908E+02 -0.14797878709E+03  0.17436251624E+03  0.80235237432E+02 0.  0.
        -11    1    4    4    0    0 -0.24039235636E+02 -0.97355511665E+01 -0.59995952949E+02  0.65361916869E+02  0.00000000000E+00 0.  1.
         12    1    4    4    0    0  0.62795779853E+02 -0.14030024741E+02 -0.87982834137E+02  0.10900059938E+03  0.00000000000E+00 0. -1.
        -13    1    3    3    0    0 -0.27994712672E+02  0.12215708613E+02  0.80033084638E+02  0.85663423415E+02  0.00000000000E+00 0.  1.
         13    1    3    3    0    0 -0.54013841592E+01  0.34599636286E+02 -0.13886020430E+02  0.37671359749E+02  0.00000000000E+00 0. -1.
         21    1    1    2  502  501 -0.53604473861E+01 -0.23049768992E+02  0.15652767341E+02  0.28373145264E+02  0.00000000000E+00 0. -1.
<scales pt_clust_5="13000.00000" pt_clust_6="13000.00000" pt_clust_7="13000.00000" pt_clust_8="13000.00000" pt_clust_9="23.66487"></scales>
<clustering>
<clus scale="   23.665">  1  9  2 -1</clus>
<clus scale="   80.235">  5  6 -1 -1</clus>
<clus scale="   86.770">  7  8 -1 -1</clus>
<clus scale="   92.715">  2  5  1 -1</clus>
<clus scale="   92.715">  2  5  1 -1</clus>
</clustering>
</event>
<event>
 9    2  0.6066854E-005  0.2004450E+03  0.7546771E-02  0.1150427E+00
         -1   -1    0    0    0  501 -0.00000000000E+00  0.00000000000E+00  0.22502661584E+03  0.22502661584E+03  0.00000000000E+00 0.  1.
          2   -1    0    0  502    0  0.00000000000E+00 -0.00000000000E+00 -0.31780821199E+03  0.31780821199E+03  0.00000000000E+00 0. -1.
         24    2    1    2    0    0 -0.15045639370E+03  0.10025567721E+03  0.53494614959E+02  0.20490516619E+03  0.80225470299E+02 0.  0.
         23    2    1    2    0    0  0.13439262677E+03 -0.11634584097E+03 -0.19799024049E+03  0.28143825688E+03  0.91704003522E+02 0.  0.
        -13    1    3    3    0    0 -0.14300671083E+03  0.63722099636E+02  0.58810695855E+02  0.16724270768E+03  0.00000000000E+00 0.  1.
         14    1    3    3    0    0 -0.74496828657E+01  0.36533577571E+02 -0.53160808958E+01  0.37662458510E+02  0.00000000000E+00 0. -1.
        -13    1    4    4    0    0  0.95590641099E+02 -0.89207771022E+02 -0.77535539818E+02  0.15201104240E+03  0.00000000000E+00 0.  1.
         13    1    4    4    0    0  0.38801985675E+02 -0.27138069944E+02 -0.12045470068E+03  0.12942721448E+03  0.00000000000E+00 0. -1.
         21    1    1    2  502  501  0.16063766923E+02  0.16090163760E+02  0.51714029379E+02  0.56491404763E+02  0.00000000000E+00 0.  1.
<scales pt_clust_5="13000.00000" pt_clust_6="13000.00000" pt_clust_7="13000.00000" pt_clust_8="13000.00000" pt_clust_9="22.73627"></scales>
<clustering>
<clus scale="   22.736">  1  9  2 -1</clus>
<clus scale="   80.225">  5  6 -1 -1</clus>
<clus scale="   91.704">  7  8 -1 -1</clus>
<clus scale="  195.460">  1  5  2 -1</clus>
<clus scale="  200.445">  2  5  1 -1</clus>
</clustering>
</event>
<event>
 9    2  0.6066854E-005  0.1041596E+03  0.7546771E-02  0.1278493E+00
         -1   -1    0    0    0  501 -0.00000000000E+00  0.00000000000E+00  0.95361984869E+02  0.95361984869E+02  0.00000000000E+00 0.  1.
          2   -1    0    0  502    0  0.00000000000E+00 -0.00000000000E+00 -0.89664546023E+03  0.89664546023E+03  0.00000000000E+00 0. -1.
         23    2    1    2    0    0 -0.46174072609E+02  0.37128141775E+01 -0.10115379359E+03  0.14447718626E+03  0.92172324597E+02 0.  0.
         24    2    1    2    0    0  0.27388707792E+02 -0.42990673329E+02 -0.76433141358E+03  0.76995769592E+03  0.77678854368E+02 0.  0.
        -13    1    4    4    0    0 -0.22639627181E+02  0.19542735787E+01 -0.12054762605E+03  0.12267070576E+03  0.00000000000E+00 0.  1.
         14    1    4    4    0    0  0.50028334973E+02 -0.44944946908E+02 -0.64378378752E+03  0.64728699016E+03  0.00000000000E+00 0. -1.
        -11    1    3    3    0    0 -0.48081394816E+02  0.35354138825E+02 -0.30464823260E+02  0.67006276690E+02  0.00000000000E+00 0.  1.
         11    1    3    3    0    0  0.19073222072E+01 -0.31641324648E+02 -0.70688970328E+02  0.77470909570E+02  0.00000000000E+00 0. -1.
         21    1    1    2  502  501  0.18785364817E+02  0.39277859152E+02  0.64201731806E+02  0.77572562919E+02  0.00000000000E+00 0.  1.
<scales pt_clust_5="13000.00000" pt_clust_6="13000.00000" pt_clust_7="13000.00000" pt_clust_8="13000.00000" pt_clust_9="43.53895"></scales>
<clustering>
<clus scale="   43.539">  1  9  2 -1</clus>
<clus scale="   77.679">  5  6 -1 -1</clus>
<clus scale="   91.583">  2  5  1 -1</clus>
<clus scale="   92.172">  7  8 -1 -1</clus>
<clus scale="   91.583">  2  5  1 -1</clus>
</clustering>
</event>
<event>
 9    2  0.6066854E-005  0.3213218E+03  0.7546771E-02  0.1116865E+00
         -1   -1    0    0    0  501 -0.00000000000E+00  0.00000000000E+00  0.39359952041E+03  0.39359952041E+03  0.00000000000E+00 0.  1.
          2   -1    0    0  502    0  0.00000000000E+00 -0.00000000000E+00 -0.56096142734E+03  0.56096142734E+03  0.00000000000E+00 0. -1.
         24    2    1    2    0    0 -0.61510596505E+02  0.33210762049E+02  0.16553082611E+03  0.19744387520E+03  0.81835941131E+02 0.  0.
         23    2    1    2    0    0 -0.16681402309E+03 -0.25528746508E+03 -0.29866262378E+03  0.43677055030E+03  0.92577225306E+02 0.  0.
        -13    1    3    3    0    0 -0.32227480009E+02  0.57608052524E+02  0.12764602256E+03  0.14370388046E+03  0.00000000000E+00 0.  1.
         14    1    3    3    0    0 -0.29283116497E+02 -0.24397290475E+02  0.37884803552E+02  0.53739994738E+02  0.00000000000E+00 0. -1.
        -11    1    4    4    0    0 -0.69720133622E+02 -0.37827903594E+02 -0.58597701006E+02  0.98618141768E+02  0.00000000000E+00 0.  1.
         11    1    4    4    0    0 -0.97093889465E+02 -0.21745956148E+03 -0.24006492277E+03  0.33815240853E+03  0.00000000000E+00 0. -1.
         21    1    1    2  502  501  0.22832461959E+03  0.22207670303E+03 -0.34230109268E+02  0.32034652226E+03  0.00000000000E+00 0.  1.
<scales pt_clust_5="13000.00000" pt_clust_6="13000.00000" pt_clust_7="13000.00000" pt_clust_8="13000.00000" pt_clust_9="307.69649"></scales>
<clustering>
<clus scale="   81.836">  5  6 -1 -1</clus>
<clus scale="   92.577">  7  8 -1 -1</clus>
<clus scale="  107.627">  1  5  2 -1</clus>
<clus scale="  307.696">  1  9  2 -1</clus>
<clus scale="  321.322">  2  5  1 -1</clus>
</clustering>
</event>
<event>
 9    2  0.6066854E-005  0.2615828E+03  0.7546771E-02  0.1134123E+00
          2   -1    0    0  502    0  0.00000000000E+00  0.00000000000E+00  0.80141332372E+03  0.80141332372E+03  0.00000000000E+00 0. -1.
         -1   -1    0    0    0  501 -0.00000000000E+00 -0.00000000000E+00 -0.14842081438E+03  0.14842081438E+03  0.00000000000E+00 0.  1.
         23    2    1    2    0    0 -0.27909103848E+03  0.66247479944E+02  0.23349735061E+03  0.38078815023E+03  0.90543173425E+02 0.  0.
         24    2    1    2    0    0  0.57154803030E+02 -0.84310608430E+02  0.27324298460E+03  0.30264090599E+03  0.80961961062E+02 0.  0.
        -11    1    4    4    0    0  0.50059320160E+02 -0.30219643183E+02  0.65270336355E+02  0.87632067058E+02  0.00000000000E+00 0.  1.
         12    1    4    4    0    0  0.70954828704E+01 -0.54090965248E+02  0.20797264825E+03  0.21500883893E+03  0.00000000000E+00 0. -1.
        -13    1    3    3    0    0 -0.15836105524E+03  0.70843954864E+02  0.98008320199E+02  0.19925541545E+03  0.00000000000E+00 0.  1.
         13    1    3    3    0    0 -0.12072998324E+03 -0.45964749201E+01  0.13548903041E+03  0.18153273478E+03  0.00000000000E+00 0. -1.
         21    1    1    2  502  501  0.22193623545E+03  0.18063128487E+02  0.14625217413E+03  0.26640508189E+03  0.00000000000E+00 0.  1.
<scales pt_clust_5="13000.00000" pt_clust_6="13000.00000" pt_clust_7="13000.00000" pt_clust_8="13000.00000" pt_clust_9="245.41294"></scales>
<clustering>
<clus scale="   80.962">  5  6 -1 -1</clus>
<clus scale="   90.543">  7  8 -1 -1</clus>
<clus scale="  130.115">  1  5  2 -1</clus>
<clus scale="  245.413">  2  9  1 -1</clus>
<clus scale="  130.115">  1  5  2 -1</clus>
</clustering>
</event>
<event>
 9    2  0.6066854E-005  0.1339430E+03  0.7546771E-02  0.1224732E+00
          2   -1    0    0  502    0  0.00000000000E+00  0.00000000000E+00  0.34528827906E+03  0.34528827906E+03  0.00000000000E+00 0. -1.
         -1   -1    0    0    0  501 -0.00000000000E+00 -0.00000000000E+00 -0.18794752696E+03  0.18794752696E+03  0.00000000000E+00 0.  1.
         23    2    1    2    0    0 -0.13624014519E+03  0.15604126765E+02 -0.62953480254E+02  0.17703358956E+03  0.92589876468E+02 0.  0.
         24    2    1    2    0    0  0.92284407870E+02  0.53202049527E+01  0.26384723069E+03  0.29088148342E+03  0.80324091885E+02 0.  0.
        -11    1    4    4    0    0  0.37559127543E+02  0.27411165497E+00  0.23443456050E+02  0.44275939635E+02  0.00000000000E+00 0.  1.
         12    1    4    4    0    0  0.54725280327E+02  0.50460932977E+01  0.24040377464E+03  0.24660554378E+03  0.00000000000E+00 0. -1.
        -13    1    3    3    0    0 -0.11737832128E+03  0.45633407209E+02 -0.64589950700E+02  0.14153423576E+03  0.00000000000E+00 0.  1.
         13    1    3    3    0    0 -0.18861823908E+02 -0.30029280443E+02  0.16364704458E+01  0.35499353805E+02  0.00000000000E+00 0. -1.
         21    1    1    2  502  501  0.43955737318E+02 -0.20924331718E+02 -0.43552998339E+02  0.65320733043E+02  0.00000000000E+00 0.  1.
<scales pt_clust_5="13000.00000" pt_clust_6="13000.00000" pt_clust_7="13000.00000" pt_clust_8="13000.00000" pt_clust_9="48.68197"></scales>
<clustering>
<clus scale="   48.682">  2  9  1 -1</clus>
<clus scale="   80.324">  5  6 -1 -1</clus>
<clus scale="   92.590">  7  8 -1 -1</clus>
<clus scale="  125.777">  1  5  2 -1</clus>
<clus scale="  125.777">  1  5  2 -1</clus>
</clustering>
</event>
<event>
 9    2  0.6066854E-005  0.1202500E+03  0.7546771E-02  0.1254494E+00
         -1   -1    0    0    0  501 -0.00000000000E+00  0.00000000000E+00  0.35459234663E+02  0.35459234663E+02  0.00000000000E+00 0.  1.
          2   -1    0    0  502    0  0.00000000000E+00 -0.00000000000E+00 -0.96034239700E+03  0.96034239700E+03  0.00000000000E+00 0. -1.
         23    2    1    2    0    0 -0.66725613499E+02  0.12280341242E+02 -0.12060539077E+03  0.16752623370E+03  0.94425973207E+02 0.  0.
         24    2    1    2    0    0 -0.31932218925E+02 -0.39800235093E+02 -0.35525184212E+03  0.36771595796E+03  0.80046418374E+02 0.  0.
        -13    1    4    4    0    0  0.16116413427E+02  0.13798838391E+02 -0.11386618101E+03  0.11582596384E+03  0.00000000000E+00 0.  1.
         14    1    4    4    0    0 -0.48048632352E+02 -0.53599073484E+02 -0.24138566111E+03  0.25188999412E+03  0.00000000000E+00 0. -1.
        -11    1    3    3    0    0 -0.72515058173E+02  0.41031225554E+02 -0.10581328901E+03  0.13467905280E+03  0.00000000000E+00 0.  1.
         11    1    3    3    0    0  0.57894446745E+01 -0.28750884312E+02 -0.14792101762E+02  0.32847180897E+02  0.00000000000E+00 0. -1.
         21    1    1    2  502  501  0.98657832424E+02  0.27519893851E+02 -0.44902592945E+03  0.46055944000E+03  0.00000000000E+00 0. -1.
<scales pt_clust_5="13000.00000" pt_clust_6="13000.00000" pt_clust_7="13000.00000" pt_clust_8="13000.00000" pt_clust_9="74.45664"></scales>
<clustering>
<clus scale="   80.046">  5  6 -1 -1</clus>
<clus scale="   94.426">  7  8 -1 -1</clus>
<clus scale="   94.927">  2  5  1 -1</clus>
<clus scale="   74.457">  2  9  1 -1</clus>
<clus scale="   94.927">  2  5  1 -1</clus>
</clustering>
</event>
<event>
 9    2  0.6066854E-005  0.1106663E+03  0.7546771E-02  0.1264078E+00
          2   -1    0    0  502    0  0.00000000000E+00  0.00000000000E+00  0.50676687891E+03  0.50676687891E+03  0.00000000000E+00 0. -1.
         -1   -1    0    0    0  501 -0.00000000000E+00 -0.00000000000E+00 -0.71343211097E+02  0.71343211097E+02  0.00000000000E+00 0.  1.
         23    2    1    2    0    0  0.23319307425E+02 -0.70540874727E+02  0.12267526703E+03  0.17050469296E+03  0.92210758984E+02 0.  0.
         24    2    1    2    0    0 -0.56223570308E+02  0.27109931503E+02  0.33400592197E+03  0.34911762438E+03  0.80169330177E+02 0.  0.
        -13    1    4    4    0    0 -0.76979079775E+02  0.19347247346E+02  0.26633858647E+03  0.27791426258E+03  0.00000000000E+00 0.  1.
         14    1    4    4    0    0  0.20755509467E+02  0.77626841578E+01  0.67667335499E+02  0.71203361803E+02  0.00000000000E+00 0. -1.
        -13    1    3    3    0    0 -0.31205241063E+02 -0.41264360402E+02  0.32366626517E+02  0.61025511233E+02  0.00000000000E+00 0.  1.
         13    1    3    3    0    0  0.54524548488E+02 -0.29276514325E+02  0.90308640515E+02  0.10947918172E+03  0.00000000000E+00 0. -1.
         21    1    1    2  502  501  0.32904262883E+02  0.43430943224E+02 -0.21257521184E+02  0.58487772672E+02  0.00000000000E+00 0. -1.
<scales pt_clust_5="13000.00000" pt_clust_6="13000.00000" pt_clust_7="13000.00000" pt_clust_8="13000.00000" pt_clust_9="54.48796"></scales>
<clustering>
<clus scale="   54.488">  2  9  1 -1</clus>
<clus scale="   80.169">  5  6 -1 -1</clus>
<clus scale="   92.211">  7  8 -1 -1</clus>
<clus scale="  100.853">  1  5  2 -1</clus>
<clus scale="  100.853">  1  5  2 -1</clus>
</clustering>
</event>
<event>
 9    2  0.6066854E-005  0.1837836E+03  0.7546771E-02  0.1164355E+00
         -1   -1    0    0    0  501 -0.00000000000E+00  0.00000000000E+00  0.46604369587E+03  0.46604369587E+03  0.00000000000E+00 0.  1.
          2   -1    0    0  502    0  0.00000000000E+00 -0.00000000000E+00 -0.35591014705E+03  0.35591014705E+03  0.00000000000E+00 0. -1.
         24    2    1    2    0    0  0.14015527407E+02 -0.12630447574E+03  0.22367182236E+03  0.26907812807E+03  0.78896763476E+02 0.  0.
         23    2    1    2    0    0  0.53208078816E+01  0.16938425137E+03 -0.30367874717E+03  0.35695950664E+03  0.80498275067E+02 0.  0.
        -13    1    3    3    0    0  0.30269028801E+02 -0.83775803988E+02  0.19726845069E+03  0.21644731709E+03  0.00000000000E+00 0.  1.
         14    1    3    3    0    0 -0.16253501394E+02 -0.42528671752E+02  0.26403371667E+02  0.52630810975E+02  0.00000000000E+00 0. -1.
        -13    1    4    4    0    0  0.19121391387E+02  0.72682677073E+01 -0.14238098303E+02  0.24923458174E+02  0.00000000000E+00 0.  1.
         13    1    4    4    0    0 -0.13800583506E+02  0.16211598367E+03 -0.28944064887E+03  0.33203604847E+03  0.00000000000E+00 0. -1.
         21    1    1    2  502  501 -0.19336335288E+02 -0.43079775635E+02  0.19014047362E+03  0.19591620821E+03  0.00000000000E+00 0.  1.
<scales pt_clust_5="13000.00000" pt_clust_6="13000.00000" pt_clust_7="13000.00000" pt_clust_8="13000.00000" pt_clust_9="47.22034"></scales>
<clustering>
<clus scale="   47.220">  1  9  2 -1</clus>
<clus scale="   78.897">  5  6 -1 -1</clus>
<clus scale="   80.498">  7  8 -1 -1</clus>
<clus scale="  183.088">  1  5  2 -1</clus>
<clus scale="  183.784">  2  5  1 -1</clus>
</clustering>
</event>
<event>
 9    2  0.6066854E-005  0.1606616E+03  0.7546771E-02  0.1189684E+00
         -1   -1    0    0    0  501 -0.00000000000E+00  0.00000000000E+00  0.32529091101E+03  0.32529091101E+03  0.00000000000E+00 0.  1.
          2   -1    0    0  502    0  0.00000000000E+00 -0.00000000000E+00 -0.28092131427E+03  0.28092131427E+03  0.00000000000E+00 0. -1.
         23    2    1    2    0    0  0.51341817780E+02  0.14494525304E+03  0.22786812894E+03  0.28966719525E+03  0.91313149015E+02 0.  0.
         24    2    1    2    0    0 -0.57781079625E+00 -0.13083733441E+03 -0.20796107166E+03  0.25845515475E+03  0.80202978447E+02 0.  0.
        -11    1    4    4    0    0 -0.18260956458E+02 -0.15074415345E+02 -0.51040430537E+01  0.24222959857E+02  0.00000000000E+00 0.  1.
         12    1    4    4    0    0  0.17683145662E+02 -0.11576291907E+03 -0.20285702861E+03  0.23423219490E+03  0.00000000000E+00 0. -1.
        -13    1    3    3    0    0  0.29175235378E+01  0.37432617729E+02  0.13338332620E+03  0.13856703981E+03  0.00000000000E+00 0.  1.
         13    1    3    3    0    0  0.48424294242E+02  0.10751263531E+03  0.94484802745E+02  0.15110015544E+03  0.00000000000E+00 0. -1.
         21    1    1    2  502  501 -0.50764006984E+02 -0.14107918624E+02  0.24462539462E+02  0.58089875279E+02  0.00000000000E+00 0.  1.
<scales pt_clust_5="13000.00000" pt_clust_6="13000.00000" pt_clust_7="13000.00000" pt_clust_8="13000.00000" pt_clust_9="52.68793"></scales>
<clustering>
<clus scale="   52.688">  1  9  2 -1</clus>
<clus scale="   80.203">  5  6 -1 -1</clus>
<clus scale="   91.313">  7  8 -1 -1</clus>
<clus scale="  154.618">  2  5  1 -1</clus>
<clus scale="  154.618">  2  5  1 -1</clus>
</clustering>
</event>
<event>
 9    2  0.6066854E-005  0.1457341E+03  0.7546771E-02  0.1206703E+00
          2   -1    0    0  502    0  0.00000000000E+00  0.00000000000E+00  0.57869981644E+03  0.57869981644E+03  0.00000000000E+00 0. -1.
         -1   -1    0    0    0  501 -0.00000000000E+00 -0.00000000000E+00 -0.93362408691E+02  0.93362408691E+02  0.00000000000E+00 0.  1.
         23    2    1    2    0    0 -0.59960053067E+02  0.84631564894E+02  0.59232845911E+02  0.15125589138E+03  0.92801427269E+02 0.  0.
         24    2    1    2    0    0  0.82008881197E+02 -0.74118684913E+02  0.45777136989E+03  0.48081310683E+03  0.96992683013E+02 0.  0.
        -13    1    4    4    0    0  0.53992426494E+02 -0.38026936152E+01  0.87526460474E+02  0.10291027102E+03  0.00000000000E+00 0.  1.
         14    1    4    4    0    0  0.28016454703E+02 -0.70315991298E+02  0.37024490942E+03  0.37790283581E+03  0.00000000000E+00 0. -1.
        -11    1    3    3    0    0  0.21165123854E+02  0.33206631494E+02  0.19627559784E+01  0.39427087820E+02  0.00000000000E+00 0.  1.
         11    1    3    3    0    0 -0.81125176920E+02  0.51424933400E+02  0.57270089933E+02  0.11182880356E+03  0.00000000000E+00 0. -1.
         21    1    1    2  502  501 -0.22048828130E+02 -0.10512879981E+02 -0.31666808051E+02  0.39993226921E+02  0.00000000000E+00 0. -1.
<scales pt_clust_5="13000.00000" pt_clust_6="13000.00000" pt_clust_7="13000.00000" pt_clust_8="13000.00000" pt_clust_9="24.42686"></scales>
<clustering>
<clus scale="   24.427">  2  9  1 -1</clus>
<clus scale="   92.801">  7  8 -1 -1</clus>
<clus scale="   96.993">  5  6 -1 -1</clus>
<clus scale="  142.979">  2  7  1 -1</clus>
<clus scale="  145.734">  1  5  2 -1</clus>
</clustering>
</event>
<event>
 9    2  0.6066854E-005  0.9708537E+02  0.7546771E-02  0.1294059E+00
          2   -1    0    0  502    0  0.00000000000E+00  0.00000000000E+00  0.60641242415E+02  0.60641242415E+02  0.00000000000E+00 0. -1.
         -1   -1    0    0    0  501 -0.00000000000E+00 -0.00000000000E+00 -0.19812218938E+03  0.19812218938E+03  0.00000000000E+00 0.  1.
         24    2    1    2    0    0 -0.27750698935E+02  0.44253503255E+02 -0.84221089801E+02  0.12523415810E+03  0.76563232334E+02 0.  0.
         23    2    1    2    0    0  0.11230641750E+02 -0.22061649969E+02 -0.33524610503E+02  0.99545886544E+02  0.90402656515E+02 0.  0.
        -11    1    3    3    0    0  0.99240195313E+00  0.48708934243E+02 -0.82853322692E+02  0.96115650223E+02  0.00000000000E+00 0.  1.
         12    1    3    3    0    0 -0.28743100888E+02 -0.44554309879E+01 -0.13677671086E+01  0.29118507874E+02  0.00000000000E+00 0. -1.
        -13    1    4    4    0    0 -0.18087581043E+02 -0.49467213775E+02 -0.12058546291E+02  0.54033085839E+02  0.00000000000E+00 0. -1.
         13    1    4    4    0    0  0.29318222792E+02  0.27405563806E+02 -0.21466064212E+02  0.45512800705E+02  0.00000000000E+00 0.  1.
         21    1    1    2  502  501  0.16520057185E+02 -0.22191853286E+02 -0.19735246663E+02  0.33983387155E+02  0.00000000000E+00 0.  1.
<scales pt_clust_5="13000.00000" pt_clust_6="13000.00000" pt_clust_7="13000.00000" pt_clust_8="13000.00000" pt_clust_9="27.66569"></scales>
<clustering>
<clus scale="   27.666">  2  9  1 -1</clus>
<clus scale="   76.563">  5  6 -1 -1</clus>
<clus scale="   84.350">  2  5  1 -1</clus>
<clus scale="   90.403">  7  8 -1 -1</clus>
<clus scale="   97.085">  1  5  2 -1</clus>
</clustering>
</event>
<event>
 9    2  0.6066854E-005  0.1128420E+03  0.7546771E-02  0.1256964E+00
         -3   -1    0    0    0  501 -0.00000000000E+00  0.00000000000E+00  0.23791137683E+03  0.23791137683E+03  0.00000000000E+00 0.  1.
          4   -1    0    0  502    0  0.00000000000E+00 -0.00000000000E+00 -0.34765789661E+03  0.34765789661E+03  0.00000000000E+00 0. -1.
         23    2    1    2    0    0 -0.74519265699E+02  0.31106422332E+02  0.74942735095E+02  0.14433783883E+03  0.93253781183E+02 0.  0.
         24    2    1    2    0    0  0.54723600670E+02 -0.75806564839E+01 -0.30089988782E+03  0.32102227846E+03  0.97274981134E+02 0.  0.
        -11    1    4    4    0    0 -0.27981363806E+02 -0.58107972050E+01 -0.63884887414E+02  0.69985719433E+02  0.00000000000E+00 0.  1.
         12    1    4    4    0    0  0.82704964476E+02 -0.17698592789E+01 -0.23701500041E+03  0.25103655903E+03  0.00000000000E+00 0. -1.
        -11    1    3    3    0    0 -0.47490316817E+02 -0.29464478308E+02  0.44087782889E+02  0.71184396278E+02  0.00000000000E+00 0.  1.
         11    1    3    3    0    0 -0.27028948882E+02  0.60570900641E+02  0.30854952206E+02  0.73153442555E+02  0.00000000000E+00 0. -1.
         21    1    1    2  502  501  0.19795665029E+02 -0.23525765848E+02  0.11621063294E+03  0.12020915614E+03  0.00000000000E+00 0.  1.
<scales pt_clust_5="13000.00000" pt_clust_6="13000.00000" pt_clust_7="13000.00000" pt_clust_8="13000.00000" pt_clust_9="30.74622"></scales>
<clustering>
<clus scale="   30.746">  1  9  2 -1</clus>
<clus scale="   93.254">  7  8 -1 -1</clus>
<clus scale="   97.275">  5  6 -1 -1</clus>
<clus scale="  109.395">  1  7  2 -1</clus>
<clus scale="  112.842">  2  5  1 -1</clus>
</clustering>
</event>
<event>
 9    2  0.6066854E-005  0.1020189E+03  0.7546771E-02  0.1282483E+00
          2   -1    0    0  502    0  0.00000000000E+00  0.00000000000E+00  0.44024776878E+03  0.44024776878E+03  0.00000000000E+00 0. -1.
         -1   -1    0    0    0  501 -0.00000000000E+00 -0.00000000000E+00 -0.50080998219E+02  0.50080998219E+02  0.00000000000E+00 0.  1.
         23    2    1    2    0    0 -0.16141383132E+02  0.49128413375E+02  0.34587966616E+02  0.11241104499E+03  0.93625692793E+02 0.  0.
         24    2    1    2    0    0 -0.98575031187E+01 -0.38584034258E+02  0.32100452899E+03  0.33339237523E+03  0.80750666635E+02 0.  0.
        -11    1    4    4    0    0  0.18249263431E+02 -0.43955940706E+02  0.10236541225E+03  0.11288860866E+03  0.00000000000E+00 0.  1.
         12    1    4    4    0    0 -0.28106766550E+02  0.53719064474E+01  0.21863911673E+03  0.22050376657E+03  0.00000000000E+00 0. -1.
        -11    1    3    3    0    0  0.23062557168E+02  0.55123830680E+02 -0.51428764638E-01  0.59753835834E+02  0.00000000000E+00 0.  1.
         11    1    3    3    0    0 -0.39203940300E+02 -0.59954173051E+01  0.34639395381E+02  0.52657209156E+02  0.00000000000E+00 0. -1.
         21    1    1    2  502  501  0.25998886251E+02 -0.10544379117E+02  0.34574274954E+02  0.44525346780E+02  0.00000000000E+00 0. -1.
<scales pt_clust_5="13000.00000" pt_clust_6="13000.00000" pt_clust_7="13000.00000" pt_clust_8="13000.00000" pt_clust_9="28.05577"></scales>
<clustering>
<clus scale="   28.056">  2  9  1 -1</clus>
<clus scale="   80.751">  5  6 -1 -1</clus>
<clus scale="   90.348">  1  5  2 -1</clus>
<clus scale="   93.626">  7  8 -1 -1</clus>
<clus scale="   90.348">  1  5  2 -1</clus>
</clustering>
</event>
<event>
 9    2  0.6066854E-005  0.1158871E+03  0.7546771E-02  0.1250803E+00
          2   -1    0    0  502    0  0.00000000000E+00  0.00000000000E+00  0.47806282267E+02  0.47806282267E+02  0.00000000000E+00 0. -1.
         -1   -1    0    0    0  501 -0.00000000000E+00 -0.00000000000E+00 -0.45094079016E+03  0.45094079016E+03  0.00000000000E+00 0.  1.
         23    2    1    2    0    0 -0.42587167964E+02 -0.41154114562E+02 -0.28812045332E+03  0.30804647350E+03  0.91498121277E+02 0.  0.
         24    2    1    2    0    0  0.38677796784E+02  0.64869123339E+02 -0.61686429817E+02  0.13220683527E+03  0.89271812689E+02 0.  0.
        -11    1    4    4    0    0  0.28633198098E+02  0.28210829180E+02 -0.80364223600E+02  0.89856103583E+02  0.00000000000E+00 0.  1.
         12    1    4    4    0    0  0.10044598687E+02  0.36658294159E+02  0.18677793784E+02  0.42350731683E+02  0.00000000000E+00 0. -1.
        -13    1    3    3    0    0 -0.48482220610E+02  0.84057410529E+01 -0.79146249606E+02  0.93195016093E+02  0.00000000000E+00 0.  1.
         13    1    3    3    0    0  0.58950526457E+01 -0.49559855615E+02 -0.20897420371E+03  0.21485145741E+03  0.00000000000E+00 0. -1.
         21    1    1    2  502  501  0.39093711797E+01 -0.23715008777E+02 -0.53327624755E+02  0.58493763653E+02  0.00000000000E+00 0. -1.
<scales pt_clust_5="13000.00000" pt_clust_6="13000.00000" pt_clust_7="13000.00000" pt_clust_8="13000.00000" pt_clust_9="24.03507"></scales>
<clustering>
<clus scale="   24.035">  2  9  1 -1</clus>
<clus scale="   89.272">  5  6 -1 -1</clus>
<clus scale="   91.498">  7  8 -1 -1</clus>
<clus scale="  114.137">  1  5  2 -1</clus>
<clus scale="  114.137">  1  5  2 -1</clus>
</clustering>
</event>
<event>
 9    2  0.6066854E-005  0.1776562E+03  0.7546771E-02  0.1173689E+00
         -1   -1    0    0    0  501 -0.00000000000E+00  0.00000000000E+00  0.32838441483E+03  0.32838441483E+03  0.00000000000E+00 0.  1.
          2   -1    0    0  502    0  0.00000000000E+00 -0.00000000000E+00 -0.24749548959E+03  0.24749548959E+03  0.00000000000E+00 0. -1.
         23    2    1    2    0    0  0.58360226768E+01 -0.10478338100E+03  0.97749600531E+02  0.17823083047E+03  0.10581884724E+03 0.  0.
         24    2    1    2    0    0 -0.20185776949E+02  0.15144398522E+03 -0.16679428646E+03  0.23996833577E+03  0.80135647038E+02 0.  0.
        -11    1    4    4    0    0 -0.29775184597E+02  0.40756700046E+02 -0.16572331145E+02  0.53125440007E+02  0.00000000000E+00 0.  1.
         12    1    4    4    0    0  0.95894076481E+01  0.11068728517E+03 -0.15022195532E+03  0.18684289576E+03  0.00000000000E+00 0. -1.
        -13    1    3    3    0    0  0.37875140542E+02 -0.72936935918E+01  0.32151075868E+01  0.38704794975E+02  0.00000000000E+00 0. -1.
         13    1    3    3    0    0 -0.32039117865E+02 -0.97489687410E+02  0.94534492944E+02  0.13952603550E+03  0.00000000000E+00 0.  1.
         21    1    1    2  502  501  0.14349754272E+02 -0.46660604216E+02  0.14993361117E+03  0.15768073818E+03  0.00000000000E+00 0.  1.
<scales pt_clust_5="13000.00000" pt_clust_6="13000.00000" pt_clust_7="13000.00000" pt_clust_8="13000.00000" pt_clust_9="48.81729"></scales>
<clustering>
<clus scale="   48.817">  1  9  2 -1</clus>
<clus scale="   80.136">  5  6 -1 -1</clus>
<clus scale="  105.819">  7  8 -1 -1</clus>
<clus scale="  163.664">  2  5  1 -1</clus>
<clus scale="  163.664">  2  5  1 -1</clus>
</clustering>
</event>
<event>
 9    2  0.6066854E-005  0.9103102E+02  0.7546771E-02  0.1306476E+00
         -1   -1    0    0    0  501 -0.00000000000E+00  0.00000000000E+00  0.24203676633E+02  0.24203676633E+02  0.00000000000E+00 0.  1.
          2   -1    0    0  502    0  0.00000000000E+00 -0.00000000000E+00 -0.48436972967E+03  0.48436972967E+03  0.00000000000E+00 0. -1.
         23    2    1    2    0    0  0.19400163611E+02  0.21202237548E+02 -0.15939205142E+03  0.18522533748E+03  0.89870453230E+02 0.  0.
         24    2    1    2    0    0  0.38282351095E+01 -0.10907009222E+02 -0.27690364450E+03  0.28848628197E+03  0.80094246453E+02 0.  0.
        -11    1    4    4    0    0  0.15964928886E+02 -0.38896829793E+02 -0.92915147432E+02  0.10198562126E+03  0.00000000000E+00 0.  1.
         12    1    4    4    0    0 -0.12136693777E+02  0.27989820571E+02 -0.18398849707E+03  0.18650066071E+03  0.00000000000E+00 0. -1.
        -13    1    3    3    0    0 -0.84454511735E+01  0.48524089350E+02 -0.12032644568E+03  0.13001679284E+03  0.00000000000E+00 0. -1.
         13    1    3    3    0    0  0.27845614785E+02 -0.27321851802E+02 -0.39065605741E+02  0.55208544633E+02  0.00000000000E+00 0.  1.
         21    1    1    2  502  501 -0.23228398721E+02 -0.10295228326E+02 -0.23870357118E+02  0.34861786850E+02  0.00000000000E+00 0.  1.
<scales pt_clust_5="13000.00000" pt_clust_6="13000.00000" pt_clust_7="13000.00000" pt_clust_8="13000.00000" pt_clust_9="25.40768"></scales>
<clustering>
<clus scale="   25.408">  1  9  2 -1</clus>
<clus scale="   80.094">  5  6 -1 -1</clus>
<clus scale="   81.394">  2  5  1 -1</clus>
<clus scale="   89.870">  7  8 -1 -1</clus>
<clus scale="   81.394">  2  5  1 -1</clus>
</clustering>
</event>
<event>
 9    2  0.6066854E-005  0.1544859E+03  0.7546771E-02  0.1202278E+00
          4   -1    0    0  502    0  0.00000000000E+00  0.00000000000E+00  0.15981948548E+03  0.15981948548E+03  0.00000000000E+00 0. -1.
         -3   -1    0    0    0  501 -0.00000000000E+00 -0.00000000000E+00 -0.24129478200E+03  0.24129478200E+03  0.00000000000E+00 0.  1.
         24    2    1    2    0    0 -0.67052084667E+02  0.10239467999E+03 -0.84165007294E+02  0.17354308423E+03  0.89737400695E+02 0.  0.
         23    2    1    2    0    0 -0.13334977501E+02 -0.72267730077E+02 -0.69736740241E+01  0.14118198322E+03  0.12034647408E+03 0.  0.
        -13    1    3    3    0    0 -0.40293672882E+02  0.21992905185E+02  0.98772001139E+01  0.46955585769E+02  0.00000000000E+00 0.  1.
         14    1    3    3    0    0 -0.26758411785E+02  0.80401774804E+02 -0.94042207408E+02  0.12658749846E+03  0.00000000000E+00 0. -1.
        -11    1    4    4    0    0 -0.53508166170E+02  0.51322472278E+01 -0.81005488509E+00  0.53759836285E+02  0.00000000000E+00 0. -1.
         11    1    4    4    0    0  0.40173188669E+02 -0.77399977305E+02 -0.61636191390E+01  0.87422146940E+02  0.00000000000E+00 0.  1.
         21    1    1    2  502  501  0.80387062168E+02 -0.30126949912E+02  0.96633848059E+01  0.86389200025E+02  0.00000000000E+00 0.  1.
<scales pt_clust_5="13000.00000" pt_clust_6="13000.00000" pt_clust_7="13000.00000" pt_clust_8="13000.00000" pt_clust_9="85.84703"></scales>
<clustering>
<clus scale="   85.847">  1  9  2 -1</clus>
<clus scale="   89.737">  5  6 -1 -1</clus>
<clus scale="  120.346">  7  8 -1 -1</clus>
<clus scale="  132.043">  2  5  1 -1</clus>
<clus scale="   85.847">  1  5  2 -1</clus>
</clustering>
</event>
<event>
 9    2  0.6066854E-005  0.1003504E+03  0.7546771E-02  0.1283544E+00
         -1   -1    0    0    0  501 -0.00000000000E+00  0.00000000000E+00  0.16468986888E+03  0.16468986888E+03  0.00000000000E+00 0.  1.
          2   -1    0    0  502    0  0.00000000000E+00 -0.00000000000E+00 -0.26512874286E+03  0.26512874286E+03  0.00000000000E+00 0. -1.
         23    2    1    2    0    0 -0.43664386207E+02  0.14378725970E+02  0.10955045745E+03  0.14979948130E+03  0.91242838003E+02 0.  0.
         24    2    1    2    0    0  0.16075263869E+02 -0.22221594189E+00 -0.22451812733E+03  0.24577511843E+03  0.98684121591E+02 0.  0.
        -11    1    4    4    0    0 -0.22095135509E+02  0.39260182414E+02 -0.98874200873E+02  0.10865387492E+03  0.00000000000E+00 0.  1.
         12    1    4    4    0    0  0.38170399378E+02 -0.39482398355E+02 -0.12564392645E+03  0.13712124352E+03  0.00000000000E+00 0. -1.
        -11    1    3    3    0    0  0.23497213975E+02 -0.27973650469E-01  0.61874503686E+02  0.66185905248E+02  0.00000000000E+00 0. -1.
         11    1    3    3    0    0 -0.67161600182E+02  0.14406699620E+02  0.47675953766E+02  0.83613576054E+02  0.00000000000E+00 0.  1.
         21    1    1    2  502  501  0.27589122338E+02 -0.14156510028E+02  0.14528795901E+02  0.34244012000E+02  0.00000000000E+00 0. -1.
<scales pt_clust_5="13000.00000" pt_clust_6="13000.00000" pt_clust_7="13000.00000" pt_clust_8="13000.00000" pt_clust_9="31.00913"></scales>
<clustering>
<clus scale="   31.009">  1  9  2 -1</clus>
<clus scale="   91.243">  7  8 -1 -1</clus>
<clus scale="   93.043">  1  7  2 -1</clus>
<clus scale="   98.684">  5  6 -1 -1</clus>
<clus scale="  100.350">  2  5  1 -1</clus>
</clustering>
</event>
<event>
 9    2  0.6066854E-005  0.9426871E+02  0.7546771E-02  0.1299956E+00
         -1   -1    0    0    0  501 -0.00000000000E+00  0.00000000000E+00  0.37733614627E+02  0.37733614627E+02  0.00000000000E+00 0.  1.
          2   -1    0    0  502    0  0.00000000000E+00 -0.00000000000E+00 -0.48361148538E+03  0.48361148538E+03  0.00000000000E+00 0. -1.
         23    2    1    2    0    0 -0.16857475844E+02  0.18209203920E+02 -0.11798774815E+03  0.14973958615E+03  0.88798003064E+02 0.  0.
         24    2    1    2    0    0 -0.29497410123E+01 -0.36012408741E+02 -0.33381216709E+03  0.34432272528E+03  0.76301911433E+02 0.  0.
        -13    1    4    4    0    0 -0.75906547838E+01  0.20921214624E+02 -0.48697637134E+02  0.53542274175E+02  0.00000000000E+00 0.  1.
         14    1    4    4    0    0  0.46409137716E+01 -0.56933623365E+02 -0.28511452996E+03  0.29078045110E+03  0.00000000000E+00 0. -1.
        -13    1    3    3    0    0 -0.42441368853E+02 -0.17999006847E+02 -0.74678490522E+02  0.87761671499E+02  0.00000000000E+00 0. -1.
         13    1    3    3    0    0  0.25583893009E+02  0.36208210767E+02 -0.43309257626E+02  0.61977914651E+02  0.00000000000E+00 0.  1.
         21    1    1    2  502  501  0.19807216856E+02  0.17803204821E+02  0.59220444901E+01  0.27282788575E+02  0.00000000000E+00 0.  1.
<scales pt_clust_5="13000.00000" pt_clust_6="13000.00000" pt_clust_7="13000.00000" pt_clust_8="13000.00000" pt_clust_9="26.63231"></scales>
<clustering>
<clus scale="   26.632">  1  9  2 -1</clus>
<clus scale="   76.302">  5  6 -1 -1</clus>
<clus scale="   82.604">  2  5  1 -1</clus>
<clus scale="   88.798">  7  8 -1 -1</clus>
<clus scale="   82.604">  2  5  1 -1</clus>
</clustering>
</event>
<event>
 9    2  0.6066854E-005  0.9775565E+02  0.7546771E-02  0.1290279E+00
         -1   -1    0    0    0  501 -0.00000000000E+00  0.00000000000E+00  0.47336165928E+03  0.47336165928E+03  0.00000000000E+00 0.  1.
          2   -1    0    0  502    0  0.00000000000E+00 -0.00000000000E+00 -0.10697425625E+03  0.10697425625E+03  0.00000000000E+00 0. -1.
         23    2    1    2    0    0  0.38573535348E+01 -0.76941522632E+02  0.74422360749E+02  0.14143284914E+03  0.92356298943E+02 0.  0.
         24    2    1    2    0    0  0.33701178889E+02  0.34884950382E+01 -0.39234324589E+02  0.97583551524E+02  0.82675741581E+02 0.  0.
        -11    1    4    4    0    0  0.12984671184E+01 -0.34702813488E+02 -0.12950572576E+01  0.34751236728E+02  0.00000000000E+00 0.  1.
         12    1    4    4    0    0  0.32402711771E+02  0.38191308526E+02 -0.37939267331E+02  0.62832314796E+02  0.00000000000E+00 0. -1.
        -13    1    3    3    0    0  0.22895947213E+02 -0.22083312970E+02 -0.14715655440E+02  0.35049217189E+02  0.00000000000E+00 0. -1.
         13    1    3    3    0    0 -0.19038593679E+02 -0.54858209662E+02  0.89138016189E+02  0.10638363195E+03  0.00000000000E+00 0.  1.
         21    1    1    2  502  501 -0.37558532424E+02  0.73453027594E+02  0.33119936687E+03  0.34131951487E+03  0.00000000000E+00 0. -1.
<scales pt_clust_5="13000.00000" pt_clust_6="13000.00000" pt_clust_7="13000.00000" pt_clust_8="13000.00000" pt_clust_9="82.49843"></scales>
<clustering>
<clus scale="   82.498">  1  9  2 -1</clus>
<clus scale="   82.676">  5  6 -1 -1</clus>
<clus scale="   88.667">  2  5  1 -1</clus>
<clus scale="   92.356">  7  8 -1 -1</clus>
<clus scale="   88.667">  2  5  1 -1</clus>
</clustering>
</event>
<event>
 9    2  0.6066854E-005  0.2582981E+03  0.7546771E-02  0.1108761E+00
         -1   -1    0    0    0  501 -0.00000000000E+00  0.00000000000E+00  0.73833076101E+02  0.73833076101E+02  0.00000000000E+00 0.  1.
          2   -1    0    0  502    0  0.00000000000E+00 -0.00000000000E+00 -0.19953639949E+04  0.19953639949E+04  0.00000000000E+00 0. -1.
         23    2    1    2    0    0 -0.18909022869E+03  0.12978392643E+03 -0.23253432770E+03  0.33900090463E+03  0.90831809594E+02 0.  0.
         24    2    1    2    0    0  0.22258451909E+03 -0.10158671892E+03 -0.16547437295E+04  0.16746065223E+04  0.79161004509E+02 0.  0.
        -13    1    4    4    0    0  0.10903236685E+03 -0.91541363604E+02 -0.85289628937E+03  0.86469645465E+03  0.00000000000E+00 0.  1.
         14    1    4    4    0    0  0.11355215225E+03 -0.10045355318E+02 -0.80184744015E+03  0.80991006767E+03  0.00000000000E+00 0. -1.
        -13    1    3    3    0    0 -0.11524649852E+03  0.12847274403E+03 -0.15602141050E+03  0.23265786450E+03  0.00000000000E+00 0. -1.
         13    1    3    3    0    0 -0.73843730162E+02  0.13111823946E+01 -0.76512917203E+02  0.10634304012E+03  0.00000000000E+00 0.  1.
         21    1    1    2  502  501 -0.33494290405E+02 -0.28197207506E+02 -0.34252861619E+02  0.55589644089E+02  0.00000000000E+00 0.  1.
<scales pt_clust_5="13000.00000" pt_clust_6="13000.00000" pt_clust_7="13000.00000" pt_clust_8="13000.00000" pt_clust_9="43.78299"></scales>
<clustering>
<clus scale="   43.783">  1  9  2 -1</clus>
<clus scale="   79.161">  5  6 -1 -1</clus>
<clus scale="   90.832">  7  8 -1 -1</clus>
<clus scale="  254.429">  2  5  1 -1</clus>
<clus scale="  254.429">  2  5  1 -1</clus>
</clustering>
</event>
<event>
 9    2  0.6066854E-005  0.1180486E+03  0.7546771E-02  0.1250797E+00
         -1   -1    0    0    0  501 -0.00000000000E+00  0.00000000000E+00  0.40932825343E+02  0.40932825343E+02  0.00000000000E+00 0.  1.
          2   -1    0    0  502    0  0.00000000000E+00 -0.00000000000E+00 -0.71996259066E+03  0.71996259066E+03  0.00000000000E+00 0. -1.
         23    2    1    2    0    0 -0.30394175376E+02  0.79989473699E+02 -0.89588912018E+02  0.15523804092E+03  0.93544397983E+02 0.  0.
         24    2    1    2    0    0  0.38906831719E+02 -0.58379808799E+02 -0.54655447157E+03  0.55688561406E+03  0.80485111184E+02 0.  0.
        -11    1    4    4    0    0  0.17751145486E+02 -0.76678210539E+02 -0.39282951535E+03  0.40063659252E+03  0.00000000000E+00 0.  1.
         12    1    4    4    0    0  0.21155686233E+02  0.18298401741E+02 -0.15372495623E+03  0.15624902154E+03  0.00000000000E+00 0. -1.
        -13    1    3    3    0    0 -0.52286432389E+02  0.42780423721E+02 -0.15226555263E+02  0.69252318740E+02  0.00000000000E+00 0.  1.
         13    1    3    3    0    0  0.21892257013E+02  0.37209049979E+02 -0.74362356755E+02  0.85985722185E+02  0.00000000000E+00 0. -1.
         21    1    1    2  502  501 -0.85126563433E+01 -0.21609664901E+02 -0.42886381721E+02  0.48771761013E+02  0.00000000000E+00 0.  1.
<scales pt_clust_5="13000.00000" pt_clust_6="13000.00000" pt_clust_7="13000.00000" pt_clust_8="13000.00000" pt_clust_9="23.22591"></scales>
<clustering>
<clus scale="   23.226">  1  9  2 -1</clus>
<clus scale="   80.485">  5  6 -1 -1</clus>
<clus scale="   93.544">  7  8 -1 -1</clus>
<clus scale="  107.994">  2  5  1 -1</clus>
<clus scale="  107.994">  2  5  1 -1</clus>
</clustering>
</event>
<event>
 9    2  0.6066854E-005  0.9484851E+02  0.7546771E-02  0.1294957E+00
         -3   -1    0    0    0  501 -0.00000000000E+00  0.00000000000E+00  0.66657206866E+02  0.66657206866E+02  0.00000000000E+00 0.  1.
          4   -1    0    0  502    0  0.00000000000E+00 -0.00000000000E+00 -0.25999288341E+03  0.25999288341E+03  0.00000000000E+00 0. -1.
         23    2    1    2    0    0 -0.14608316122E+01  0.19755618517E+02 -0.51250716367E+02  0.10408323598E+03  0.88398334784E+02 0.  0.
         24    2    1    2    0    0 -0.34566684332E+02 -0.28711444619E+02 -0.15683867140E+03  0.18261862879E+03  0.82048717350E+02 0.  0.
        -13    1    4    4    0    0 -0.27903032623E+02  0.22824126566E+02 -0.96356183299E+02  0.10287873465E+03  0.00000000000E+00 0.  1.
         14    1    4    4    0    0 -0.66636517089E+01 -0.51535571185E+02 -0.60482488097E+02  0.79739894142E+02  0.00000000000E+00 0. -1.
        -11    1    3    3    0    0 -0.39274510582E+02  0.36976169976E+00 -0.24180811867E+01  0.39350616536E+02  0.00000000000E+00 0. -1.
         11    1    3    3    0    0  0.37813678970E+02  0.19385856817E+02 -0.48832635181E+02  0.64732619447E+02  0.00000000000E+00 0.  1.
         21    1    1    2  502  501  0.36027515944E+02  0.89558261024E+01  0.14753711217E+02  0.39948225504E+02  0.00000000000E+00 0.  1.
<scales pt_clust_5="13000.00000" pt_clust_6="13000.00000" pt_clust_7="13000.00000" pt_clust_8="13000.00000" pt_clust_9="37.12396"></scales>
<clustering>
<clus scale="   37.124">  1  9  2 -1</clus>
<clus scale="   82.049">  5  6 -1 -1</clus>
<clus scale="   88.398">  7  8 -1 -1</clus>
<clus scale="   88.960">  2  5  1 -1</clus>
<clus scale="   88.960">  2  5  1 -1</clus>
</clustering>
</event>
<event>
 9    2  0.6066854E-005  0.1029040E+03  0.7546771E-02  0.1279563E+00
          2   -1    0    0  502    0  0.00000000000E+00  0.00000000000E+00  0.25513042737E+03  0.25513042737E+03  0.00000000000E+00 0. -1.
         -1   -1    0    0    0  501 -0.00000000000E+00 -0.00000000000E+00 -0.70922548811E+02  0.70922548811E+02  0.00000000000E+00 0.  1.
         23    2    1    2    0    0  0.25008963733E+02 -0.11337816346E+02  0.13837958329E+02  0.96156812238E+02  0.91107898135E+02 0.  0.
         24    2    1    2    0    0 -0.51469339232E+02  0.16151290955E+02  0.17759930093E+03  0.20204683802E+03  0.79821400516E+02 0.  0.
        -13    1    4    4    0    0  0.17837931155E+02  0.18120198361E+02  0.32783323183E+02  0.41488307455E+02  0.00000000000E+00 0.  1.
         14    1    4    4    0    0 -0.69307270387E+02 -0.19689074053E+01  0.14481597775E+03  0.16055853056E+03  0.00000000000E+00 0. -1.
        -13    1    3    3    0    0  0.52223579738E+02  0.12420086731E+02 -0.74974228019E+01  0.54201219394E+02  0.00000000000E+00 0.  1.
         13    1    3    3    0    0 -0.27214616005E+02 -0.23757903077E+02  0.21335381131E+02  0.41955592845E+02  0.00000000000E+00 0. -1.
         21    1    1    2  502  501  0.26460375499E+02 -0.48134746091E+01 -0.72293806992E+01  0.27849325928E+02  0.00000000000E+00 0.  1.
<scales pt_clust_5="13000.00000" pt_clust_6="13000.00000" pt_clust_7="13000.00000" pt_clust_8="13000.00000" pt_clust_9="26.89463"></scales>
<clustering>
<clus scale="   26.895">  2  9  1 -1</clus>
<clus scale="   79.821">  5  6 -1 -1</clus>
<clus scale="   91.108">  7  8 -1 -1</clus>
<clus scale="   93.059">  1  5  2 -1</clus>
<clus scale="   93.059">  1  5  2 -1</clus>
</clustering>
</event>
<event>
 9    2  0.6066854E-005  0.1284258E+03  0.7546771E-02  0.1233220E+00
          2   -1    0    0  502    0  0.00000000000E+00  0.00000000000E+00  0.67408540543E+03  0.67408540543E+03  0.00000000000E+00 0. -1.
         -1   -1    0    0    0  501 -0.00000000000E+00 -0.00000000000E+00 -0.41879693664E+02  0.41879693664E+02  0.00000000000E+00 0.  1.
         24    2    1    2    0    0  0.68233185054E+02 -0.18917927745E+02  0.11605559205E+03  0.16962511138E+03  0.10144024070E+03 0.  0.
         23    2    1    2    0    0 -0.81607939488E+02 -0.38064729616E+01  0.50175969099E+03  0.51630056557E+03  0.90161751768E+02 0.  0.
        -11    1    3    3    0    0  0.89513908858E+02  0.36134839602E+01  0.68123402743E+02  0.11254596904E+03  0.00000000000E+00 0.  1.
         12    1    3    3    0    0 -0.21280723804E+02 -0.22531411705E+02  0.47932189307E+02  0.57079142344E+02  0.00000000000E+00 0. -1.
        -11    1    4    4    0    0 -0.19953949645E+02  0.40493683690E+02  0.16281355738E+03  0.16895606823E+03  0.00000000000E+00 0.  1.
         11    1    4    4    0    0 -0.61653989844E+02 -0.44300156652E+02  0.33894613361E+03  0.34734449734E+03  0.00000000000E+00 0. -1.
         21    1    1    2  502  501  0.13374754434E+02  0.22724400707E+02  0.14390428723E+02  0.30039422140E+02  0.00000000000E+00 0.  1.
<scales pt_clust_5="13000.00000" pt_clust_6="13000.00000" pt_clust_7="13000.00000" pt_clust_8="13000.00000" pt_clust_9="26.36821"></scales>
<clustering>
<clus scale="   26.368">  2  9  1 -1</clus>
<clus scale="   90.162">  7  8 -1 -1</clus>
<clus scale="  101.440">  5  6 -1 -1</clus>
<clus scale="  119.717">  1  7  2 -1</clus>
<clus scale="  119.717">  1  5  2 -1</clus>
</clustering>
</event>
<event>
 9    2  0.6066854E-005  0.1482146E+03  0.7546771E-02  0.1206114E+00
          2   -1    0    0  502    0  0.00000000000E+00  0.00000000000E+00  0.69106580229E+03  0.69106580229E+03  0.00000000000E+00 0. -1.
         -1   -1    0    0    0  501 -0.00000000000E+00 -0.00000000000E+00 -0.38719218104E+02  0.38719218104E+02  0.00000000000E+00 0.  1.
         23    2    1    2    0    0  0.98895968986E+02  0.47544278326E+02  0.30889292456E+03  0.34231841671E+03  0.98621440305E+02 0.  0.
         24    2    1    2    0    0 -0.11052409538E+03 -0.23096929260E+02  0.32768804797E+03  0.35613864955E+03  0.81891618119E+02 0.  0.
        -11    1    4    4    0    0 -0.10993295806E+03 -0.16402937846E+02  0.20439037841E+03  0.23265798595E+03  0.00000000000E+00 0.  1.
         12    1    4    4    0    0 -0.59113731727E+00 -0.66939914142E+01  0.12329766956E+03  0.12348066360E+03  0.00000000000E+00 0. -1.
        -13    1    3    3    0    0  0.38374164549E+02  0.17584342087E+02  0.22030712201E+02  0.47614471240E+02  0.00000000000E+00 0.  1.
         13    1    3    3    0    0  0.60521804437E+02  0.29959936239E+02  0.28686221236E+03  0.29470394547E+03  0.00000000000E+00 0. -1.
         21    1    1    2  502  501  0.11628126391E+02 -0.24447349066E+02  0.15765611646E+02  0.31327954135E+02  0.00000000000E+00 0.  1.
<scales pt_clust_5="13000.00000" pt_clust_6="13000.00000" pt_clust_7="13000.00000" pt_clust_8="13000.00000" pt_clust_9="27.07187"></scales>
<clustering>
<clus scale="   27.072">  2  9  1 -1</clus>
<clus scale="   81.892">  5  6 -1 -1</clus>
<clus scale="   98.621">  7  8 -1 -1</clus>
<clus scale="  137.650">  1  5  2 -1</clus>
<clus scale="  137.650">  1  5  2 -1</clus>
</clustering>
</event>
<event>
 9    2  0.6066854E-005  0.8893580E+02  0.7546771E-02  0.1310602E+00
         -3   -1    0    0    0  501 -0.00000000000E+00  0.00000000000E+00  0.17390810769E+03  0.17390810769E+03  0.00000000000E+00 0.  1.
          4   -1    0    0  502    0  0.00000000000E+00 -0.00000000000E+00 -0.20056884764E+03  0.20056884764E+03  0.00000000000E+00 0. -1.
         23    2    1    2    0    0  0.15735813448E+02 -0.47476228376E+01  0.91624249855E+00  0.89300797681E+02  0.87770366404E+02 0.  0.
         24    2    1    2    0    0  0.18066306461E+02 -0.12069203151E+02 -0.14222534677E+03  0.16447140882E+03  0.79691517503E+02 0.  0.
        -11    1    4    4    0    0 -0.13756370870E+01  0.32289025416E+02 -0.40575896286E+02  0.51873662866E+02  0.00000000000E+00 0.  1.
         12    1    4    4    0    0  0.19441943548E+02 -0.44358228567E+02 -0.10164945049E+03  0.11259774596E+03  0.00000000000E+00 0. -1.
        -11    1    3    3    0    0 -0.32611776440E+02 -0.14575141715E+02 -0.13043508299E+02  0.38027566676E+02  0.00000000000E+00 0. -1.
         11    1    3    3    0    0  0.48347589888E+02  0.98275188769E+01  0.13959750798E+02  0.51273231004E+02  0.00000000000E+00 0.  1.
         21    1    1    2  502  501 -0.33802119909E+02  0.16816825989E+02  0.11464836433E+03  0.12070474883E+03  0.00000000000E+00 0.  1.
<scales pt_clust_5="13000.00000" pt_clust_6="13000.00000" pt_clust_7="13000.00000" pt_clust_8="13000.00000" pt_clust_9="37.75432"></scales>
<clustering>
<clus scale="   37.754">  1  9  2 -1</clus>
<clus scale="   79.692">  5  6 -1 -1</clus>
<clus scale="   80.973">  2  5  1 -1</clus>
<clus scale="   87.770">  7  8 -1 -1</clus>
<clus scale="   80.973">  2  5  1 -1</clus>
</clustering>
</event>
<event>
 9    2  0.6066854E-005  0.9413821E+02  0.7546771E-02  0.1298354E+00
          2   -1    0    0  502    0  0.00000000000E+00  0.00000000000E+00  0.22179708452E+03  0.22179708452E+03  0.00000000000E+00 0. -1.
         -1   -1    0    0    0  501 -0.00000000000E+00 -0.00000000000E+00 -0.49982760451E+02  0.49982760451E+02  0.00000000000E+00 0.  1.
         23    2    1    2    0    0  0.50990545352E+01 -0.12782154463E+02  0.54880823730E+02  0.10602902867E+03  0.89670877537E+02 0.  0.
         24    2    1    2    0    0 -0.50634004666E+01  0.38075165375E+02  0.10506041762E+03  0.13780966805E+03  0.80488862679E+02 0.  0.
        -13    1    4    4    0    0  0.18374525713E+02 -0.10757104420E+02  0.20042515553E+01  0.21385871855E+02  0.00000000000E+00 0.  1.
         14    1    4    4    0    0 -0.23437926180E+02  0.48832269795E+02  0.10305616606E+03  0.11642379620E+03  0.00000000000E+00 0. -1.
        -11    1    3    3    0    0  0.20894537138E+02  0.56152889290E+01  0.72755786671E+02  0.75904661557E+02  0.00000000000E+00 0. -1.
         11    1    3    3    0    0 -0.15795482603E+02 -0.18397443392E+02 -0.17874962941E+02  0.30124367116E+02  0.00000000000E+00 0.  1.
         21    1    1    2  502  501 -0.35654068549E-01 -0.25293010912E+02  0.11873082725E+02  0.27941148251E+02  0.00000000000E+00 0.  1.
<scales pt_clust_5="13000.00000" pt_clust_6="13000.00000" pt_clust_7="13000.00000" pt_clust_8="13000.00000" pt_clust_9="25.29304"></scales>
<clustering>
<clus scale="   25.293">  2  9  1 -1</clus>
<clus scale="   80.489">  5  6 -1 -1</clus>
<clus scale="   85.438">  1  5  2 -1</clus>
<clus scale="   89.671">  7  8 -1 -1</clus>
<clus scale="   85.438">  1  5  2 -1</clus>
</clustering>
</event>
<event>
 9    2  0.6066854E-005  0.1011879E+03  0.7546771E-02  0.1285863E+00
          2   -1    0    0  502    0  0.00000000000E+00  0.00000000000E+00  0.44201917127E+03  0.44201917127E+03  0.00000000000E+00 0. -1.
         -1   -1    0    0    0  501 -0.00000000000E+00 -0.00000000000E+00 -0.28953869791E+02  0.28953869791E+02  0.00000000000E+00 0.  1.
         23    2    1    2    0    0  0.53021886371E+02  0.33857834842E+01  0.16117790288E+03  0.19450320718E+03  0.95028402393E+02 0.  0.
         24    2    1    2    0    0 -0.25573555615E+02 -0.53257384103E+01  0.21253377966E+03  0.22845023778E+03  0.79602345500E+02 0.  0.
        -13    1    4    4    0    0 -0.41986526512E+01  0.25753803463E+02  0.21739795831E+02  0.33963300777E+02  0.00000000000E+00 0.  1.
         14    1    4    4    0    0 -0.21374902964E+02 -0.31079541873E+02  0.19079398383E+03  0.19448693700E+03  0.00000000000E+00 0. -1.
        -13    1    3    3    0    0  0.67212576556E+01 -0.22364585427E+02  0.13194125504E+03  0.13399195785E+03  0.00000000000E+00 0. -1.
         13    1    3    3    0    0  0.46300628715E+02  0.25750368911E+02  0.29236647835E+02  0.60511249327E+02  0.00000000000E+00 0.  1.
         21    1    1    2  502  501 -0.27448330756E+02  0.19399549261E+01  0.39353618948E+02  0.48019596112E+02  0.00000000000E+00 0.  1.
<scales pt_clust_5="13000.00000" pt_clust_6="13000.00000" pt_clust_7="13000.00000" pt_clust_8="13000.00000" pt_clust_9="27.51680"></scales>
<clustering>
<clus scale="   27.517">  2  9  1 -1</clus>
<clus scale="   79.602">  5  6 -1 -1</clus>
<clus scale="   86.863">  1  5  2 -1</clus>
<clus scale="   95.028">  7  8 -1 -1</clus>
<clus scale="   86.863">  1  5  2 -1</clus>
</clustering>
</event>
<event>
 9    2  0.6066854E-005  0.9574660E+02  0.7546771E-02  0.1296912E+00
          2   -1    0    0  502    0  0.00000000000E+00  0.00000000000E+00  0.53744695604E+03  0.53744695604E+03  0.00000000000E+00 0. -1.
         -1   -1    0    0    0  501 -0.00000000000E+00 -0.00000000000E+00 -0.81439670484E+02  0.81439670484E+02  0.00000000000E+00 0.  1.
         23    2    1    2    0    0  0.16625999257E+02 -0.41908251610E+02  0.23796381757E+03  0.25890721991E+03  0.91506527888E+02 0.  0.
         24    2    1    2    0    0 -0.32722041168E+01  0.18918807628E+02  0.28060178485E+03  0.29200601927E+03  0.78495382206E+02 0.  0.
        -13    1    4    4    0    0 -0.26233149154E+02  0.73721742132E+01  0.31790089973E+02  0.41870477519E+02  0.00000000000E+00 0.  1.
         14    1    4    4    0    0  0.22960945037E+02  0.11546633415E+02  0.24881169487E+03  0.25013554175E+03  0.00000000000E+00 0. -1.
        -13    1    3    3    0    0  0.54439461937E+02 -0.30413737715E+02  0.13922487337E+03  0.15255233798E+03  0.00000000000E+00 0.  1.
         13    1    3    3    0    0 -0.37813462680E+02 -0.11494513895E+02  0.98738944193E+02  0.10635488193E+03  0.00000000000E+00 0. -1.
         21    1    1    2  502  501 -0.13353795140E+02  0.22989443982E+02 -0.62558316858E+02  0.67973387347E+02  0.00000000000E+00 0.  1.
<scales pt_clust_5="13000.00000" pt_clust_6="13000.00000" pt_clust_7="13000.00000" pt_clust_8="13000.00000" pt_clust_9="26.58643"></scales>
<clustering>
<clus scale="   26.586">  2  9  1 -1</clus>
<clus scale="   78.495">  5  6 -1 -1</clus>
<clus scale="   83.400">  1  5  2 -1</clus>
<clus scale="   91.507">  7  8 -1 -1</clus>
<clus scale="   83.400">  1  5  2 -1</clus>
</clustering>
</event>
<event>
 9    2  0.6066854E-005  0.9717752E+02  0.7546771E-02  0.1292302E+00
         -1   -1    0    0    0  501 -0.00000000000E+00  0.00000000000E+00  0.22001016070E+02  0.22001016070E+02  0.00000000000E+00 0.  1.
          2   -1    0    0  502    0  0.00000000000E+00 -0.00000000000E+00 -0.89807491897E+03  0.89807491897E+03  0.00000000000E+00 0. -1.
         23    2    1    2    0    0 -0.14015217683E+02  0.55615343982E+02 -0.15792972644E+03  0.19087163736E+03  0.90557664745E+02 0.  0.
         24    2    1    2    0    0  0.17352943856E+02 -0.26708791157E+02 -0.64217221405E+03  0.64785032860E+03  0.79438099049E+02 0.  0.
        -13    1    4    4    0    0  0.25461305662E+02  0.54451008850E+01 -0.69471792315E+02  0.74190680932E+02  0.00000000000E+00 0.  1.
         14    1    4    4    0    0 -0.81083618056E+01 -0.32153892042E+02 -0.57270042174E+03  0.57365964767E+03  0.00000000000E+00 0. -1.
        -11    1    3    3    0    0  0.38674522508E+02  0.24531303060E+02 -0.73686269050E+02  0.86759263295E+02  0.00000000000E+00 0. -1.
         11    1    3    3    0    0 -0.52689740191E+02  0.31084040922E+02 -0.84243457388E+02  0.10411237407E+03  0.00000000000E+00 0.  1.
         21    1    1    2  502  501 -0.33377261728E+01 -0.28906552825E+02 -0.75971962408E+02  0.81353969076E+02  0.00000000000E+00 0.  1.
<scales pt_clust_5="13000.00000" pt_clust_6="13000.00000" pt_clust_7="13000.00000" pt_clust_8="13000.00000" pt_clust_9="29.09861"></scales>
<clustering>
<clus scale="   29.099">  1  9  2 -1</clus>
<clus scale="   79.438">  5  6 -1 -1</clus>
<clus scale="   86.909">  2  5  1 -1</clus>
<clus scale="   90.558">  7  8 -1 -1</clus>
<clus scale="   86.909">  2  5  1 -1</clus>
</clustering>
</event>
<event>
 9    2  0.6066854E-005  0.1072243E+03  0.7546771E-02  0.1273476E+00
          2   -1    0    0  502    0  0.00000000000E+00  0.00000000000E+00  0.34656070021E+03  0.34656070021E+03  0.00000000000E+00 0. -1.
         -1   -1    0    0    0  501 -0.00000000000E+00 -0.00000000000E+00 -0.15477915236E+03  0.15477915236E+03  0.00000000000E+00 0.  1.
         23    2    1    2    0    0 -0.25497799047E+02 -0.88229067550E+01 -0.11793120745E+03  0.15472755218E+03  0.96461724389E+02 0.  0.
         24    2    1    2    0    0  0.45471785372E+02  0.14756067927E+02  0.31209974231E+03  0.32563945514E+03  0.79683001890E+02 0.  0.
        -11    1    4    4    0    0  0.33160631768E+02  0.27958840401E+02  0.66612076847E+02  0.79488949154E+02  0.00000000000E+00 0.  1.
         12    1    4    4    0    0  0.12311153604E+02 -0.13202772473E+02  0.24548766546E+03  0.24615050598E+03  0.00000000000E+00 0. -1.
        -11    1    3    3    0    0 -0.99252287189E+01 -0.33544704567E+02 -0.12042552427E+03  0.12540360548E+03  0.00000000000E+00 0.  1.
         11    1    3    3    0    0 -0.15572570328E+02  0.24721797812E+02  0.24943168247E+01  0.29323946701E+02  0.00000000000E+00 0. -1.
         21    1    1    2  502  501 -0.19973986325E+02 -0.59331611722E+01 -0.23869870009E+01  0.20972845257E+02  0.00000000000E+00 0.  1.
<scales pt_clust_5="13000.00000" pt_clust_6="13000.00000" pt_clust_7="13000.00000" pt_clust_8="13000.00000" pt_clust_9="20.83657"></scales>
<clustering>
<clus scale="   20.837">  2  9  1 -1</clus>
<clus scale="   79.683">  5  6 -1 -1</clus>
<clus scale="   92.421">  1  5  2 -1</clus>
<clus scale="   96.462">  7  8 -1 -1</clus>
<clus scale="   92.421">  1  5  2 -1</clus>
</clustering>
</event>
<event>
 9    2  0.6066854E-005  0.1041543E+03  0.7546771E-02  0.1276461E+00
         -1   -1    0    0    0  501 -0.00000000000E+00  0.00000000000E+00  0.13686084525E+03  0.13686084525E+03  0.00000000000E+00 0.  1.
          2   -1    0    0  502    0  0.00000000000E+00 -0.00000000000E+00 -0.10049757259E+04  0.10049757259E+04  0.00000000000E+00 0. -1.
         23    2    1    2    0    0 -0.88513849308E+02  0.63929573149E+02  0.76284527818E+02  0.16111676531E+03  0.90650929600E+02 0.  0.
         24    2    1    2    0    0  0.29349602480E+02 -0.40707353874E+02 -0.89560613587E+03  0.90059201400E+03  0.80231772099E+02 0.  0.
        -13    1    4    4    0    0  0.20452475378E+02 -0.13136834257E+02 -0.63682065372E+02  0.68163667840E+02  0.00000000000E+00 0.  1.
         14    1    4    4    0    0  0.88971271021E+01 -0.27570519617E+02 -0.83192407050E+03  0.83242834617E+03  0.00000000000E+00 0. -1.
        -11    1    3    3    0    0 -0.26506051728E+02 -0.23005732612E+02  0.20354568502E+02  0.40572687490E+02  0.00000000000E+00 0. -1.
         11    1    3    3    0    0 -0.62007797580E+02  0.86935305761E+02  0.55929959316E+02  0.12054407782E+03  0.00000000000E+00 0.  1.
         21    1    1    2  502  501  0.59164246828E+02 -0.23222219276E+02 -0.48793272554E+02  0.80127791791E+02  0.00000000000E+00 0. -1.
<scales pt_clust_5="13000.00000" pt_clust_6="13000.00000" pt_clust_7="13000.00000" pt_clust_8="13000.00000" pt_clust_9="63.55847"></scales>
<clustering>
<clus scale="   63.558">  1  9  2 -1</clus>
<clus scale="   80.232">  5  6 -1 -1</clus>
<clus scale="   90.651">  7  8 -1 -1</clus>
<clus scale="   95.224">  2  5  1 -1</clus>
<clus scale="   95.224">  2  5  1 -1</clus>
</clustering>
</event>
<event>
 9    2  0.6066854E-005  0.9230655E+02  0.7546771E-02  0.1298809E+00
         -1   -1    0    0    0  501 -0.00000000000E+00  0.00000000000E+00  0.32394456242E+03  0.32394456242E+03  0.00000000000E+00 0.  1.
          2   -1    0    0  502    0  0.00000000000E+00 -0.00000000000E+00 -0.83684676816E+02  0.83684676816E+02  0.00000000000E+00 0. -1.
         24    2    1    2    0    0 -0.26274672589E+02  0.49547365454E+02  0.35778555314E+02  0.10898790630E+03  0.86330521000E+02 0.  0.
         23    2    1    2    0    0 -0.49760869913E+02 -0.11741335890E+02  0.26766226612E+02  0.10168103828E+03  0.83717378817E+02 0.  0.
        -13    1    3    3    0    0  0.31939217131E+02  0.15527098999E+02  0.13015053104E+02  0.37823220402E+02  0.00000000000E+00 0.  1.
         14    1    3    3    0    0 -0.58213889720E+02  0.34020266455E+02  0.22763502210E+02  0.71164685897E+02  0.00000000000E+00 0. -1.
        -11    1    4    4    0    0 -0.17642209700E+02  0.34577206950E+02  0.23157367676E+02  0.45200602665E+02  0.00000000000E+00 0. -1.
         11    1    4    4    0    0 -0.32118660213E+02 -0.46318542840E+02  0.36088589359E+01  0.56480435617E+02  0.00000000000E+00 0.  1.
         21    1    1    2  502  501  0.76035542502E+02 -0.37806029564E+02  0.17771510368E+03  0.19696029465E+03  0.00000000000E+00 0.  1.
<scales pt_clust_5="13000.00000" pt_clust_6="13000.00000" pt_clust_7="13000.00000" pt_clust_8="13000.00000" pt_clust_9="84.91584"></scales>
<clustering>
<clus scale="   83.717">  7  8 -1 -1</clus>
<clus scale="   84.916">  1  9  2 -1</clus>
<clus scale="   86.331">  5  6 -1 -1</clus>
<clus scale="   89.867">  2  7  1 -1</clus>
<clus scale="   89.867">  2  5  1 -1</clus>
</clustering>
</event>
<event>
 9    2  0.6066854E-005  0.1040653E+03  0.7546771E-02  0.1274749E+00
          2   -1    0    0  502    0  0.00000000000E+00  0.00000000000E+00  0.52095369434E+02  0.52095369434E+02  0.00000000000E+00 0. -1.
         -1   -1    0    0    0  501 -0.00000000000E+00 -0.00000000000E+00 -0.47526898589E+03  0.47526898589E+03  0.00000000000E+00 0.  1.
         24    2    1    2    0    0  0.14088340153E+02  0.41380842917E+02 -0.28451093710E+03  0.29865332863E+03  0.79602021862E+02 0.  0.
         23    2    1    2    0    0 -0.52658111058E+01 -0.71960861459E+02 -0.17816092203E+02  0.10374354220E+03  0.72382422305E+02 0.  0.
        -13    1    3    3    0    0  0.38936898578E+02  0.56445291467E+01 -0.19729257483E+03  0.20117729211E+03  0.00000000000E+00 0.  1.
         14    1    3    3    0    0 -0.24848558426E+02  0.35736313770E+02 -0.87218362268E+02  0.97476036514E+02  0.00000000000E+00 0. -1.
        -11    1    4    4    0    0 -0.29920339279E+02 -0.27175337697E+02  0.14865954298E+02  0.43066486724E+02  0.00000000000E+00 0. -1.
         11    1    4    4    0    0  0.24654528173E+02 -0.44785523762E+02 -0.32682046501E+02  0.60677055479E+02  0.00000000000E+00 0.  1.
         21    1    1    2  502  501 -0.88225290469E+01  0.30580018543E+02 -0.12084658716E+03  0.12496748449E+03  0.00000000000E+00 0.  1.
<scales pt_clust_5="13000.00000" pt_clust_6="13000.00000" pt_clust_7="13000.00000" pt_clust_8="13000.00000" pt_clust_9="31.82726"></scales>
<clustering>
<clus scale="   31.827">  2  9  1 -1</clus>
<clus scale="   72.382">  7  8 -1 -1</clus>
<clus scale="   79.602">  5  6 -1 -1</clus>
<clus scale="   98.652">  1  7  2 -1</clus>
<clus scale="   98.652">  1  5  2 -1</clus>
</clustering>
</event>
<event>
 9    2  0.6066854E-005  0.9597870E+02  0.7546771E-02  0.1298062E+00
          2   -1    0    0  502    0  0.00000000000E+00  0.00000000000E+00  0.55713922253E+03  0.55713922253E+03  0.00000000000E+00 0. -1.
         -1   -1    0    0    0  501 -0.00000000000E+00 -0.00000000000E+00 -0.23884157235E+02  0.23884157235E+02  0.00000000000E+00 0.  1.
         23    2    1    2    0    0 -0.91133690202E+01 -0.54197997303E+02  0.18114632655E+03  0.21027409121E+03  0.91546301971E+02 0.  0.
         24    2    1    2    0    0  0.36002539801E+01  0.18573888835E+02  0.27028581340E+03  0.28133752952E+03  0.75752448260E+02 0.  0.
        -11    1    4    4    0    0 -0.18322703256E+01 -0.29255385565E+02  0.85518956536E+02  0.90403134493E+02  0.00000000000E+00 0.  1.
         12    1    4    4    0    0  0.54325243057E+01  0.47829274400E+02  0.18476685686E+03  0.19093439503E+03  0.00000000000E+00 0. -1.
        -11    1    3    3    0    0  0.21316266896E+02 -0.18810549109E+01  0.12785362359E+03  0.12963205879E+03  0.00000000000E+00 0. -1.
         11    1    3    3    0    0 -0.30429635917E+02 -0.52316942392E+02  0.53292702960E+02  0.80642032415E+02  0.00000000000E+00 0.  1.
         21    1    1    2  502  501  0.55131150401E+01  0.35624108468E+02  0.81822925344E+02  0.89411759033E+02  0.00000000000E+00 0. -1.
<scales pt_clust_5="13000.00000" pt_clust_6="13000.00000" pt_clust_7="13000.00000" pt_clust_8="13000.00000" pt_clust_9="36.04818"></scales>
<clustering>
<clus scale="   36.048">  2  9  1 -1</clus>
<clus scale="   75.752">  5  6 -1 -1</clus>
<clus scale="   81.053">  1  5  2 -1</clus>
<clus scale="   91.546">  7  8 -1 -1</clus>
<clus scale="   81.053">  1  5  2 -1</clus>
</clustering>
</event>
<event>
 9    2  0.6066854E-005  0.9796269E+02  0.7546771E-02  0.1289705E+00
          2   -1    0    0  502    0  0.00000000000E+00  0.00000000000E+00  0.37627536640E+03  0.37627536640E+03  0.00000000000E+00 0. -1.
         -1   -1    0    0    0  501 -0.00000000000E+00 -0.00000000000E+00 -0.11188662883E+03  0.11188662883E+03  0.00000000000E+00 0.  1.
         23    2    1    2    0    0 -0.12706834764E+02 -0.50879333279E+02 -0.50682316990E+02  0.11591530490E+03  0.90097116765E+02 0.  0.
         24    2    1    2    0    0  0.33352348608E+02  0.19262764954E+02  0.32179044502E+03  0.33389313974E+03  0.80324996013E+02 0.  0.
        -13    1    4    4    0    0  0.23013850207E+02 -0.26754829056E+02  0.78426681962E+02  0.86001178031E+02  0.00000000000E+00 0.  1.
         14    1    4    4    0    0  0.10338498401E+02  0.46017594010E+02  0.24336376306E+03  0.24789196170E+03  0.00000000000E+00 0. -1.
        -11    1    3    3    0    0 -0.46618234043E+02 -0.39293565054E+02 -0.51886649476E+02  0.80059155590E+02  0.00000000000E+00 0.  1.
         11    1    3    3    0    0  0.33911399279E+02 -0.11585768225E+02  0.12043324862E+01  0.35856149307E+02  0.00000000000E+00 0. -1.
         21    1    1    2  502  501 -0.20645513845E+02  0.31616568325E+02 -0.67193904625E+01  0.38353550588E+02  0.00000000000E+00 0. -1.
<scales pt_clust_5="13000.00000" pt_clust_6="13000.00000" pt_clust_7="13000.00000" pt_clust_8="13000.00000" pt_clust_9="37.76036"></scales>
<clustering>
<clus scale="   37.760">  2  9  1 -1</clus>
<clus scale="   80.325">  5  6 -1 -1</clus>
<clus scale="   89.058">  1  5  2 -1</clus>
<clus scale="   90.097">  7  8 -1 -1</clus>
<clus scale="   89.058">  1  5  2 -1</clus>
</clustering>
</event>
<event>
 9    2  0.6066854E-005  0.1205850E+03  0.7546771E-02  0.1248326E+00
         -1   -1    0    0    0  501 -0.00000000000E+00  0.00000000000E+00  0.19380331023E+03  0.19380331023E+03  0.00000000000E+00 0.  1.
          2   -1    0    0  502    0  0.00000000000E+00 -0.00000000000E+00 -0.33111895049E+03  0.33111895049E+03  0.00000000000E+00 0. -1.
         23    2    1    2    0    0  0.64703917215E+02  0.38579124056E+02  0.12849766471E+03  0.17473282811E+03  0.91350783623E+02 0.  0.
         24    2    1    2    0    0 -0.93801164151E+01  0.68085257485E+02 -0.10582400054E+03  0.15010297440E+03  0.81293265183E+02 0.  0.
        -13    1    4    4    0    0  0.14079499222E+02  0.76701293597E+02 -0.94893329372E+02  0.12282534224E+03  0.00000000000E+00 0.  1.
         14    1    4    4    0    0 -0.23459615637E+02 -0.86160361121E+01 -0.10930671166E+02  0.27277632160E+02  0.00000000000E+00 0. -1.
        -11    1    3    3    0    0  0.57210666251E+02  0.12224760834E+02  0.13451048616E+03  0.14668188708E+03  0.00000000000E+00 0.  1.
         11    1    3    3    0    0  0.74932509632E+01  0.26354363222E+02 -0.60128214537E+01  0.28050941030E+02  0.00000000000E+00 0. -1.
         21    1    1    2  502  501 -0.55323800799E+02 -0.10666438154E+03 -0.15998930444E+03  0.20008645821E+03  0.00000000000E+00 0. -1.
<scales pt_clust_5="13000.00000" pt_clust_6="13000.00000" pt_clust_7="13000.00000" pt_clust_8="13000.00000" pt_clust_9="78.71323"></scales>
<clustering>
<clus scale="   81.293">  5  6 -1 -1</clus>
<clus scale="   91.351">  7  8 -1 -1</clus>
<clus scale="  106.453">  2  5  1 -1</clus>
<clus scale="   78.713">  2  9  1 -1</clus>
<clus scale="  106.453">  2  5  1 -1</clus>
</clustering>
</event>
<event>
 9    2  0.6066854E-005  0.1287590E+03  0.7546771E-02  0.1239044E+00
         -1   -1    0    0    0  501 -0.00000000000E+00  0.00000000000E+00  0.62189009495E+02  0.62189009495E+02  0.00000000000E+00 0.  1.
          2   -1    0    0  502    0  0.00000000000E+00 -0.00000000000E+00 -0.98398435287E+03  0.98398435287E+03  0.00000000000E+00 0. -1.
         23    2    1    2    0    0 -0.18674566422E+02  0.87656632478E+02 -0.38456432886E+02  0.13387706661E+03  0.91715577116E+02 0.  0.
         24    2    1    2    0    0  0.66125703855E+02  0.12105407012E+02 -0.57904300374E+03  0.58856790060E+03  0.81254069694E+02 0.  0.
        -11    1    4    4    0    0 -0.10568447745E+01 -0.25337738126E+02 -0.89639923237E+02  0.93158111467E+02  0.00000000000E+00 0.  1.
         12    1    4    4    0    0  0.67182548630E+02  0.37443145138E+02 -0.48940308051E+03  0.49540978913E+03  0.00000000000E+00 0. -1.
        -13    1    3    3    0    0  0.12772497071E+02  0.16542034041E+02 -0.50998581179E+02  0.55114706331E+02  0.00000000000E+00 0. -1.
         13    1    3    3    0    0 -0.31447063494E+02  0.71114598437E+02  0.12542148293E+02  0.78762360281E+02  0.00000000000E+00 0.  1.
         21    1    1    2  502  501 -0.47451137433E+02 -0.99762039490E+02 -0.30429590674E+03  0.32372839515E+03  0.00000000000E+00 0. -1.
<scales pt_clust_5="13000.00000" pt_clust_6="13000.00000" pt_clust_7="13000.00000" pt_clust_8="13000.00000" pt_clust_9="90.37213"></scales>
<clustering>
<clus scale="   81.254">  5  6 -1 -1</clus>
<clus scale="   91.716">  7  8 -1 -1</clus>
<clus scale="  105.458">  2  5  1 -1</clus>
<clus scale="   90.372">  2  9  1 -1</clus>
<clus scale="  105.458">  2  5  1 -1</clus>
</clustering>
</event>
<event>
 9    2  0.6066854E-005  0.1129143E+03  0.7546771E-02  0.1260228E+00
         -1   -1    0    0    0  501 -0.00000000000E+00  0.00000000000E+00  0.19116556174E+02  0.19116556174E+02  0.00000000000E+00 0.  1.
          2   -1    0    0  502    0  0.00000000000E+00 -0.00000000000E+00 -0.11202277213E+04  0.11202277213E+04  0.00000000000E+00 0. -1.
         23    2    1    2    0    0 -0.36374164725E+00 -0.60196574794E+02 -0.21951548200E+03  0.24638055428E+03  0.94300428229E+02 0.  0.
         24    2    1    2    0    0  0.24298150614E+02  0.58595662305E+02 -0.82589578875E+03  0.83231805487E+03  0.81398027131E+02 0.  0.
        -13    1    4    4    0    0 -0.20836026359E+02  0.47411471183E+02 -0.30644119684E+03  0.31078641334E+03  0.00000000000E+00 0.  1.
         14    1    4    4    0    0  0.45134176972E+02  0.11184191122E+02 -0.51945459191E+03  0.52153164153E+03  0.00000000000E+00 0. -1.
        -11    1    3    3    0    0 -0.80163378746E+01 -0.84155628106E+02 -0.14633013065E+03  0.16899390092E+03  0.00000000000E+00 0.  1.
         11    1    3    3    0    0  0.76525962274E+01  0.23959053312E+02 -0.73185351356E+02  0.77386653356E+02  0.00000000000E+00 0. -1.
         21    1    1    2  502  501 -0.23934408966E+02  0.16009124885E+01 -0.55699894386E+02  0.60645668336E+02  0.00000000000E+00 0.  1.
<scales pt_clust_5="13000.00000" pt_clust_6="13000.00000" pt_clust_7="13000.00000" pt_clust_8="13000.00000" pt_clust_9="23.98789"></scales>
<clustering>
<clus scale="   23.988">  1  9  2 -1</clus>
<clus scale="   81.398">  5  6 -1 -1</clus>
<clus scale="   94.300">  7  8 -1 -1</clus>
<clus scale="  102.385">  2  5  1 -1</clus>
<clus scale="  102.385">  2  5  1 -1</clus>
</clustering>
</event>
<event>
 9    2  0.6066854E-005  0.1108013E+03  0.7546771E-02  0.1262229E+00
          2   -1    0    0  502    0  0.00000000000E+00  0.00000000000E+00  0.84269494418E+03  0.84269494418E+03  0.00000000000E+00 0. -1.
         -1   -1    0    0    0  501 -0.00000000000E+00 -0.00000000000E+00 -0.25839213712E+02  0.25839213712E+02  0.00000000000E+00 0.  1.
         23    2    1    2    0    0  0.42762068924E+02 -0.22588514542E+02  0.16383447972E+03  0.19268864308E+03  0.89153468239E+02 0.  0.
         24    2    1    2    0    0 -0.67834398894E+02  0.22412762443E+02  0.63706001648E+03  0.64612324003E+03  0.80783284877E+02 0.  0.
        -11    1    4    4    0    0 -0.52532321042E+02 -0.12552787812E+02  0.19267429015E+03  0.20010147256E+03  0.00000000000E+00 0.  1.
         12    1    4    4    0    0 -0.15302077853E+02  0.34965550255E+02  0.44438572632E+03  0.44602176746E+03  0.00000000000E+00 0. -1.
        -13    1    3    3    0    0  0.59660315546E+02 -0.38762496767E+02  0.87080751506E+02  0.11244972961E+03  0.00000000000E+00 0.  1.
         13    1    3    3    0    0 -0.16898246622E+02  0.16173982225E+02  0.76753728215E+02  0.80238913470E+02  0.00000000000E+00 0. -1.
         21    1    1    2  502  501  0.25072329971E+02  0.17575209916E+00  0.15961234270E+02  0.29722274784E+02  0.00000000000E+00 0. -1.
<scales pt_clust_5="13000.00000" pt_clust_6="13000.00000" pt_clust_7="13000.00000" pt_clust_8="13000.00000" pt_clust_9="25.07295"></scales>
<clustering>
<clus scale="   25.073">  2  9  1 -1</clus>
<clus scale="   80.783">  5  6 -1 -1</clus>
<clus scale="   89.153">  7  8 -1 -1</clus>
<clus scale="  104.185">  1  5  2 -1</clus>
<clus scale="  104.185">  1  5  2 -1</clus>
</clustering>
</event>
<event>
 9    2  0.6066854E-005  0.1514511E+03  0.7546771E-02  0.1200460E+00
         -1   -1    0    0    0  501 -0.00000000000E+00  0.00000000000E+00  0.16215052582E+03  0.16215052582E+03  0.00000000000E+00 0.  1.
          2   -1    0    0  502    0  0.00000000000E+00 -0.00000000000E+00 -0.44138515099E+03  0.44138515099E+03  0.00000000000E+00 0. -1.
         24    2    1    2    0    0  0.19447033455E+02  0.11053384266E+03 -0.12488338967E+03  0.18639728751E+03  0.80945477272E+02 0.  0.
         23    2    1    2    0    0 -0.52897417856E+02 -0.11786470801E+03 -0.26104578134E+03  0.30508306406E+03  0.90777474122E+02 0.  0.
        -13    1    3    3    0    0 -0.89502870544E+01  0.10915820097E+03 -0.10481301156E+03  0.15159613408E+03  0.00000000000E+00 0.  1.
         14    1    3    3    0    0  0.28397320509E+02  0.13756416943E+01 -0.20070378114E+02  0.34801153427E+02  0.00000000000E+00 0. -1.
        -13    1    4    4    0    0 -0.50984784504E+02 -0.57382488419E+02 -0.21717326870E+03  0.23033980738E+03  0.00000000000E+00 0.  1.
         13    1    4    4    0    0 -0.19126333518E+01 -0.60482219587E+02 -0.43872512646E+02  0.74743256675E+02  0.00000000000E+00 0. -1.
         21    1    1    2  502  501  0.33450384401E+02  0.73308653460E+01  0.10669454585E+03  0.11205532525E+03  0.00000000000E+00 0.  1.
<scales pt_clust_5="13000.00000" pt_clust_6="13000.00000" pt_clust_7="13000.00000" pt_clust_8="13000.00000" pt_clust_9="34.24427"></scales>
<clustering>
<clus scale="   34.244">  1  9  2 -1</clus>
<clus scale="   80.945">  5  6 -1 -1</clus>
<clus scale="   90.777">  7  8 -1 -1</clus>
<clus scale="  145.771">  1  5  2 -1</clus>
<clus scale="  151.451">  2  5  1 -1</clus>
</clustering>
</event>
<event>
 9    2  0.6066854E-005  0.9229126E+02  0.7546771E-02  0.1303088E+00
          2   -1    0    0  502    0  0.00000000000E+00  0.00000000000E+00  0.18695559274E+03  0.18695559274E+03  0.00000000000E+00 0. -1.
         -1   -1    0    0    0  501 -0.00000000000E+00 -0.00000000000E+00 -0.10071061681E+03  0.10071061681E+03  0.00000000000E+00 0.  1.
         23    2    1    2    0    0 -0.57257599033E+01  0.87836997359E+01 -0.53353875455E+02  0.10675241472E+03  0.91866774821E+02 0.  0.
         24    2    1    2    0    0 -0.18208846950E+02 -0.77812495901E+01  0.12956676882E+03  0.15494240688E+03  0.82628638585E+02 0.  0.
        -13    1    4    4    0    0  0.81403016193E+01  0.28596054472E+02  0.18204365600E+02  0.34862555396E+02  0.00000000000E+00 0.  1.
         14    1    4    4    0    0 -0.26349148569E+02 -0.36377304062E+02  0.11136240322E+03  0.12007985148E+03  0.00000000000E+00 0. -1.
        -13    1    3    3    0    0  0.20011653368E+02 -0.26432521539E+02 -0.53726273924E+02  0.63132059804E+02  0.00000000000E+00 0. -1.
         13    1    3    3    0    0 -0.25737413271E+02  0.35216221275E+02  0.37239846872E+00  0.43620354920E+02  0.00000000000E+00 0.  1.
         21    1    1    2  502  501  0.23934606853E+02 -0.10024501458E+01  0.10032082560E+02  0.25971387949E+02  0.00000000000E+00 0.  1.
<scales pt_clust_5="13000.00000" pt_clust_6="13000.00000" pt_clust_7="13000.00000" pt_clust_8="13000.00000" pt_clust_9="23.95559"></scales>
<clustering>
<clus scale="   23.956">  1  9  2 -1</clus>
<clus scale="   82.629">  5  6 -1 -1</clus>
<clus scale="   83.100">  1  5  2 -1</clus>
<clus scale="   91.867">  7  8 -1 -1</clus>
<clus scale="   23.956">  1  5  2 -1</clus>
</clustering>
</event>
<event>
 9    2  0.7785047E-005  0.9847409E+02  0.7546771E-02  0.1288030E+00
         -1   -1    0    0    0  501 -0.00000000000E+00  0.00000000000E+00  0.12523831370E+03  0.12523831370E+03  0.00000000000E+00 0.  1.
          2   -1    0    0  502    0  0.00000000000E+00 -0.00000000000E+00 -0.71014310302E+03  0.71014310302E+03  0.00000000000E+00 0. -1.
         23    2    1    2    0    0 -0.29700474758E+02 -0.45970366829E+02  0.92409587612E+02  0.14016265102E+03  0.90059114089E+02 0.  0.
         24    2    1    2    0    0  0.31181855260E+02  0.24273950259E+02 -0.66312937879E+03  0.66925449886E+03  0.81237174180E+02 0.  0.
        -11    1    4    4    0    0 -0.10400243468E+02 -0.18739867313E+02 -0.72465445614E+02  0.75568435866E+02  0.00000000000E+00 0.  1.
         12    1    4    4    0    0  0.41582098728E+02  0.43013817573E+02 -0.59066393318E+03  0.59368606300E+03  0.00000000000E+00 0. -1.
        -11    1    3    3    0    0 -0.27535329639E+02  0.95600036951E+01  0.77240276809E+02  0.82556940414E+02  0.00000000000E+00 0.  1.
         11    1    3    3    0    0 -0.21651451191E+01 -0.55530370524E+02  0.15169310803E+02  0.57605710604E+02  0.00000000000E+00 0. -1.
         21    1    1    2  502  501 -0.14813805017E+01  0.21696416570E+02 -0.14184998145E+02  0.25964266840E+02  0.00000000000E+00 0.  1.
<scales pt_clust_5="13000.00000" pt_clust_6="13000.00000" pt_clust_7="13000.00000" pt_clust_8="13000.00000" pt_clust_9="21.74693"></scales>
<clustering>
<clus scale="   21.747">  1  9  2 -1</clus>
<clus scale="   81.237">  5  6 -1 -1</clus>
<clus scale="   90.059">  7  8 -1 -1</clus>
<clus scale="   90.476">  2  5  1 -1</clus>
<clus scale="   90.476">  2  5  1 -1</clus>
</clustering>
</event>
<event>
 9    2  0.6066854E-005  0.2017949E+03  0.7546771E-02  0.1149306E+00
         -1   -1    0    0    0  501 -0.00000000000E+00  0.00000000000E+00  0.65199924444E+03  0.65199924444E+03  0.00000000000E+00 0.  1.
          2   -1    0    0  502    0  0.00000000000E+00 -0.00000000000E+00 -0.33196530410E+03  0.33196530410E+03  0.00000000000E+00 0. -1.
         23    2    1    2    0    0  0.87931605058E+02 -0.15385300658E+03  0.55754267023E+03  0.59209228335E+03  0.91196096846E+02 0.  0.
         24    2    1    2    0    0 -0.87451050854E+02  0.21031236979E+03 -0.23279773155E+03  0.33521466083E+03  0.79341703010E+02 0.  0.
        -11    1    4    4    0    0 -0.47478010123E+02  0.51270712130E+02 -0.11011118631E+03  0.13041211875E+03  0.00000000000E+00 0.  1.
         12    1    4    4    0    0 -0.39973040731E+02  0.15904165766E+03 -0.12268654524E+03  0.20480254207E+03  0.00000000000E+00 0. -1.
        -11    1    3    3    0    0  0.10669925327E+03 -0.13095809944E+03  0.45428925481E+03  0.48467874050E+03  0.00000000000E+00 0.  1.
         11    1    3    3    0    0 -0.18767648216E+02 -0.22894907138E+02  0.10325341542E+03  0.10741354285E+03  0.00000000000E+00 0. -1.
         21    1    1    2  502  501 -0.48055420387E+00 -0.56459363212E+02 -0.47109983340E+01  0.56657604361E+02  0.00000000000E+00 0. -1.
<scales pt_clust_5="13000.00000" pt_clust_6="13000.00000" pt_clust_7="13000.00000" pt_clust_8="13000.00000" pt_clust_9="56.46141"></scales>
<clustering>
<clus scale="   56.461">  2  9  1 -1</clus>
<clus scale="   79.342">  5  6 -1 -1</clus>
<clus scale="   91.196">  7  8 -1 -1</clus>
<clus scale="  196.722">  2  5  1 -1</clus>
<clus scale="   56.461">  2  5  1 -1</clus>
</clustering>
</event>
<event>
 9    2  0.6066854E-005  0.1013091E+03  0.7546771E-02  0.1281631E+00
          2   -1    0    0  502    0  0.00000000000E+00  0.00000000000E+00  0.51275076687E+03  0.51275076687E+03  0.00000000000E+00 0. -1.
         -1   -1    0    0    0  501 -0.00000000000E+00 -0.00000000000E+00 -0.61255793865E+02  0.61255793865E+02  0.00000000000E+00 0.  1.
         23    2    1    2    0    0 -0.45974840502E+01  0.17310410379E+02  0.16922533535E+02  0.93678534656E+02  0.90379801654E+02 0.  0.
         24    2    1    2    0    0 -0.30713113911E+01 -0.49557356561E+02  0.43674455495E+03  0.44711065040E+03  0.81833751466E+02 0.  0.
        -13    1    4    4    0    0  0.28177974397E+02 -0.36198513782E+02  0.11870367960E+03  0.12725916153E+03  0.00000000000E+00 0.  1.
         14    1    4    4    0    0 -0.31249285788E+02 -0.13358842779E+02  0.31804087535E+03  0.31985148887E+03  0.00000000000E+00 0. -1.
        -11    1    3    3    0    0  0.18912111385E+02  0.39259634400E+02 -0.17143339642E+02  0.46828206717E+02  0.00000000000E+00 0.  1.
         11    1    3    3    0    0 -0.23509595435E+02 -0.21949224021E+02  0.34065873177E+02  0.46850327939E+02  0.00000000000E+00 0. -1.
         21    1    1    2  502  501  0.76687954413E+01  0.32246946182E+02 -0.21721154777E+01  0.33217375683E+02  0.00000000000E+00 0.  1.
<scales pt_clust_5="13000.00000" pt_clust_6="13000.00000" pt_clust_7="13000.00000" pt_clust_8="13000.00000" pt_clust_9="33.14628"></scales>
<clustering>
<clus scale="   33.146">  2  9  1 -1</clus>
<clus scale="   81.834">  5  6 -1 -1</clus>
<clus scale="   90.380">  7  8 -1 -1</clus>
<clus scale="   93.765">  1  5  2 -1</clus>
<clus scale="   93.765">  1  5  2 -1</clus>
</clustering>
</event>
<event>
 9    2  0.6066854E-005  0.1007737E+03  0.7546771E-02  0.1279469E+00
         -1   -1    0    0    0  501 -0.00000000000E+00  0.00000000000E+00  0.31171754016E+02  0.31171754016E+02  0.00000000000E+00 0.  1.
          2   -1    0    0  502    0  0.00000000000E+00 -0.00000000000E+00 -0.52449672254E+03  0.52449672254E+03  0.00000000000E+00 0. -1.
         24    2    1    2    0    0 -0.20439483620E+02  0.42268987745E+02 -0.91002241110E+02  0.13559872120E+03  0.88888500323E+02 0.  0.
         23    2    1    2    0    0 -0.13646958114E+01 -0.39540034770E+02 -0.32875430966E+03  0.34328966994E+03  0.90571102580E+02 0.  0.
        -13    1    3    3    0    0 -0.42546649149E+02 -0.30761814070E+01 -0.16745136697E+02  0.45826628164E+02  0.00000000000E+00 0.  1.
         14    1    3    3    0    0  0.22107165529E+02  0.45345169152E+02 -0.74257104413E+02  0.89772093041E+02  0.00000000000E+00 0. -1.
        -13    1    4    4    0    0 -0.37618961452E+02 -0.12246736848E+02 -0.68459581256E+02  0.79068850314E+02  0.00000000000E+00 0.  1.
         13    1    4    4    0    0  0.36254265641E+02 -0.27293297922E+02 -0.26029472841E+03  0.26422081963E+03  0.00000000000E+00 0. -1.
         21    1    1    2  502  501  0.21804179432E+02 -0.27289529744E+01 -0.73568417752E+02  0.76780085410E+02  0.00000000000E+00 0.  1.
<scales pt_clust_5="13000.00000" pt_clust_6="13000.00000" pt_clust_7="13000.00000" pt_clust_8="13000.00000" pt_clust_9="21.97429"></scales>
<clustering>
<clus scale="   21.974">  2  9  1 -1</clus>
<clus scale="   88.889">  5  6 -1 -1</clus>
<clus scale="   90.571">  7  8 -1 -1</clus>
<clus scale="   99.264">  1  5  2 -1</clus>
<clus scale="   21.974">  2  5  1 -1</clus>
</clustering>
</event>
<event>
 9    2  0.6066854E-005  0.9565845E+02  0.7546771E-02  0.1295354E+00
         -1   -1    0    0    0  501 -0.00000000000E+00  0.00000000000E+00  0.26246140263E+03  0.26246140263E+03  0.00000000000E+00 0.  1.
          2   -1    0    0  502    0  0.00000000000E+00 -0.00000000000E+00 -0.12298514651E+03  0.12298514651E+03  0.00000000000E+00 0. -1.
         23    2    1    2    0    0  0.18479099083E+02 -0.28318209710E+02  0.21064899446E+03  0.23179066284E+03  0.90611888897E+02 0.  0.
         24    2    1    2    0    0 -0.31160863219E+02  0.33575868670E+01 -0.86102217855E+02  0.12192657504E+03  0.80437708795E+02 0.  0.
        -11    1    4    4    0    0 -0.14114741907E+02  0.31944105188E+02 -0.81060890675E+02  0.88263921238E+02  0.00000000000E+00 0.  1.
         12    1    4    4    0    0 -0.17046121312E+02 -0.28586518321E+02 -0.50413271798E+01  0.33662653805E+02  0.00000000000E+00 0. -1.
        -13    1    3    3    0    0 -0.78990808140E+01 -0.32917840623E+02  0.20020960950E+03  0.20305139115E+03  0.00000000000E+00 0.  1.
         13    1    3    3    0    0  0.26378179897E+02  0.45996309125E+01  0.10439384954E+02  0.28739271692E+02  0.00000000000E+00 0. -1.
         21    1    1    2  502  501  0.12681764136E+02  0.24960622843E+02  0.14929479515E+02  0.31729311258E+02  0.00000000000E+00 0. -1.
<scales pt_clust_5="13000.00000" pt_clust_6="13000.00000" pt_clust_7="13000.00000" pt_clust_8="13000.00000" pt_clust_9="27.99750"></scales>
<clustering>
<clus scale="   27.997">  1  9  2 -1</clus>
<clus scale="   80.438">  5  6 -1 -1</clus>
<clus scale="   86.083">  2  5  1 -1</clus>
<clus scale="   90.612">  7  8 -1 -1</clus>
<clus scale="   86.083">  2  5  1 -1</clus>
</clustering>
</event>
<event>
 9    2  0.6066854E-005  0.1950171E+03  0.7546771E-02  0.1155700E+00
          2   -1    0    0  502    0  0.00000000000E+00  0.00000000000E+00  0.76767293032E+03  0.76767293032E+03  0.00000000000E+00 0. -1.
         -1   -1    0    0    0  501 -0.00000000000E+00 -0.00000000000E+00 -0.55536943644E+02  0.55536943644E+02  0.00000000000E+00 0.  1.
         24    2    1    2    0    0  0.11780419494E+03 -0.11229272917E+03  0.31824231075E+03  0.36636866174E+03  0.80376256340E+02 0.  0.
         23    2    1    2    0    0 -0.11485438238E+03  0.13413046771E+03  0.38196130253E+03  0.43178188754E+03  0.96740117097E+02 0.  0.
        -11    1    3    3    0    0  0.28705684865E+02  0.95843133416E+01  0.61062458218E+02  0.68150562796E+02  0.00000000000E+00 0.  1.
         12    1    3    3    0    0  0.89098510078E+02 -0.12187704251E+03  0.25717985253E+03  0.29821809895E+03  0.00000000000E+00 0. -1.
        -13    1    4    4    0    0 -0.62154886957E+02  0.26984169893E+02  0.68513720760E+02  0.96361326941E+02  0.00000000000E+00 0.  1.
         13    1    4    4    0    0 -0.52699495419E+02  0.10714629782E+03  0.31344758177E+03  0.33542056060E+03  0.00000000000E+00 0. -1.
         21    1    1    2  502  501 -0.29498125668E+01 -0.21837738544E+02  0.11932373399E+02  0.25059324688E+02  0.00000000000E+00 0. -1.
<scales pt_clust_5="13000.00000" pt_clust_6="13000.00000" pt_clust_7="13000.00000" pt_clust_8="13000.00000" pt_clust_9="22.03607"></scales>
<clustering>
<clus scale="   22.036">  2  9  1 -1</clus>
<clus scale="   80.376">  5  6 -1 -1</clus>
<clus scale="   96.740">  7  8 -1 -1</clus>
<clus scale="  187.439">  2  5  1 -1</clus>
<clus scale="  195.017">  1  5  2 -1</clus>
</clustering>
</event>
<event>
 9    2  0.6066854E-005  0.9290944E+02  0.7546771E-02  0.1300327E+00
          2   -1    0    0  502    0  0.00000000000E+00  0.00000000000E+00  0.70964262345E+02  0.70964262345E+02  0.00000000000E+00 0. -1.
         -1   -1    0    0    0  501 -0.00000000000E+00 -0.00000000000E+00 -0.50379861682E+03  0.50379861682E+03  0.00000000000E+00 0.  1.
         23    2    1    2    0    0 -0.25015418820E+02  0.32035488825E+02 -0.12354211137E+03  0.15774281222E+03  0.89264202235E+02 0.  0.
         24    2    1    2    0    0 -0.26551835252E+02  0.39933095288E+02  0.56681049232E+00  0.94760401637E+02  0.81728577559E+02 0.  0.
        -13    1    4    4    0    0 -0.43985573035E+02 -0.61817798329E+01  0.72620480510E+01  0.45007581350E+02  0.00000000000E+00 0.  1.
         14    1    4    4    0    0  0.17433737783E+02  0.46114875121E+02 -0.66952375587E+01  0.49752820287E+02  0.00000000000E+00 0. -1.
        -13    1    3    3    0    0 -0.23432041104E+02 -0.16053430018E+02 -0.10042127656E+03  0.10436094073E+03  0.00000000000E+00 0.  1.
         13    1    3    3    0    0 -0.15833777153E+01  0.48088918843E+02 -0.23120834818E+02  0.53381871484E+02  0.00000000000E+00 0. -1.
         21    1    1    2  502  501  0.51567254071E+02 -0.71968584113E+02 -0.30985905360E+03  0.32225966532E+03  0.00000000000E+00 0.  1.
<scales pt_clust_5="13000.00000" pt_clust_6="13000.00000" pt_clust_7="13000.00000" pt_clust_8="13000.00000" pt_clust_9="88.53620"></scales>
<clustering>
<clus scale="   81.729">  5  6 -1 -1</clus>
<clus scale="   88.536">  2  9  1 -1</clus>
<clus scale="   85.695">  1  5  2 -1</clus>
<clus scale="   89.264">  7  8 -1 -1</clus>
<clus scale="   85.695">  1  5  2 -1</clus>
</clustering>
</event>
<event>
 9    2  0.6066854E-005  0.9547404E+02  0.7546771E-02  0.1291420E+00
          2   -1    0    0  502    0  0.00000000000E+00  0.00000000000E+00  0.55926535759E+03  0.55926535759E+03  0.00000000000E+00 0. -1.
         -1   -1    0    0    0  501 -0.00000000000E+00 -0.00000000000E+00 -0.16813008541E+03  0.16813008541E+03  0.00000000000E+00 0.  1.
         23    2    1    2    0    0 -0.13110157198E+02 -0.36403740828E+02 -0.28585772907E+02  0.10349475955E+03  0.91634656507E+02 0.  0.
         24    2    1    2    0    0  0.46346069256E+01  0.14668004076E+02  0.51606207862E+03  0.52477514716E+03  0.93980083866E+02 0.  0.
        -13    1    4    4    0    0  0.55555255222E+01 -0.24537012107E+02  0.41042373492E+02  0.48139435486E+02  0.00000000000E+00 0.  1.
         14    1    4    4    0    0 -0.92091859653E+00  0.39205016183E+02  0.47501970512E+03  0.47663571167E+03  0.00000000000E+00 0. -1.
        -13    1    3    3    0    0  0.35768766424E+01 -0.55142226703E+02  0.11272569693E+02  0.56396188167E+02  0.00000000000E+00 0. -1.
         13    1    3    3    0    0 -0.16687033840E+02  0.18738485876E+02 -0.39858342600E+02  0.47098571381E+02  0.00000000000E+00 0.  1.
         21    1    1    2  502  501  0.84755502720E+01  0.21735736752E+02 -0.96341033526E+02  0.99125536293E+02  0.00000000000E+00 0.  1.
<scales pt_clust_5="13000.00000" pt_clust_6="13000.00000" pt_clust_7="13000.00000" pt_clust_8="13000.00000" pt_clust_9="23.32975"></scales>
<clustering>
<clus scale="   23.330">  2  9  1 -1</clus>
<clus scale="   91.635">  7  8 -1 -1</clus>
<clus scale="   93.166">  2  7  1 -1</clus>
<clus scale="   93.980">  5  6 -1 -1</clus>
<clus scale="   95.474">  1  5  2 -1</clus>
</clustering>
</event>
<event>
 9    2  0.6066854E-005  0.3619532E+03  0.7546771E-02  0.1105701E+00
          2   -1    0    0  502    0  0.00000000000E+00  0.00000000000E+00  0.19448679048E+03  0.19448679048E+03  0.00000000000E+00 0. -1.
         -1   -1    0    0    0  501 -0.00000000000E+00 -0.00000000000E+00 -0.98392301630E+03  0.98392301630E+03  0.00000000000E+00 0.  1.
         24    2    1    2    0    0  0.61609327104E+02 -0.27798686354E+02 -0.26017752159E+03  0.27873279444E+03  0.73696348646E+02 0.  0.
         23    2    1    2    0    0  0.15663610051E+03 -0.27421043359E+03 -0.36722431882E+03  0.49335728939E+03  0.93922759704E+02 0.  0.
        -11    1    3    3    0    0  0.61546248224E+02 -0.44053945932E+02 -0.24524811049E+03  0.25666189145E+03  0.00000000000E+00 0.  1.
         12    1    3    3    0    0  0.63078879231E-01  0.16255259579E+02 -0.14929411103E+02  0.22070902990E+02  0.00000000000E+00 0. -1.
        -11    1    4    4    0    0  0.10561813539E+03 -0.16073418512E+03 -0.15357790487E+03  0.24612363083E+03  0.00000000000E+00 0. -1.
         11    1    4    4    0    0  0.51017965123E+02 -0.11347624847E+03 -0.21364641395E+03  0.24723365856E+03  0.00000000000E+00 0.  1.
         21    1    1    2  502  501 -0.21824542762E+03  0.30200911994E+03 -0.16203438541E+03  0.40631972295E+03  0.00000000000E+00 0.  1.
<scales pt_clust_5="13000.00000" pt_clust_6="13000.00000" pt_clust_7="13000.00000" pt_clust_8="13000.00000" pt_clust_9="349.55490"></scales>
<clustering>
<clus scale="   73.696">  5  6 -1 -1</clus>
<clus scale="   93.923">  7  8 -1 -1</clus>
<clus scale="   99.998">  2  5  1 -1</clus>
<clus scale="  349.555">  1  9  2 -1</clus>
<clus scale="  349.555">  1  5  2 -1</clus>
</clustering>
</event>
<event>
 9    2  0.6066854E-005  0.9090794E+02  0.7546771E-02  0.1305271E+00
         -1   -1    0    0    0  501 -0.00000000000E+00  0.00000000000E+00  0.14473980739E+03  0.14473980739E+03  0.00000000000E+00 0.  1.
          2   -1    0    0  502    0  0.00000000000E+00 -0.00000000000E+00 -0.15313295742E+03  0.15313295742E+03  0.00000000000E+00 0. -1.
         23    2    1    2    0    0 -0.38923548151E+02 -0.30436448262E+02  0.26732804372E+02  0.10480051566E+03  0.88470815925E+02 0.  0.
         24    2    1    2    0    0  0.16298457572E+02 -0.10119386685E+02 -0.89107381128E+02  0.12186364782E+03  0.80886226162E+02 0.  0.
        -13    1    4    4    0    0  0.18430724368E+02  0.30904603772E+02 -0.19213063729E+02  0.40791272999E+02  0.00000000000E+00 0.  1.
         14    1    4    4    0    0 -0.21322667959E+01 -0.41023990457E+02 -0.69894317398E+02  0.81072374822E+02  0.00000000000E+00 0. -1.
        -11    1    3    3    0    0 -0.14609900747E+02 -0.60715094094E+02  0.14829594316E+02  0.64184801303E+02  0.00000000000E+00 0. -1.
         11    1    3    3    0    0 -0.24313647404E+02  0.30278645832E+02  0.11903210057E+02  0.40615714362E+02  0.00000000000E+00 0.  1.
         21    1    1    2  502  501  0.22625090579E+02  0.40555834947E+02  0.53981426728E+02  0.71208601331E+02  0.00000000000E+00 0.  1.
<scales pt_clust_5="13000.00000" pt_clust_6="13000.00000" pt_clust_7="13000.00000" pt_clust_8="13000.00000" pt_clust_9="46.43997"></scales>
<clustering>
<clus scale="   46.440">  1  9  2 -1</clus>
<clus scale="   80.886">  5  6 -1 -1</clus>
<clus scale="   83.545">  2  5  1 -1</clus>
<clus scale="   88.471">  7  8 -1 -1</clus>
<clus scale="   83.545">  2  5  1 -1</clus>
</clustering>
</event>
<event>
 9    2  0.6066854E-005  0.3102556E+03  0.7546771E-02  0.1080308E+00
          2   -1    0    0  502    0  0.00000000000E+00  0.00000000000E+00  0.11303100675E+04  0.11303100675E+04  0.00000000000E+00 0. -1.
         -1   -1    0    0    0  501 -0.00000000000E+00 -0.00000000000E+00 -0.12499547075E+03  0.12499547075E+03  0.00000000000E+00 0.  1.
         23    2    1    2    0    0  0.23332209729E+03 -0.19290673927E+03  0.17260399780E+03  0.35860754451E+03  0.84587350028E+02 0.  0.
         24    2    1    2    0    0 -0.20145885285E+03  0.20467910569E+03  0.75144519111E+03  0.80861893001E+03  0.81948111768E+02 0.  0.
        -11    1    4    4    0    0 -0.54647167424E+02  0.16207295746E+02  0.10556589714E+03  0.11997144653E+03  0.00000000000E+00 0.  1.
         12    1    4    4    0    0 -0.14681168543E+03  0.18847180995E+03  0.64587929397E+03  0.68864748348E+03  0.00000000000E+00 0. -1.
        -13    1    3    3    0    0  0.29929328283E+02 -0.29516940088E+01  0.40763637096E+02  0.50657193944E+02  0.00000000000E+00 0. -1.
         13    1    3    3    0    0  0.20339276900E+03 -0.18995504526E+03  0.13184036071E+03  0.30795035057E+03  0.00000000000E+00 0.  1.
         21    1    1    2  502  501 -0.31863244432E+02 -0.11772366421E+02  0.81265407800E+02  0.88079063697E+02  0.00000000000E+00 0.  1.
<scales pt_clust_5="13000.00000" pt_clust_6="13000.00000" pt_clust_7="13000.00000" pt_clust_8="13000.00000" pt_clust_9="33.96844"></scales>
<clustering>
<clus scale="   33.968">  1  9  2 -1</clus>
<clus scale="   81.948">  5  6 -1 -1</clus>
<clus scale="   84.587">  7  8 -1 -1</clus>
<clus scale="  309.546">  1  5  2 -1</clus>
<clus scale="   33.968">  1  5  2 -1</clus>
</clustering>
</event>
<event>
 9    2  0.6066854E-005  0.9786802E+02  0.7546771E-02  0.1289459E+00
         -1   -1    0    0    0  501 -0.00000000000E+00  0.00000000000E+00  0.62028629019E+03  0.62028629019E+03  0.00000000000E+00 0.  1.
          2   -1    0    0  502    0  0.00000000000E+00 -0.00000000000E+00 -0.93826642779E+02  0.93826642779E+02  0.00000000000E+00 0. -1.
         23    2    1    2    0    0 -0.57963865964E+02 -0.68224848875E+01  0.36202249869E+03  0.37752409154E+03  0.89765216399E+02 0.  0.
         24    2    1    2    0    0 -0.92683920619E+00  0.41089035495E+02 -0.55524517689E+02  0.10631629349E+03  0.80814691288E+02 0.  0.
        -11    1    4    4    0    0 -0.25238816648E+02 -0.14645822024E+02 -0.24232470639E+02  0.37930338804E+02  0.00000000000E+00 0.  1.
         12    1    4    4    0    0  0.24311977441E+02  0.55734857519E+02 -0.31292047050E+02  0.68385954686E+02  0.00000000000E+00 0. -1.
        -11    1    3    3    0    0  0.19934838682E+01 -0.37003996287E+02  0.89758615339E+02  0.97107562768E+02  0.00000000000E+00 0. -1.
         11    1    3    3    0    0 -0.59957349832E+02  0.30181511400E+02  0.27226388336E+03  0.28041652877E+03  0.00000000000E+00 0.  1.
         21    1    1    2  502  501  0.58890705170E+02 -0.34266550607E+02  0.21996166640E+03  0.23027254794E+03  0.00000000000E+00 0.  1.
<scales pt_clust_5="13000.00000" pt_clust_6="13000.00000" pt_clust_7="13000.00000" pt_clust_8="13000.00000" pt_clust_9="68.13451"></scales>
<clustering>
<clus scale="   68.135">  1  9  2 -1</clus>
<clus scale="   80.815">  5  6 -1 -1</clus>
<clus scale="   89.729">  2  5  1 -1</clus>
<clus scale="   89.765">  7  8 -1 -1</clus>
<clus scale="   89.729">  2  5  1 -1</clus>
</clustering>
</event>
<event>
 9    2  0.6066854E-005  0.1175080E+03  0.7546771E-02  0.1250794E+00
         -1   -1    0    0    0  501 -0.00000000000E+00  0.00000000000E+00  0.35193242800E+03  0.35193242800E+03  0.00000000000E+00 0.  1.
          2   -1    0    0  502    0  0.00000000000E+00 -0.00000000000E+00 -0.10876546509E+03  0.10876546509E+03  0.00000000000E+00 0. -1.
         24    2    1    2    0    0 -0.68054094644E+02 -0.19618107399E+01  0.19345849726E+03  0.22036361384E+03  0.80614661459E+02 0.  0.
         23    2    1    2    0    0  0.73374561071E+02 -0.18069274535E+02 -0.57135718273E+02  0.13149847917E+03  0.91197778636E+02 0.  0.
        -11    1    3    3    0    0 -0.29149008223E+02 -0.31227961996E+02  0.37027781934E+02  0.56532352912E+02  0.00000000000E+00 0.  1.
         12    1    3    3    0    0 -0.38905086421E+02  0.29266151256E+02  0.15643071533E+03  0.16383126093E+03  0.00000000000E+00 0. -1.
        -11    1    4    4    0    0 -0.57399683078E+00 -0.37019621300E+02 -0.15305482685E+01  0.37055693376E+02  0.00000000000E+00 0.  1.
         11    1    4    4    0    0  0.73948557902E+02  0.18950346765E+02 -0.55605170005E+02  0.94442785799E+02  0.00000000000E+00 0. -1.
         21    1    1    2  502  501 -0.53204664266E+01  0.20031085275E+02  0.10684418392E+03  0.10883580008E+03  0.00000000000E+00 0.  1.
<scales pt_clust_5="13000.00000" pt_clust_6="13000.00000" pt_clust_7="13000.00000" pt_clust_8="13000.00000" pt_clust_9="20.72563"></scales>
<clustering>
<clus scale="   20.726">  1  9  2 -1</clus>
<clus scale="   80.615">  5  6 -1 -1</clus>
<clus scale="   91.198">  7  8 -1 -1</clus>
<clus scale="  109.498">  1  5  2 -1</clus>
<clus scale="  117.508">  2  5  1 -1</clus>
</clustering>
</event>
<event>
 9    2  0.6066854E-005  0.1875310E+03  0.7546771E-02  0.1194431E+00
         -1   -1    0    0    0  501 -0.00000000000E+00  0.00000000000E+00  0.31696448450E+02  0.31696448450E+02  0.00000000000E+00 0.  1.
          2   -1    0    0  502    0  0.00000000000E+00 -0.00000000000E+00 -0.19955611767E+04  0.19955611767E+04  0.00000000000E+00 0. -1.
         23    2    1    2    0    0 -0.71277616105E+02 -0.13338153791E+03 -0.40089891377E+03  0.43852059354E+03  0.93323301906E+02 0.  0.
         24    2    1    2    0    0 -0.25031701054E+02 -0.25311084945E+02 -0.73604096415E+03  0.74123273003E+03  0.80015136543E+02 0.  0.
        -11    1    4    4    0    0 -0.85979155891E+01  0.19145854414E+02 -0.60612554873E+02  0.64143352749E+02  0.00000000000E+00 0.  1.
         12    1    4    4    0    0 -0.16433785465E+02 -0.44456939359E+02 -0.67542840928E+03  0.67708937728E+03  0.00000000000E+00 0. -1.
        -13    1    3    3    0    0 -0.55007248905E+02 -0.14611530090E+03 -0.36688949966E+03  0.39872720443E+03  0.00000000000E+00 0. -1.
         13    1    3    3    0    0 -0.16270367201E+02  0.12733762987E+02 -0.34009414110E+02  0.39793389109E+02  0.00000000000E+00 0.  1.
         21    1    1    2  502  501  0.96309317159E+02  0.15869262286E+03 -0.82692485032E+03  0.84750430158E+03  0.00000000000E+00 0. -1.
<scales pt_clust_5="13000.00000" pt_clust_6="13000.00000" pt_clust_7="13000.00000" pt_clust_8="13000.00000" pt_clust_9="162.66106"></scales>
<clustering>
<clus scale="   80.015">  5  6 -1 -1</clus>
<clus scale="   87.577">  2  5  1 -1</clus>
<clus scale="   93.323">  7  8 -1 -1</clus>
<clus scale="  162.661">  2  9  1 -1</clus>
<clus scale="   87.577">  2  5  1 -1</clus>
</clustering>
</event>
<event>
 9    2  0.6066854E-005  0.1126659E+03  0.7546771E-02  0.1257336E+00
         -1   -1    0    0    0  501 -0.00000000000E+00  0.00000000000E+00  0.80652820504E+02  0.80652820504E+02  0.00000000000E+00 0.  1.
          2   -1    0    0  502    0  0.00000000000E+00 -0.00000000000E+00 -0.31906147795E+03  0.31906147795E+03  0.00000000000E+00 0. -1.
         24    2    1    2    0    0 -0.59710225648E+02  0.34009231549E+02 -0.12873664944E+02  0.10875964578E+03  0.83312606629E+02 0.  0.
         23    2    1    2    0    0  0.48471618463E+02 -0.52699601474E+02 -0.23954939039E+03  0.26503092673E+03  0.87924603468E+02 0.  0.
        -11    1    3    3    0    0 -0.91057375744E+01  0.50086142822E+02 -0.20954906225E+02  0.55051287491E+02  0.00000000000E+00 0.  1.
         12    1    3    3    0    0 -0.50604488073E+02 -0.16076911273E+02  0.80812412804E+01  0.53708358287E+02  0.00000000000E+00 0. -1.
        -13    1    4    4    0    0  0.39285194639E+02  0.53892165398E+01 -0.37427796507E+02  0.54527150339E+02  0.00000000000E+00 0.  1.
         13    1    4    4    0    0  0.91864238244E+01 -0.58088818014E+02 -0.20212159388E+03  0.21050377639E+03  0.00000000000E+00 0. -1.
         21    1    1    2  502  501  0.11238607184E+02  0.18690369925E+02  0.14014397880E+02  0.25923725953E+02  0.00000000000E+00 0. -1.
<scales pt_clust_5="13000.00000" pt_clust_6="13000.00000" pt_clust_7="13000.00000" pt_clust_8="13000.00000" pt_clust_9="21.80909"></scales>
<clustering>
<clus scale="   21.809">  1  9  2 -1</clus>
<clus scale="   83.313">  5  6 -1 -1</clus>
<clus scale="   87.925">  7  8 -1 -1</clus>
<clus scale="  109.105">  1  5  2 -1</clus>
<clus scale="  112.666">  2  5  1 -1</clus>
</clustering>
</event>
<event>
 9    2  0.6066854E-005  0.1212068E+03  0.7546771E-02  0.1245366E+00
         -1   -1    0    0    0  501 -0.00000000000E+00  0.00000000000E+00  0.80926847467E+02  0.80926847467E+02  0.00000000000E+00 0.  1.
          2   -1    0    0  502    0  0.00000000000E+00 -0.00000000000E+00 -0.39248682109E+03  0.39248682109E+03  0.00000000000E+00 0. -1.
         23    2    1    2    0    0 -0.99216759055E+02  0.30221991866E+01 -0.13322548323E+02  0.13681103809E+03  0.93202311575E+02 0.  0.
         24    2    1    2    0    0  0.35634307268E+02  0.46823988518E+01 -0.13133485280E+03  0.15783306451E+03  0.79816689856E+02 0.  0.
        -11    1    4    4    0    0 -0.52771407224E+01  0.23017995374E+02 -0.54956333036E+01  0.24246201984E+02  0.00000000000E+00 0.  1.
         12    1    4    4    0    0  0.40911447990E+02 -0.18335596522E+02 -0.12583921949E+03  0.13358686253E+03  0.00000000000E+00 0. -1.
        -13    1    3    3    0    0 -0.54093290271E+02 -0.22771997319E+02 -0.46732268388E+02  0.75023681747E+02  0.00000000000E+00 0. -1.
         13    1    3    3    0    0 -0.45123468784E+02  0.25794196506E+02  0.33409720065E+02  0.61787356338E+02  0.00000000000E+00 0.  1.
         21    1    1    2  502  501  0.63582451787E+02 -0.77045980384E+01 -0.16690257250E+03  0.17876956596E+03  0.00000000000E+00 0. -1.
<scales pt_clust_5="13000.00000" pt_clust_6="13000.00000" pt_clust_7="13000.00000" pt_clust_8="13000.00000" pt_clust_9="64.04755"></scales>
<clustering>
<clus scale="   64.048">  2  9  1 -1</clus>
<clus scale="   79.817">  5  6 -1 -1</clus>
<clus scale="   93.202">  7  8 -1 -1</clus>
<clus scale="  111.243">  2  5  1 -1</clus>
<clus scale="   64.048">  2  5  1 -1</clus>
</clustering>
</event>
<event>
 9    2  0.6066854E-005  0.1163035E+03  0.7546771E-02  0.1254864E+00
          2   -1    0    0  502    0  0.00000000000E+00  0.00000000000E+00  0.25485745077E+03  0.25485745077E+03  0.00000000000E+00 0. -1.
         -1   -1    0    0    0  501 -0.00000000000E+00 -0.00000000000E+00 -0.33813387587E+03  0.33813387587E+03  0.00000000000E+00 0.  1.
         23    2    1    2    0    0  0.66795077724E+02 -0.27390048525E+02 -0.20981402148E+03  0.24152411176E+03  0.95394841492E+02 0.  0.
         24    2    1    2    0    0 -0.21126927370E+02  0.64114569278E+02  0.21855473391E+03  0.24237356714E+03  0.80135817708E+02 0.  0.
        -13    1    4    4    0    0  0.61980281139E+01  0.44522038971E+02  0.38436174221E+02  0.59143613311E+02  0.00000000000E+00 0.  1.
         14    1    4    4    0    0 -0.27324955484E+02  0.19592530307E+02  0.18011855969E+03  0.18322995383E+03  0.00000000000E+00 0. -1.
        -11    1    3    3    0    0  0.53520376690E+01 -0.42632889952E+02 -0.14371184057E+03  0.14999766909E+03  0.00000000000E+00 0.  1.
         11    1    3    3    0    0  0.61443040055E+02  0.15242841426E+02 -0.66102180916E+02  0.91526442670E+02  0.00000000000E+00 0. -1.
         21    1    1    2  502  501 -0.45668150354E+02 -0.36724520753E+02 -0.92017137524E+02  0.10909364775E+03  0.00000000000E+00 0. -1.
<scales pt_clust_5="13000.00000" pt_clust_6="13000.00000" pt_clust_7="13000.00000" pt_clust_8="13000.00000" pt_clust_9="58.60265"></scales>
<clustering>
<clus scale="   58.603">  2  9  1 -1</clus>
<clus scale="   80.136">  5  6 -1 -1</clus>
<clus scale="   95.395">  7  8 -1 -1</clus>
<clus scale="  104.154">  1  5  2 -1</clus>
<clus scale="  104.154">  1  5  2 -1</clus>
</clustering>
</event>
<event>
 9    2  0.6066854E-005  0.2497307E+03  0.7546771E-02  0.1149298E+00
          2   -1    0    0  502    0  0.00000000000E+00  0.00000000000E+00  0.14982134998E+03  0.14982134998E+03  0.00000000000E+00 0. -1.
         -1   -1    0    0    0  501 -0.00000000000E+00 -0.00000000000E+00 -0.92693264380E+03  0.92693264380E+03  0.00000000000E+00 0.  1.
         23    2    1    2    0    0 -0.11910215511E+03 -0.19668314038E+03 -0.65918503167E+03  0.70408431710E+03  0.91324906482E+02 0.  0.
         24    2    1    2    0    0 -0.58460407845E+02  0.22149825044E+02 -0.45714609937E+02  0.11343066604E+03  0.82876150982E+02 0.  0.
        -13    1    4    4    0    0 -0.59866103202E+02 -0.16506484944E+02 -0.41112858245E+02  0.74476046289E+02  0.00000000000E+00 0.  1.
         14    1    4    4    0    0  0.14056953571E+01  0.38656309987E+02 -0.46017516925E+01  0.38954619751E+02  0.00000000000E+00 0. -1.
        -11    1    3    3    0    0 -0.51619051446E+02 -0.15909170065E+03 -0.39800994233E+03  0.43172515549E+03  0.00000000000E+00 0. -1.
         11    1    3    3    0    0 -0.67483103660E+02 -0.37591439728E+02 -0.26117508934E+03  0.27235916161E+03  0.00000000000E+00 0.  1.
         21    1    1    2  502  501  0.17756256295E+03  0.17453331533E+03 -0.72211652212E+02  0.25923901064E+03  0.00000000000E+00 0. -1.
<scales pt_clust_5="13000.00000" pt_clust_6="13000.00000" pt_clust_7="13000.00000" pt_clust_8="13000.00000" pt_clust_9="232.43313"></scales>
<clustering>
<clus scale="   82.876">  5  6 -1 -1</clus>
<clus scale="   91.325">  7  8 -1 -1</clus>
<clus scale="  103.811">  1  5  2 -1</clus>
<clus scale="  232.433">  1  9  2 -1</clus>
<clus scale="  103.811">  1  5  2 -1</clus>
</clustering>
</event>
<event>
 9    2  0.6066854E-005  0.1295913E+03  0.7546771E-02  0.1231149E+00
         -1   -1    0    0    0  501 -0.00000000000E+00  0.00000000000E+00  0.20073105286E+03  0.20073105286E+03  0.00000000000E+00 0.  1.
          2   -1    0    0  502    0  0.00000000000E+00 -0.00000000000E+00 -0.93745507501E+03  0.93745507501E+03  0.00000000000E+00 0. -1.
         23    2    1    2    0    0 -0.10051604989E+02  0.95584807154E+02  0.14157317446E+03  0.19356373678E+03  0.90479093427E+02 0.  0.
         24    2    1    2    0    0 -0.30174811252E+02 -0.87873413912E+02 -0.89288802618E+03  0.90114225244E+03  0.78588012618E+02 0.  0.
        -11    1    4    4    0    0 -0.14346994553E+02 -0.19677845185E+02 -0.52836525593E+02  0.58178623914E+02  0.00000000000E+00 0.  1.
         12    1    4    4    0    0 -0.15827816699E+02 -0.68195568727E+02 -0.84005150059E+03  0.84296362853E+03  0.00000000000E+00 0. -1.
        -11    1    3    3    0    0 -0.24276833015E+02  0.43338960893E+02  0.91677185355E+01  0.50514128872E+02  0.00000000000E+00 0. -1.
         11    1    3    3    0    0  0.14225228026E+02  0.52245846261E+02  0.13240545592E+03  0.14304960790E+03  0.00000000000E+00 0.  1.
         21    1    1    2  502  501  0.40226416242E+02 -0.77113932418E+01  0.14590829584E+02  0.43480138653E+02  0.00000000000E+00 0.  1.
<scales pt_clust_5="13000.00000" pt_clust_6="13000.00000" pt_clust_7="13000.00000" pt_clust_8="13000.00000" pt_clust_9="40.95888"></scales>
<clustering>
<clus scale="   40.959">  1  9  2 -1</clus>
<clus scale="   78.588">  5  6 -1 -1</clus>
<clus scale="   90.479">  7  8 -1 -1</clus>
<clus scale="  121.588">  2  5  1 -1</clus>
<clus scale="  121.588">  2  5  1 -1</clus>
</clustering>
</event>
<event>
 9    2  0.6066854E-005  0.1175722E+03  0.7546771E-02  0.1249960E+00
         -1   -1    0    0    0  501 -0.00000000000E+00  0.00000000000E+00  0.11104175634E+03  0.11104175634E+03  0.00000000000E+00 0.  1.
          2   -1    0    0  502    0  0.00000000000E+00 -0.00000000000E+00 -0.44333103564E+03  0.44333103564E+03  0.00000000000E+00 0. -1.
         23    2    1    2    0    0  0.12359767693E+02  0.75381967984E+02  0.57994521460E+02  0.13065993873E+03  0.88732463709E+02 0.  0.
         24    2    1    2    0    0 -0.50285129222E+02 -0.76304413984E+02 -0.33761584981E+03  0.35880447927E+03  0.80032708857E+02 0.  0.
        -13    1    4    4    0    0 -0.17009691597E+02  0.13962884471E+02 -0.35764604524E+02  0.41992840910E+02  0.00000000000E+00 0.  1.
         14    1    4    4    0    0 -0.33275437626E+02 -0.90267298454E+02 -0.30185124529E+03  0.31681163836E+03  0.00000000000E+00 0. -1.
        -13    1    3    3    0    0  0.19214772793E+02 -0.77405059050E+01  0.40426787546E+02  0.45425192091E+02  0.00000000000E+00 0.  1.
         13    1    3    3    0    0 -0.68550051003E+01  0.83122473889E+02  0.17567733914E+02  0.85234746643E+02  0.00000000000E+00 0. -1.
         21    1    1    2  502  501  0.37925361529E+02  0.92244599937E+00 -0.52667950950E+02  0.64908373967E+02  0.00000000000E+00 0. -1.
<scales pt_clust_5="13000.00000" pt_clust_6="13000.00000" pt_clust_7="13000.00000" pt_clust_8="13000.00000" pt_clust_9="37.93658"></scales>
<clustering>
<clus scale="   37.937">  2  9  1 -1</clus>
<clus scale="   80.033">  5  6 -1 -1</clus>
<clus scale="   88.732">  7  8 -1 -1</clus>
<clus scale="  111.153">  2  5  1 -1</clus>
<clus scale="   37.937">  2  5  1 -1</clus>
</clustering>
</event>
<event>
 9    2  0.6066854E-005  0.1074423E+03  0.7546771E-02  0.1269871E+00
          2   -1    0    0  502    0  0.00000000000E+00  0.00000000000E+00  0.75587593567E+02  0.75587593567E+02  0.00000000000E+00 0. -1.
         -1   -1    0    0    0  501 -0.00000000000E+00 -0.00000000000E+00 -0.42299859199E+03  0.42299859199E+03  0.00000000000E+00 0.  1.
         23    2    1    2    0    0 -0.68752427465E+01 -0.54683973186E+02 -0.28853028096E+03  0.30750409564E+03  0.90947456932E+02 0.  0.
         24    2    1    2    0    0 -0.24344832313E+02  0.53133296158E+02  0.24376280779E+02  0.10215051260E+03  0.80154264638E+02 0.  0.
        -13    1    4    4    0    0 -0.87565963567E+01 -0.20792704716E+02 -0.62401248330E+00  0.22569978749E+02  0.00000000000E+00 0.  1.
         14    1    4    4    0    0 -0.15588235956E+02  0.73926000874E+02  0.25000293263E+02  0.79580533855E+02  0.00000000000E+00 0. -1.
        -11    1    3    3    0    0 -0.34035808584E+02 -0.18447881875E+02 -0.23133353559E+03  0.23455056022E+03  0.00000000000E+00 0.  1.
         11    1    3    3    0    0  0.27160565837E+02 -0.36236091311E+02 -0.57196745369E+02  0.72953535424E+02  0.00000000000E+00 0. -1.
         21    1    1    2  502  501  0.31220075059E+02  0.15506770276E+01 -0.83256998244E+02  0.88931577309E+02  0.00000000000E+00 0. -1.
<scales pt_clust_5="13000.00000" pt_clust_6="13000.00000" pt_clust_7="13000.00000" pt_clust_8="13000.00000" pt_clust_9="31.25856"></scales>
<clustering>
<clus scale="   31.259">  2  9  1 -1</clus>
<clus scale="   80.154">  5  6 -1 -1</clus>
<clus scale="   90.947">  7  8 -1 -1</clus>
<clus scale="   98.474">  1  5  2 -1</clus>
<clus scale="   98.474">  1  5  2 -1</clus>
</clustering>
</event>
<event>
 9    2  0.6066854E-005  0.1568968E+03  0.7546771E-02  0.1208322E+00
         -1   -1    0    0    0  501 -0.00000000000E+00  0.00000000000E+00  0.11588665445E+03  0.11588665445E+03  0.00000000000E+00 0.  1.
          2   -1    0    0  502    0  0.00000000000E+00 -0.00000000000E+00 -0.64017019354E+03  0.64017019354E+03  0.00000000000E+00 0. -1.
         24    2    1    2    0    0  0.33580265085E+02  0.68335684931E+02 -0.10104494864E+03  0.14986061652E+03  0.80316391225E+02 0.  0.
         23    2    1    2    0    0 -0.10444799244E+03  0.72793888939E+02 -0.42058084693E+03  0.44825049712E+03  0.88498169295E+02 0.  0.
        -13    1    3    3    0    0  0.33843820683E+02  0.14597836645E+02 -0.86747000118E+02  0.94252549369E+02  0.00000000000E+00 0.  1.
         14    1    3    3    0    0 -0.26355559844E+00  0.53737848286E+02 -0.14297948520E+02  0.55608067147E+02  0.00000000000E+00 0. -1.
        -13    1    4    4    0    0 -0.64027981914E+01  0.46189310768E+02 -0.77526601551E+02  0.90470007195E+02  0.00000000000E+00 0.  1.
         13    1    4    4    0    0 -0.98045194253E+02  0.26604578171E+02 -0.34305424538E+03  0.35778048992E+03  0.00000000000E+00 0. -1.
         21    1    1    2  502  501  0.70867727359E+02 -0.14112957387E+03 -0.26577435256E+01  0.15794573436E+03  0.00000000000E+00 0.  1.
<scales pt_clust_5="13000.00000" pt_clust_6="13000.00000" pt_clust_7="13000.00000" pt_clust_8="13000.00000" pt_clust_9="129.55565"></scales>
<clustering>
<clus scale="   80.316">  5  6 -1 -1</clus>
<clus scale="   88.498">  7  8 -1 -1</clus>
<clus scale="  110.671">  1  5  2 -1</clus>
<clus scale="  129.556">  1  9  2 -1</clus>
<clus scale="  156.897">  2  5  1 -1</clus>
</clustering>
</event>
<event>
 9    2  0.6066854E-005  0.1137539E+03  0.7546771E-02  0.1259046E+00
         -1   -1    0    0    0  501 -0.00000000000E+00  0.00000000000E+00  0.74924635052E+02  0.74924635052E+02  0.00000000000E+00 0.  1.
          2   -1    0    0  502    0  0.00000000000E+00 -0.00000000000E+00 -0.34866157696E+03  0.34866157696E+03  0.00000000000E+00 0. -1.
         24    2    1    2    0    0 -0.46393144124E+02 -0.42749700780E+02 -0.90611146058E+02  0.13521791209E+03  0.78061791055E+02 0.  0.
         23    2    1    2    0    0  0.68867675220E+02  0.19404090616E+02 -0.21387025916E+03  0.24369902539E+03  0.92355031283E+02 0.  0.
        -13    1    3    3    0    0 -0.50779553290E+02 -0.60021018842E+02 -0.56776566479E+02  0.96977648128E+02  0.00000000000E+00 0.  1.
         14    1    3    3    0    0  0.43864091661E+01  0.17271318062E+02 -0.33834579579E+02  0.38240263967E+02  0.00000000000E+00 0. -1.
        -13    1    4    4    0    0  0.21880681612E+02  0.45825683343E+02 -0.50304803008E+02  0.71479582311E+02  0.00000000000E+00 0.  1.
         13    1    4    4    0    0  0.46986993608E+02 -0.26421592728E+02 -0.16356545615E+03  0.17221944308E+03  0.00000000000E+00 0. -1.
         21    1    1    2  502  501 -0.22474531096E+02  0.23345610165E+02  0.30744463310E+02  0.44669274520E+02  0.00000000000E+00 0.  1.
<scales pt_clust_5="13000.00000" pt_clust_6="13000.00000" pt_clust_7="13000.00000" pt_clust_8="13000.00000" pt_clust_9="32.40559"></scales>
<clustering>
<clus scale="   32.406">  1  9  2 -1</clus>
<clus scale="   78.062">  5  6 -1 -1</clus>
<clus scale="   92.355">  7  8 -1 -1</clus>
<clus scale="  102.490">  1  5  2 -1</clus>
<clus scale="  113.754">  2  5  1 -1</clus>
</clustering>
</event>
<event>
 9    2  0.6066854E-005  0.1138704E+03  0.7546771E-02  0.1257380E+00
          2   -1    0    0  502    0  0.00000000000E+00  0.00000000000E+00  0.26295125467E+03  0.26295125467E+03  0.00000000000E+00 0. -1.
         -1   -1    0    0    0  501 -0.00000000000E+00 -0.00000000000E+00 -0.68105886656E+02  0.68105886656E+02  0.00000000000E+00 0.  1.
         24    2    1    2    0    0  0.57374440040E+02 -0.56675345348E+02  0.10159093518E+03  0.15303479937E+03  0.81209670416E+02 0.  0.
         23    2    1    2    0    0 -0.24509568489E+02  0.51506671206E+02  0.96176882196E+02  0.14462540071E+03  0.91721631768E+02 0.  0.
        -13    1    3    3    0    0  0.45569499691E+02 -0.31714568980E+02  0.11079708064E+03  0.12392895653E+03  0.00000000000E+00 0.  1.
         14    1    3    3    0    0  0.11804940348E+02 -0.24960776369E+02 -0.92061454622E+01  0.29105842847E+02  0.00000000000E+00 0. -1.
        -11    1    4    4    0    0 -0.29222345407E+02  0.31643430668E+02 -0.31828968953E+01  0.43190079974E+02  0.00000000000E+00 0.  1.
         11    1    4    4    0    0  0.47127769180E+01  0.19863240538E+02  0.99359779091E+02  0.10143532073E+03  0.00000000000E+00 0. -1.
         21    1    1    2  502  501 -0.32864871551E+02  0.51686741428E+01 -0.29224493576E+01  0.33396941248E+02  0.00000000000E+00 0.  1.
<scales pt_clust_5="13000.00000" pt_clust_6="13000.00000" pt_clust_7="13000.00000" pt_clust_8="13000.00000" pt_clust_9="33.26883"></scales>
<clustering>
<clus scale="   33.269">  2  9  1 -1</clus>
<clus scale="   81.210">  5  6 -1 -1</clus>
<clus scale="   91.722">  7  8 -1 -1</clus>
<clus scale="  105.587">  2  5  1 -1</clus>
<clus scale="  113.870">  1  5  2 -1</clus>
</clustering>
</event>
<event>
 9    2  0.6066854E-005  0.2591852E+03  0.7546771E-02  0.1109084E+00
          2   -1    0    0  502    0  0.00000000000E+00  0.00000000000E+00  0.83971009898E+03  0.83971009898E+03  0.00000000000E+00 0. -1.
         -1   -1    0    0    0  501 -0.00000000000E+00 -0.00000000000E+00 -0.22577654714E+03  0.22577654714E+03  0.00000000000E+00 0.  1.
         23    2    1    2    0    0  0.13062378869E+03 -0.18206005057E+03 -0.10947457828E+03  0.27130320793E+03  0.10682841923E+03 0.  0.
         24    2    1    2    0    0 -0.10580578936E+03  0.21298194701E+03  0.70860801106E+03  0.75186157275E+03  0.81328570790E+02 0.  0.
        -11    1    4    4    0    0 -0.61402512100E+02  0.48534412266E+02  0.17448542748E+03  0.19123551467E+03  0.00000000000E+00 0.  1.
         12    1    4    4    0    0 -0.44403277256E+02  0.16444753475E+03  0.53412258358E+03  0.56062605808E+03  0.00000000000E+00 0. -1.
        -11    1    3    3    0    0  0.95461071897E+02 -0.57962723131E+02 -0.84206633017E+02  0.13986869044E+03  0.00000000000E+00 0.  1.
         11    1    3    3    0    0  0.35162716798E+02 -0.12409732744E+03 -0.25267945261E+02  0.13143451749E+03  0.00000000000E+00 0. -1.
         21    1    1    2  502  501 -0.24817999338E+02 -0.30921896443E+02  0.14800119061E+02  0.42321865448E+02  0.00000000000E+00 0.  1.
<scales pt_clust_5="13000.00000" pt_clust_6="13000.00000" pt_clust_7="13000.00000" pt_clust_8="13000.00000" pt_clust_9="39.64968"></scales>
<clustering>
<clus scale="   39.650">  2  9  1 -1</clus>
<clus scale="   81.329">  5  6 -1 -1</clus>
<clus scale="  106.828">  7  8 -1 -1</clus>
<clus scale="  249.758">  1  5  2 -1</clus>
<clus scale="  249.758">  1  5  2 -1</clus>
</clustering>
</event>
<event>
 9    2  0.6066854E-005  0.2230248E+03  0.7546771E-02  0.1167074E+00
          4   -1    0    0  502    0  0.00000000000E+00  0.00000000000E+00  0.48863587254E+03  0.48863587254E+03  0.00000000000E+00 0. -1.
         -3   -1    0    0    0  501 -0.00000000000E+00 -0.00000000000E+00 -0.15195088683E+03  0.15195088683E+03  0.00000000000E+00 0.  1.
         23    2    1    2    0    0 -0.15819569307E+02  0.20011945019E+02  0.42842900036E+02  0.10533532504E+03  0.92786205342E+02 0.  0.
         24    2    1    2    0    0  0.21451011261E+03 -0.36537982983E+01  0.23370023825E+03  0.32701463937E+03  0.79339992144E+02 0.  0.
        -11    1    4    4    0    0  0.51579102152E+02 -0.31236770890E+02  0.39800266001E+02  0.72250957144E+02  0.00000000000E+00 0.  1.
         12    1    4    4    0    0  0.16293101046E+03  0.27582972591E+02  0.19389997225E+03  0.25476368223E+03  0.00000000000E+00 0. -1.
        -11    1    3    3    0    0  0.11783217707E+01  0.44804686064E+02  0.56666428967E+02  0.72249100391E+02  0.00000000000E+00 0.  1.
         11    1    3    3    0    0 -0.16997891077E+02 -0.24792741045E+02 -0.13823528931E+02  0.33086224652E+02  0.00000000000E+00 0. -1.
         21    1    1    2  502  501 -0.19869054330E+03 -0.16358146721E+02  0.60141847420E+02  0.20823679496E+03  0.00000000000E+00 0.  1.
<scales pt_clust_5="13000.00000" pt_clust_6="13000.00000" pt_clust_7="13000.00000" pt_clust_8="13000.00000" pt_clust_9="208.43518"></scales>
<clustering>
<clus scale="   79.340">  5  6 -1 -1</clus>
<clus scale="   92.786">  7  8 -1 -1</clus>
<clus scale="   96.229">  2  7  1 -1</clus>
<clus scale="  208.435">  2  9  1 -1</clus>
<clus scale="  223.025">  1  5  2 -1</clus>
</clustering>
</event>
<event>
 9    2  0.6066854E-005  0.1157868E+03  0.7546771E-02  0.1253934E+00
         -1   -1    0    0    0  501 -0.00000000000E+00  0.00000000000E+00  0.27416985433E+03  0.27416985433E+03  0.00000000000E+00 0.  1.
          2   -1    0    0  502    0  0.00000000000E+00 -0.00000000000E+00 -0.71264514008E+02  0.71264514008E+02  0.00000000000E+00 0. -1.
         24    2    1    2    0    0  0.28412637804E+02  0.66314736417E+02  0.98835571728E+02  0.14510609834E+03  0.77989661388E+02 0.  0.
         23    2    1    2    0    0  0.16147755398E+02 -0.79800696783E+02  0.54716730331E+02  0.13248122028E+03  0.89041854981E+02 0.  0.
        -13    1    3    3    0    0  0.47247249378E+02  0.39555505408E+02  0.93458968985E+02  0.11194426946E+03  0.00000000000E+00 0.  1.
         14    1    3    3    0    0 -0.18834611574E+02  0.26759231009E+02  0.53766027423E+01  0.33161828876E+02  0.00000000000E+00 0. -1.
        -13    1    4    4    0    0 -0.31545891810E+02 -0.51642615607E+02  0.46868131066E+02  0.76542306906E+02  0.00000000000E+00 0.  1.
         13    1    4    4    0    0  0.47693647208E+02 -0.28158081175E+02  0.78485992647E+01  0.55938913378E+02  0.00000000000E+00 0. -1.
         21    1    1    2  502  501 -0.44560393202E+02  0.13485960366E+02  0.49353038269E+02  0.67847049720E+02  0.00000000000E+00 0.  1.
<scales pt_clust_5="13000.00000" pt_clust_6="13000.00000" pt_clust_7="13000.00000" pt_clust_8="13000.00000" pt_clust_9="46.55641"></scales>
<clustering>
<clus scale="   46.556">  1  9  2 -1</clus>
<clus scale="   77.990">  5  6 -1 -1</clus>
<clus scale="   89.042">  7  8 -1 -1</clus>
<clus scale="  107.520">  1  5  2 -1</clus>
<clus scale="  115.787">  2  5  1 -1</clus>
</clustering>
</event>
<event>
 9    2  0.6066854E-005  0.8782945E+02  0.7546771E-02  0.1309835E+00
         -1   -1    0    0    0  501 -0.00000000000E+00  0.00000000000E+00  0.85921043627E+02  0.85921043627E+02  0.00000000000E+00 0.  1.
          2   -1    0    0  502    0  0.00000000000E+00 -0.00000000000E+00 -0.42747682340E+03  0.42747682340E+03  0.00000000000E+00 0. -1.
         23    2    1    2    0    0  0.13909961545E+02  0.35705723754E+02  0.40006228432E+02  0.10063005450E+03  0.84009069850E+02 0.  0.
         24    2    1    2    0    0 -0.24013283387E+02 -0.87888309303E+01 -0.37322339460E+03  0.38283240358E+03  0.81308459766E+02 0.  0.
        -11    1    4    4    0    0 -0.54479048687E+01  0.28184344889E+02 -0.56062627816E+02  0.62984563204E+02  0.00000000000E+00 0.  1.
         12    1    4    4    0    0 -0.18565378518E+02 -0.36973175819E+02 -0.31716076678E+03  0.31984784038E+03  0.00000000000E+00 0. -1.
        -13    1    3    3    0    0  0.38266759756E+02 -0.10852524959E+02  0.16325749809E+02  0.42995956869E+02  0.00000000000E+00 0.  1.
         13    1    3    3    0    0 -0.24356798211E+02  0.46558248713E+02  0.23680478623E+02  0.57634097635E+02  0.00000000000E+00 0. -1.
         21    1    1    2  502  501  0.10103321842E+02 -0.26916892824E+02 -0.83386136051E+01  0.29935408940E+02  0.00000000000E+00 0.  1.
<scales pt_clust_5="13000.00000" pt_clust_6="13000.00000" pt_clust_7="13000.00000" pt_clust_8="13000.00000" pt_clust_9="28.75059"></scales>
<clustering>
<clus scale="   28.751">  1  9  2 -1</clus>
<clus scale="   81.308">  5  6 -1 -1</clus>
<clus scale="   84.009">  7  8 -1 -1</clus>
<clus scale="   85.250">  2  5  1 -1</clus>
<clus scale="   85.250">  2  5  1 -1</clus>
</clustering>
</event>
<event>
 9    2  0.6066854E-005  0.1004905E+03  0.7546771E-02  0.1287337E+00
          2   -1    0    0  502    0  0.00000000000E+00  0.00000000000E+00  0.40976454774E+03  0.40976454774E+03  0.00000000000E+00 0. -1.
         -1   -1    0    0    0  501 -0.00000000000E+00 -0.00000000000E+00 -0.20419553447E+03  0.20419553447E+03  0.00000000000E+00 0.  1.
         23    2    1    2    0    0 -0.72045021012E+02  0.70462180878E+02 -0.12191547401E+03  0.18374706539E+03  0.93510412515E+02 0.  0.
         24    2    1    2    0    0  0.20661464068E+02 -0.27862289856E+02  0.34961926170E+03  0.35989254414E+03  0.78011613799E+02 0.  0.
        -13    1    4    4    0    0  0.32371294441E+02 -0.17872105395E+02  0.64419766790E+02  0.74277986028E+02  0.00000000000E+00 0.  1.
         14    1    4    4    0    0 -0.11709830373E+02 -0.99901844607E+01  0.28519949491E+03  0.28561455812E+03  0.00000000000E+00 0. -1.
        -11    1    3    3    0    0  0.18484973447E+02  0.95944745507E+01 -0.47009013213E+02  0.51415907154E+02  0.00000000000E+00 0. -1.
         11    1    3    3    0    0 -0.90529994459E+02  0.60867706328E+02 -0.74906460799E+02  0.13233115824E+03  0.00000000000E+00 0.  1.
         21    1    1    2  502  501  0.51383556945E+02 -0.42599891023E+02 -0.22134774414E+02  0.70320472679E+02  0.00000000000E+00 0.  1.
<scales pt_clust_5="13000.00000" pt_clust_6="13000.00000" pt_clust_7="13000.00000" pt_clust_8="13000.00000" pt_clust_9="66.74594"></scales>
<clustering>
<clus scale="   66.746">  2  9  1 -1</clus>
<clus scale="   78.012">  5  6 -1 -1</clus>
<clus scale="   86.255">  1  5  2 -1</clus>
<clus scale="   93.510">  7  8 -1 -1</clus>
<clus scale="   86.255">  1  5  2 -1</clus>
</clustering>
</event>
<event>
 9    2  0.6066854E-005  0.1032994E+03  0.7546771E-02  0.1276603E+00
         -3   -1    0    0    0  501 -0.00000000000E+00  0.00000000000E+00  0.10846540726E+03  0.10846540726E+03  0.00000000000E+00 0.  1.
          4   -1    0    0  502    0  0.00000000000E+00 -0.00000000000E+00 -0.16731806584E+03  0.16731806584E+03  0.00000000000E+00 0. -1.
         23    2    1    2    0    0 -0.31503281839E+02 -0.42249331916E+02  0.33418128220E+02  0.10911497505E+03  0.89508902755E+02 0.  0.
         24    2    1    2    0    0  0.44501393209E+02  0.27047325102E+02 -0.10467922059E+03  0.14313084440E+03  0.82563718435E+02 0.  0.
        -13    1    4    4    0    0 -0.13027771547E+02 -0.18651445361E+02 -0.35826659545E+02  0.42439943210E+02  0.00000000000E+00 0.  1.
         14    1    4    4    0    0  0.57529164756E+02  0.45698770464E+02 -0.68852561046E+02  0.10069090119E+03  0.00000000000E+00 0. -1.
        -13    1    3    3    0    0 -0.43707302568E+02 -0.22469489940E+02  0.57504406219E+02  0.75643658099E+02  0.00000000000E+00 0.  1.
         13    1    3    3    0    0  0.12204020729E+02 -0.19779841976E+02 -0.24086278000E+02  0.33471316951E+02  0.00000000000E+00 0. -1.
         21    1    1    2  502  501 -0.12998111370E+02  0.15202006814E+02  0.12408433786E+02  0.23537653650E+02  0.00000000000E+00 0.  1.
<scales pt_clust_5="13000.00000" pt_clust_6="13000.00000" pt_clust_7="13000.00000" pt_clust_8="13000.00000" pt_clust_9="20.00130"></scales>
<clustering>
<clus scale="   20.001">  1  9  2 -1</clus>
<clus scale="   82.564">  5  6 -1 -1</clus>
<clus scale="   89.509">  7  8 -1 -1</clus>
<clus scale="   97.343">  2  5  1 -1</clus>
<clus scale="   97.343">  2  5  1 -1</clus>
</clustering>
</event>
<event>
 9    2  0.6066854E-005  0.1346831E+03  0.7546771E-02  0.1224868E+00
          2   -1    0    0  502    0  0.00000000000E+00  0.00000000000E+00  0.15218461315E+04  0.15218461315E+04  0.00000000000E+00 0. -1.
         -1   -1    0    0    0  501 -0.00000000000E+00 -0.00000000000E+00 -0.13444934055E+03  0.13444934055E+03  0.00000000000E+00 0.  1.
         23    2    1    2    0    0 -0.16940131766E+03  0.15272856561E+02  0.41125958099E+03  0.45432767068E+03  0.91373534591E+02 0.  0.
         24    2    1    2    0    0  0.77561361616E+02  0.50358801438E+02  0.10566950924E+04  0.10632895244E+04  0.73677138700E+02 0.  0.
        -13    1    4    4    0    0  0.21828237944E+02  0.47512372282E+02  0.29860870930E+03  0.30315187409E+03  0.00000000000E+00 0.  1.
         14    1    4    4    0    0  0.55733123672E+02  0.28464291555E+01  0.75808638310E+03  0.76013765035E+03  0.00000000000E+00 0. -1.
        -13    1    3    3    0    0 -0.13189917706E+03  0.20019446639E+02  0.38715188953E+03  0.40949329265E+03  0.00000000000E+00 0. -1.
         13    1    3    3    0    0 -0.37502140597E+02 -0.47465900787E+01  0.24107691453E+02  0.44834378037E+02  0.00000000000E+00 0.  1.
         21    1    1    2  502  501  0.91839956043E+02 -0.65631657999E+02 -0.80557882470E+02  0.13867827691E+03  0.00000000000E+00 0.  1.
<scales pt_clust_5="13000.00000" pt_clust_6="13000.00000" pt_clust_7="13000.00000" pt_clust_8="13000.00000" pt_clust_9="112.88088"></scales>
<clustering>
<clus scale="   73.677">  5  6 -1 -1</clus>
<clus scale="   91.374">  7  8 -1 -1</clus>
<clus scale="  112.881">  2  9  1 -1</clus>
<clus scale="  123.364">  1  5  2 -1</clus>
<clus scale="  123.364">  1  5  2 -1</clus>
</clustering>
</event>
<event>
 9    2  0.6066854E-005  0.1336702E+03  0.7546771E-02  0.1225328E+00
         -1   -1    0    0    0  501 -0.00000000000E+00  0.00000000000E+00  0.59737222704E+03  0.59737222704E+03  0.00000000000E+00 0.  1.
          2   -1    0    0  502    0  0.00000000000E+00 -0.00000000000E+00 -0.43735807686E+02  0.43735807686E+02  0.00000000000E+00 0. -1.
         24    2    1    2    0    0  0.12357151017E+03  0.82999529356E+01  0.24886753875E+03  0.28915963482E+03  0.79620570346E+02 0.  0.
         23    2    1    2    0    0 -0.77538766093E+02  0.24146829205E+01  0.16582292348E+03  0.20518397660E+03  0.92655983939E+02 0.  0.
        -11    1    3    3    0    0  0.45351188858E+02 -0.18959484739E+00  0.17659079567E+03  0.18232135199E+03  0.00000000000E+00 0.  1.
         12    1    3    3    0    0  0.78220321307E+02  0.84895477830E+01  0.72276743075E+02  0.10683828282E+03  0.00000000000E+00 0. -1.
        -13    1    4    4    0    0 -0.46971354697E+02 -0.28862872884E+02  0.14804127696E+03  0.15797339421E+03  0.00000000000E+00 0.  1.
         13    1    4    4    0    0 -0.30567411396E+02  0.31277555805E+02  0.17781646519E+02  0.47210582389E+02  0.00000000000E+00 0. -1.
         21    1    1    2  502  501 -0.46032744072E+02 -0.10714635856E+02  0.13894595713E+03  0.14676442331E+03  0.00000000000E+00 0. -1.
<scales pt_clust_5="13000.00000" pt_clust_6="13000.00000" pt_clust_7="13000.00000" pt_clust_8="13000.00000" pt_clust_9="47.26327"></scales>
<clustering>
<clus scale="   47.263">  1  9  2 -1</clus>
<clus scale="   79.621">  5  6 -1 -1</clus>
<clus scale="   92.656">  7  8 -1 -1</clus>
<clus scale="  124.988">  1  5  2 -1</clus>
<clus scale="  133.670">  2  5  1 -1</clus>
</clustering>
</event>
<event>
 9    2  0.6066854E-005  0.9404842E+02  0.7546771E-02  0.1298915E+00
          2   -1    0    0  502    0  0.00000000000E+00  0.00000000000E+00  0.52715534053E+03  0.52715534053E+03  0.00000000000E+00 0. -1.
         -1   -1    0    0    0  501 -0.00000000000E+00 -0.00000000000E+00 -0.46651115718E+02  0.46651115718E+02  0.00000000000E+00 0.  1.
         23    2    1    2    0    0 -0.41363788191E+02 -0.11334434507E+02  0.48539902432E+02  0.11087206892E+03  0.89983671622E+02 0.  0.
         24    2    1    2    0    0  0.13513736960E+02  0.22949329217E+02  0.42312166866E+03  0.43149041084E+03  0.80266651602E+02 0.  0.
        -11    1    4    4    0    0  0.21647359261E+02 -0.19343027277E+02  0.70421196246E+02  0.76170241879E+02  0.00000000000E+00 0.  1.
         12    1    4    4    0    0 -0.81336223011E+01  0.42292356494E+02  0.35270047241E+03  0.35532016896E+03  0.00000000000E+00 0. -1.
        -11    1    3    3    0    0 -0.55661967871E+01  0.20929849560E+02  0.57866092871E+02  0.61786129944E+02  0.00000000000E+00 0. -1.
         11    1    3    3    0    0 -0.35797591404E+02 -0.32264284067E+02 -0.93261904395E+01  0.49085938973E+02  0.00000000000E+00 0.  1.
         21    1    1    2  502  501  0.27850051231E+02 -0.11614894710E+02  0.88426537182E+01  0.31443976490E+02  0.00000000000E+00 0.  1.
<scales pt_clust_5="13000.00000" pt_clust_6="13000.00000" pt_clust_7="13000.00000" pt_clust_8="13000.00000" pt_clust_9="30.17501"></scales>
<clustering>
<clus scale="   30.175">  2  9  1 -1</clus>
<clus scale="   80.267">  5  6 -1 -1</clus>
<clus scale="   84.798">  1  5  2 -1</clus>
<clus scale="   89.984">  7  8 -1 -1</clus>
<clus scale="   84.798">  1  5  2 -1</clus>
</clustering>
</event>
<event>
 9    2  0.6066854E-005  0.1129149E+03  0.7546771E-02  0.1265759E+00
         -1   -1    0    0    0  501 -0.00000000000E+00  0.00000000000E+00  0.51346451057E+03  0.51346451057E+03  0.00000000000E+00 0.  1.
          2   -1    0    0  502    0  0.00000000000E+00 -0.00000000000E+00 -0.38022414702E+02  0.38022414702E+02  0.00000000000E+00 0. -1.
         23    2    1    2    0    0 -0.46740332257E+02  0.11917376449E+02  0.27367601372E+03  0.29680565494E+03  0.10425139713E+03 0.  0.
         24    2    1    2    0    0  0.39548715755E+02  0.21244362111E+02  0.63447135333E+02  0.11226093715E+03  0.81003427021E+02 0.  0.
        -13    1    4    4    0    0 -0.15871080437E+02  0.26336318946E+02  0.43014227057E+01  0.31048270920E+02  0.00000000000E+00 0.  1.
         14    1    4    4    0    0  0.55419796192E+02 -0.50919568344E+01  0.59145712627E+02  0.81212666232E+02  0.00000000000E+00 0. -1.
        -11    1    3    3    0    0  0.10592979891E+02  0.45173445470E+02  0.14201430151E+03  0.14940185151E+03  0.00000000000E+00 0.  1.
         11    1    3    3    0    0 -0.57333312148E+02 -0.33256069021E+02  0.13166171220E+03  0.14740380344E+03  0.00000000000E+00 0. -1.
         21    1    1    2  502  501  0.71916165025E+01 -0.33161738560E+02  0.13831894683E+03  0.14242033318E+03  0.00000000000E+00 0.  1.
<scales pt_clust_5="13000.00000" pt_clust_6="13000.00000" pt_clust_7="13000.00000" pt_clust_8="13000.00000" pt_clust_9="33.93258"></scales>
<clustering>
<clus scale="   33.933">  1  9  2 -1</clus>
<clus scale="   81.003">  5  6 -1 -1</clus>
<clus scale="   91.886">  2  5  1 -1</clus>
<clus scale="  104.251">  7  8 -1 -1</clus>
<clus scale="   91.886">  2  5  1 -1</clus>
</clustering>
</event>
<event>
 9    2  0.6066854E-005  0.1001902E+03  0.7546771E-02  0.1284787E+00
          2   -1    0    0  502    0  0.00000000000E+00  0.00000000000E+00  0.59635344281E+03  0.59635344281E+03  0.00000000000E+00 0. -1.
         -1   -1    0    0    0  501 -0.00000000000E+00 -0.00000000000E+00 -0.10406090123E+03  0.10406090123E+03  0.00000000000E+00 0.  1.
         23    2    1    2    0    0 -0.23374637007E+01  0.12383597959E+02  0.57951232355E+02  0.10823734243E+03  0.90543689616E+02 0.  0.
         24    2    1    2    0    0  0.45640503151E+02  0.23261765640E+02  0.49814886578E+03  0.50722319390E+03  0.80615821556E+02 0.  0.
        -11    1    4    4    0    0  0.20904419658E+02  0.27527569771E+02  0.67426279429E+02  0.75769815998E+02  0.00000000000E+00 0.  1.
         12    1    4    4    0    0  0.24736083493E+02 -0.42658041310E+01  0.43072258635E+03  0.43145337790E+03  0.00000000000E+00 0. -1.
        -13    1    3    3    0    0 -0.26309111175E+02 -0.30436104085E+02  0.14724819011E+02  0.42840939037E+02  0.00000000000E+00 0.  1.
         13    1    3    3    0    0  0.23971647474E+02  0.42819702043E+02  0.43226413344E+02  0.65396403390E+02  0.00000000000E+00 0. -1.
         21    1    1    2  502  501 -0.43303039450E+02 -0.35645363599E+02 -0.63807556556E+02  0.84953807716E+02  0.00000000000E+00 0.  1.
<scales pt_clust_5="13000.00000" pt_clust_6="13000.00000" pt_clust_7="13000.00000" pt_clust_8="13000.00000" pt_clust_9="56.08694"></scales>
<clustering>
<clus scale="   56.087">  2  9  1 -1</clus>
<clus scale="   80.616">  5  6 -1 -1</clus>
<clus scale="   90.544">  7  8 -1 -1</clus>
<clus scale="   91.317">  1  5  2 -1</clus>
<clus scale="   91.317">  1  5  2 -1</clus>
</clustering>
</event>
<event>
 9    2  0.6066854E-005  0.9366245E+02  0.7546771E-02  0.1298991E+00
          2   -1    0    0  502    0  0.00000000000E+00  0.00000000000E+00  0.16427302981E+03  0.16427302981E+03  0.00000000000E+00 0. -1.
         -1   -1    0    0    0  501 -0.00000000000E+00 -0.00000000000E+00 -0.13807400316E+03  0.13807400316E+03  0.00000000000E+00 0.  1.
         24    2    1    2    0    0 -0.16165338322E+02 -0.11916706648E+02 -0.17015054476E+02  0.86988201583E+02  0.82910247107E+02 0.  0.
         23    2    1    2    0    0  0.22171538656E+02 -0.13463950384E+02  0.10911455386E+03  0.14448482699E+03  0.91088002937E+02 0.  0.
        -11    1    3    3    0    0 -0.47053281314E+02 -0.23142270322E+02 -0.99192170382E+01  0.53366345432E+02  0.00000000000E+00 0.  1.
         12    1    3    3    0    0  0.30887942992E+02  0.11225563674E+02 -0.70958374379E+01  0.33621856151E+02  0.00000000000E+00 0. -1.
        -11    1    4    4    0    0 -0.34146497735E+02 -0.15003828881E+02  0.33090680700E+02  0.49860719388E+02  0.00000000000E+00 0.  1.
         11    1    4    4    0    0  0.56318036391E+02  0.15398784972E+01  0.76023873160E+02  0.94624107599E+02  0.00000000000E+00 0. -1.
         21    1    1    2  502  501 -0.60062003339E+01  0.25380657032E+02 -0.65900472736E+02  0.70874004407E+02  0.00000000000E+00 0.  1.
<scales pt_clust_5="13000.00000" pt_clust_6="13000.00000" pt_clust_7="13000.00000" pt_clust_8="13000.00000" pt_clust_9="26.08164"></scales>
<clustering>
<clus scale="   26.082">  2  9  1 -1</clus>
<clus scale="   82.910">  5  6 -1 -1</clus>
<clus scale="   85.731">  2  5  1 -1</clus>
<clus scale="   91.088">  7  8 -1 -1</clus>
<clus scale="   93.662">  1  5  2 -1</clus>
</clustering>
</event>
<event>
 9    2  0.6066854E-005  0.1047749E+03  0.7546771E-02  0.1272554E+00
         -1   -1    0    0    0  501 -0.00000000000E+00  0.00000000000E+00  0.44895865758E+02  0.44895865758E+02  0.00000000000E+00 0.  1.
          2   -1    0    0  502    0  0.00000000000E+00 -0.00000000000E+00 -0.40937497791E+03  0.40937497791E+03  0.00000000000E+00 0. -1.
         24    2    1    2    0    0 -0.33854724588E+02 -0.19599371349E+02 -0.37822263300E+02  0.96826170301E+02  0.80090610684E+02 0.  0.
         23    2    1    2    0    0  0.57355328012E+02  0.37803448258E+02 -0.29201496936E+03  0.31179681918E+03  0.85004586743E+02 0.  0.
        -13    1    3    3    0    0 -0.15828938334E+02 -0.37559060461E+02  0.10609762216E+02  0.42116568779E+02  0.00000000000E+00 0.  1.
         14    1    3    3    0    0 -0.18025786254E+02  0.17959689111E+02 -0.48432025516E+02  0.54709601521E+02  0.00000000000E+00 0. -1.
        -13    1    4    4    0    0  0.62271980808E+02  0.59357055018E+02 -0.21217279328E+03  0.22895054877E+03  0.00000000000E+00 0. -1.
         13    1    4    4    0    0 -0.49166527961E+01 -0.21553606760E+02 -0.79842176084E+02  0.82846270410E+02  0.00000000000E+00 0.  1.
         21    1    1    2  502  501 -0.23500603424E+02 -0.18204076909E+02 -0.34641879493E+02  0.45647854190E+02  0.00000000000E+00 0.  1.
<scales pt_clust_5="13000.00000" pt_clust_6="13000.00000" pt_clust_7="13000.00000" pt_clust_8="13000.00000" pt_clust_9="29.72653"></scales>
<clustering>
<clus scale="   29.727">  1  9  2 -1</clus>
<clus scale="   80.091">  5  6 -1 -1</clus>
<clus scale="   85.005">  7  8 -1 -1</clus>
<clus scale="  100.829">  1  5  2 -1</clus>
<clus scale="  104.775">  2  5  1 -1</clus>
</clustering>
</event>
<event>
 9    2  0.6066854E-005  0.1039674E+03  0.7546771E-02  0.1278681E+00
          2   -1    0    0  502    0  0.00000000000E+00  0.00000000000E+00  0.10784607670E+04  0.10784607670E+04  0.00000000000E+00 0. -1.
         -1   -1    0    0    0  501 -0.00000000000E+00 -0.00000000000E+00 -0.25125259419E+02  0.25125259419E+02  0.00000000000E+00 0.  1.
         23    2    1    2    0    0 -0.29582827577E+02 -0.67675929111E+02  0.16904420553E+03  0.20567164299E+03  0.90937925189E+02 0.  0.
         24    2    1    2    0    0  0.30993656816E+02  0.36155730123E+02  0.83170030640E+03  0.83658473149E+03  0.76686176810E+02 0.  0.
        -13    1    4    4    0    0 -0.13511556250E+02  0.29518037154E+02  0.15360101744E+03  0.15699410571E+03  0.00000000000E+00 0.  1.
         14    1    4    4    0    0  0.44505213067E+02  0.66376929695E+01  0.67809928896E+03  0.67959062578E+03  0.00000000000E+00 0. -1.
        -11    1    3    3    0    0  0.22407045613E+02 -0.35059638303E+02  0.12031077148E+03  0.12730253597E+03  0.00000000000E+00 0. -1.
         11    1    3    3    0    0 -0.51989873190E+02 -0.32616290808E+02  0.48733434057E+02  0.78369107022E+02  0.00000000000E+00 0.  1.
         21    1    1    2  502  501 -0.14108292393E+01  0.31520198988E+02  0.52590995635E+02  0.61329651925E+02  0.00000000000E+00 0.  1.
<scales pt_clust_5="13000.00000" pt_clust_6="13000.00000" pt_clust_7="13000.00000" pt_clust_8="13000.00000" pt_clust_9="31.55176"></scales>
<clustering>
<clus scale="   31.552">  2  9  1 -1</clus>
<clus scale="   76.686">  5  6 -1 -1</clus>
<clus scale="   90.938">  7  8 -1 -1</clus>
<clus scale="   91.762">  1  5  2 -1</clus>
<clus scale="   91.762">  1  5  2 -1</clus>
</clustering>
</event>
<event>
 9    2  0.6066854E-005  0.2125850E+03  0.7546771E-02  0.1140485E+00
          2   -1    0    0  502    0  0.00000000000E+00  0.00000000000E+00  0.33366021229E+03  0.33366021229E+03  0.00000000000E+00 0. -1.
         -1   -1    0    0    0  501 -0.00000000000E+00 -0.00000000000E+00 -0.77077426463E+03  0.77077426463E+03  0.00000000000E+00 0.  1.
         23    2    1    2    0    0 -0.21661396261E+03 -0.18373356768E+01 -0.57088315071E+03  0.61733642112E+03  0.90948889429E+02 0.  0.
         24    2    1    2    0    0  0.19070521495E+03  0.29698794831E+01  0.27479272348E+03  0.34370974143E+03  0.79044584145E+02 0.  0.
        -13    1    4    4    0    0  0.72181189069E+02  0.13662222543E+02  0.48487182931E+02  0.88021516056E+02  0.00000000000E+00 0.  1.
         14    1    4    4    0    0  0.11852402588E+03 -0.10692343060E+02  0.22630554055E+03  0.25568822537E+03  0.00000000000E+00 0. -1.
        -11    1    3    3    0    0 -0.13142368623E+03  0.26648439009E+02 -0.42843913392E+03  0.44893475704E+03  0.00000000000E+00 0.  1.
         11    1    3    3    0    0 -0.85190276378E+02 -0.28485774685E+02 -0.14244401679E+03  0.16840166409E+03  0.00000000000E+00 0. -1.
         21    1    1    2  502  501  0.25908747661E+02 -0.11325438063E+01 -0.14102362510E+03  0.14338831437E+03  0.00000000000E+00 0.  1.
<scales pt_clust_5="13000.00000" pt_clust_6="13000.00000" pt_clust_7="13000.00000" pt_clust_8="13000.00000" pt_clust_9="25.93349"></scales>
<clustering>
<clus scale="   25.933">  2  9  1 -1</clus>
<clus scale="   79.045">  5  6 -1 -1</clus>
<clus scale="   90.949">  7  8 -1 -1</clus>
<clus scale="  207.771">  1  5  2 -1</clus>
<clus scale="  207.771">  1  5  2 -1</clus>
</clustering>
</event>
<event>
 9    2  0.6066854E-005  0.1907758E+03  0.7546771E-02  0.1189839E+00
         -1   -1    0    0    0  501 -0.00000000000E+00  0.00000000000E+00  0.10599718638E+04  0.10599718638E+04  0.00000000000E+00 0.  1.
          2   -1    0    0  502    0  0.00000000000E+00 -0.00000000000E+00 -0.17676627651E+03  0.17676627651E+03  0.00000000000E+00 0. -1.
         23    2    1    2    0    0  0.17926067658E+03 -0.93229857819E+02  0.34991902229E+02  0.22428489978E+03  0.90846499592E+02 0.  0.
         24    2    1    2    0    0 -0.44785523433E+02 -0.26575875879E+01 -0.46158881802E+02  0.10295873403E+03  0.80355787981E+02 0.  0.
        -13    1    4    4    0    0 -0.59282176190E+02 -0.21780685020E+02 -0.17413212436E+02  0.65513316364E+02  0.00000000000E+00 0.  1.
         14    1    4    4    0    0  0.14496652757E+02  0.19123097432E+02 -0.28745669366E+02  0.37445417661E+02  0.00000000000E+00 0. -1.
        -11    1    3    3    0    0  0.11935424913E+03 -0.11165850885E+02  0.21528413400E+02  0.12179320833E+03  0.00000000000E+00 0. -1.
         11    1    3    3    0    0  0.59906427451E+02 -0.82064006934E+02  0.13463488828E+02  0.10249169145E+03  0.00000000000E+00 0.  1.
         21    1    1    2  502  501 -0.13447515315E+03  0.95887445407E+02  0.89437256688E+03  0.90949450652E+03  0.00000000000E+00 0.  1.
<scales pt_clust_5="13000.00000" pt_clust_6="13000.00000" pt_clust_7="13000.00000" pt_clust_8="13000.00000" pt_clust_9="167.75678"></scales>
<clustering>
<clus scale="   80.356">  5  6 -1 -1</clus>
<clus scale="   90.846">  7  8 -1 -1</clus>
<clus scale="   92.032">  2  5  1 -1</clus>
<clus scale="  167.757">  1  9  2 -1</clus>
<clus scale="   92.032">  2  5  1 -1</clus>
</clustering>
</event>
<event>
 9    2  0.6066854E-005  0.1568926E+03  0.7546771E-02  0.1194296E+00
         -3   -1    0    0    0  501 -0.00000000000E+00  0.00000000000E+00  0.36011858495E+03  0.36011858495E+03  0.00000000000E+00 0.  1.
          4   -1    0    0  502    0  0.00000000000E+00 -0.00000000000E+00 -0.11168593670E+03  0.11168593670E+03  0.00000000000E+00 0. -1.
         23    2    1    2    0    0 -0.99743507070E+02 -0.24686700516E+02  0.21406139780E+03  0.25530033139E+03  0.93796464720E+02 0.  0.
         24    2    1    2    0    0  0.12606992863E+03  0.41453788384E+02 -0.16587923444E+02  0.15674590119E+03  0.81743959159E+02 0.  0.
        -13    1    4    4    0    0  0.55585504352E+02 -0.21812474655E+02  0.39085661156E+01  0.59839863249E+02  0.00000000000E+00 0.  1.
         14    1    4    4    0    0  0.70484424280E+02  0.63266263039E+02 -0.20496489560E+02  0.96906037940E+02  0.00000000000E+00 0. -1.
        -13    1    3    3    0    0 -0.72153589096E+01 -0.37248343076E+02  0.10544722838E+03  0.11206524189E+03  0.00000000000E+00 0.  1.
         13    1    3    3    0    0 -0.92528148160E+02  0.12561642560E+02  0.10861416942E+03  0.14323508950E+03  0.00000000000E+00 0. -1.
         21    1    1    2  502  501 -0.26326421562E+02 -0.16767087868E+02  0.50959173897E+02  0.59758289066E+02  0.00000000000E+00 0.  1.
<scales pt_clust_5="13000.00000" pt_clust_6="13000.00000" pt_clust_7="13000.00000" pt_clust_8="13000.00000" pt_clust_9="31.21243"></scales>
<clustering>
<clus scale="   31.212">  1  9  2 -1</clus>
<clus scale="   81.744">  5  6 -1 -1</clus>
<clus scale="   93.796">  7  8 -1 -1</clus>
<clus scale="  149.999">  2  5  1 -1</clus>
<clus scale="  149.999">  2  5  1 -1</clus>
</clustering>
</event>
<event>
 9    2  0.6066854E-005  0.1099577E+03  0.7546771E-02  0.1265320E+00
          2   -1    0    0  502    0  0.00000000000E+00  0.00000000000E+00  0.59153277953E+02  0.59153277953E+02  0.00000000000E+00 0. -1.
         -1   -1    0    0    0  501 -0.00000000000E+00 -0.00000000000E+00 -0.23804173848E+03  0.23804173848E+03  0.00000000000E+00 0.  1.
         23    2    1    2    0    0 -0.22858860881E+02 -0.49945362685E+02 -0.91558096501E+02  0.14181598810E+03  0.93337145188E+02 0.  0.
         24    2    1    2    0    0  0.46800548167E+02  0.42082974731E+02 -0.67743034585E+02  0.12346218311E+03  0.81807847131E+02 0.  0.
        -11    1    4    4    0    0  0.42390164490E+01 -0.23905682704E+02 -0.11438427928E+02  0.26838192179E+02  0.00000000000E+00 0.  1.
         12    1    4    4    0    0  0.42561531718E+02  0.65988657435E+02 -0.56304606657E+02  0.96623990929E+02  0.00000000000E+00 0. -1.
        -11    1    3    3    0    0  0.28407383976E+02 -0.33505595233E+02 -0.11619207957E+02  0.45437983778E+02  0.00000000000E+00 0. -1.
         11    1    3    3    0    0 -0.51266244857E+02 -0.16439767452E+02 -0.79938888545E+02  0.96378004323E+02  0.00000000000E+00 0.  1.
         21    1    1    2  502  501 -0.23941687286E+02  0.78623879545E+01 -0.19587329446E+02  0.31916845227E+02  0.00000000000E+00 0.  1.
<scales pt_clust_5="13000.00000" pt_clust_6="13000.00000" pt_clust_7="13000.00000" pt_clust_8="13000.00000" pt_clust_9="25.19963"></scales>
<clustering>
<clus scale="   25.200">  2  9  1 -1</clus>
<clus scale="   81.808">  5  6 -1 -1</clus>
<clus scale="   93.337">  7  8 -1 -1</clus>
<clus scale="  100.356">  1  5  2 -1</clus>
<clus scale="  100.356">  1  5  2 -1</clus>
</clustering>
</event>
<event>
 9    2  0.6066854E-005  0.1261103E+03  0.7546771E-02  0.1235761E+00
         -1   -1    0    0    0  501 -0.00000000000E+00  0.00000000000E+00  0.13604457182E+03  0.13604457182E+03  0.00000000000E+00 0.  1.
          2   -1    0    0  502    0  0.00000000000E+00 -0.00000000000E+00 -0.21555437318E+03  0.21555437318E+03  0.00000000000E+00 0. -1.
         23    2    1    2    0    0 -0.78426025386E+02 -0.42826424677E+02  0.57374861169E+02  0.13923925999E+03  0.90060827881E+02 0.  0.
         24    2    1    2    0    0  0.89106656459E+02  0.96826393954E+01 -0.12855938749E+03  0.17655610157E+03  0.81306771922E+02 0.  0.
        -13    1    4    4    0    0  0.34250842730E+02 -0.18472067377E+02 -0.60187550879E+01  0.39377187732E+02  0.00000000000E+00 0.  1.
         14    1    4    4    0    0  0.54855813729E+02  0.28154706772E+02 -0.12254063240E+03  0.13717891384E+03  0.00000000000E+00 0. -1.
        -11    1    3    3    0    0 -0.68250038520E+02 -0.66878030453E+02  0.27238023394E+02  0.99361202859E+02  0.00000000000E+00 0.  1.
         11    1    3    3    0    0 -0.10175986866E+02  0.24051605776E+02  0.30136837775E+02  0.39878057127E+02  0.00000000000E+00 0. -1.
         21    1    1    2  502  501 -0.10680631072E+02  0.33143785282E+02 -0.83252750350E+01  0.35803583442E+02  0.00000000000E+00 0. -1.
<scales pt_clust_5="13000.00000" pt_clust_6="13000.00000" pt_clust_7="13000.00000" pt_clust_8="13000.00000" pt_clust_9="34.82221"></scales>
<clustering>
<clus scale="   34.822">  2  9  1 -1</clus>
<clus scale="   81.307">  5  6 -1 -1</clus>
<clus scale="   90.061">  7  8 -1 -1</clus>
<clus scale="  120.015">  2  5  1 -1</clus>
<clus scale="   34.822">  2  5  1 -1</clus>
</clustering>
</event>
<event>
 9    2  0.6066854E-005  0.1051624E+03  0.7546771E-02  0.1274968E+00
         -1   -1    0    0    0  501 -0.00000000000E+00  0.00000000000E+00  0.20367338407E+03  0.20367338407E+03  0.00000000000E+00 0.  1.
          2   -1    0    0  502    0  0.00000000000E+00 -0.00000000000E+00 -0.88392052555E+03  0.88392052555E+03  0.00000000000E+00 0. -1.
         23    2    1    2    0    0 -0.28104411664E+02  0.39855513942E+02  0.95522350565E+02  0.14137127877E+03  0.92103197858E+02 0.  0.
         24    2    1    2    0    0  0.43628939567E+02 -0.26198831769E+02 -0.85706259913E+03  0.86234125513E+03  0.80537434259E+02 0.  0.
        -11    1    4    4    0    0  0.16699463134E+01  0.24266377189E+02 -0.12513478708E+03  0.12747690270E+03  0.00000000000E+00 0.  1.
         12    1    4    4    0    0  0.41958993254E+02 -0.50465208959E+02 -0.73192781205E+03  0.73486435244E+03  0.00000000000E+00 0. -1.
        -11    1    3    3    0    0 -0.20386890879E+02  0.49141068982E+01  0.10274738181E+03  0.10486561989E+03  0.00000000000E+00 0.  1.
         11    1    3    3    0    0 -0.77175207843E+01  0.34941407044E+02 -0.72250312459E+01  0.36505658873E+02  0.00000000000E+00 0. -1.
         21    1    1    2  502  501 -0.15524527903E+02 -0.13656682172E+02  0.81293107087E+02  0.83881375731E+02  0.00000000000E+00 0.  1.
<scales pt_clust_5="13000.00000" pt_clust_6="13000.00000" pt_clust_7="13000.00000" pt_clust_8="13000.00000" pt_clust_9="20.67646"></scales>
<clustering>
<clus scale="   20.676">  1  9  2 -1</clus>
<clus scale="   80.537">  5  6 -1 -1</clus>
<clus scale="   92.103">  7  8 -1 -1</clus>
<clus scale="   95.197">  2  5  1 -1</clus>
<clus scale="   95.197">  2  5  1 -1</clus>
</clustering>
</event>
<event>
 9    2  0.6066854E-005  0.1346275E+03  0.7546771E-02  0.1230145E+00
         -1   -1    0    0    0  501 -0.00000000000E+00  0.00000000000E+00  0.37749840899E+02  0.37749840899E+02  0.00000000000E+00 0.  1.
          2   -1    0    0  502    0  0.00000000000E+00 -0.00000000000E+00 -0.68130251770E+03  0.68130251770E+03  0.00000000000E+00 0. -1.
         23    2    1    2    0    0  0.83719570230E+02  0.43638992456E+02 -0.19424864109E+03  0.24486498370E+03  0.11538196382E+03 0.  0.
         24    2    1    2    0    0 -0.51149174398E+02 -0.36248136807E+02 -0.40436964202E+03  0.41820027667E+03  0.86293096798E+02 0.  0.
        -11    1    4    4    0    0  0.11965851612E+02 -0.28879586060E+02 -0.56469944888E+02  0.64545075501E+02  0.00000000000E+00 0.  1.
         12    1    4    4    0    0 -0.63115026010E+02 -0.73685507472E+01 -0.34789969713E+03  0.35365520117E+03  0.00000000000E+00 0. -1.
        -11    1    3    3    0    0  0.40871159407E+02 -0.59303373961E+01 -0.15463887685E+01  0.41328100502E+02  0.00000000000E+00 0.  1.
         11    1    3    3    0    0  0.42848410823E+02  0.49569329852E+02 -0.19270225232E+03  0.20353688319E+03  0.00000000000E+00 0. -1.
         21    1    1    2  502  501 -0.32570395832E+02 -0.73908556486E+01 -0.44934393693E+02  0.55987098232E+02  0.00000000000E+00 0. -1.
<scales pt_clust_5="13000.00000" pt_clust_6="13000.00000" pt_clust_7="13000.00000" pt_clust_8="13000.00000" pt_clust_9="33.39843"></scales>
<clustering>
<clus scale="   33.398">  1  9  2 -1</clus>
<clus scale="   86.293">  5  6 -1 -1</clus>
<clus scale="  110.716">  2  5  1 -1</clus>
<clus scale="  115.382">  7  8 -1 -1</clus>
<clus scale="  110.716">  2  5  1 -1</clus>
</clustering>
</event>
<event>
 9    2  0.6066854E-005  0.9671614E+02  0.7546771E-02  0.1292388E+00
          2   -1    0    0  502    0  0.00000000000E+00  0.00000000000E+00  0.52355800323E+03  0.52355800323E+03  0.00000000000E+00 0. -1.
         -1   -1    0    0    0  501 -0.00000000000E+00 -0.00000000000E+00 -0.36433302088E+02  0.36433302088E+02  0.00000000000E+00 0.  1.
         23    2    1    2    0    0 -0.49480501016E+00 -0.10343101967E+01  0.68145449950E+02  0.11237813880E+03  0.89351715712E+02 0.  0.
         24    2    1    2    0    0 -0.38159921471E+02  0.26807233337E+02  0.36433955367E+03  0.37589198421E+03  0.79854029721E+02 0.  0.
        -13    1    4    4    0    0 -0.61414641111E+02  0.69069266714E+01  0.23694010305E+03  0.24486746662E+03  0.00000000000E+00 0.  1.
         14    1    4    4    0    0  0.23254719640E+02  0.19900306665E+02  0.12739945062E+03  0.13102451759E+03  0.00000000000E+00 0. -1.
        -11    1    3    3    0    0  0.36266923842E+02 -0.22049037124E+02  0.16367201270E+02  0.45489944828E+02  0.00000000000E+00 0.  1.
         11    1    3    3    0    0 -0.36761728852E+02  0.21014726927E+02  0.51778248679E+02  0.66888193968E+02  0.00000000000E+00 0. -1.
         21    1    1    2  502  501  0.38654726481E+02 -0.25772923140E+02  0.54639697527E+02  0.71721182313E+02  0.00000000000E+00 0.  1.
<scales pt_clust_5="13000.00000" pt_clust_6="13000.00000" pt_clust_7="13000.00000" pt_clust_8="13000.00000" pt_clust_9="46.45892"></scales>
<clustering>
<clus scale="   46.459">  2  9  1 -1</clus>
<clus scale="   79.854">  5  6 -1 -1</clus>
<clus scale="   88.017">  1  5  2 -1</clus>
<clus scale="   89.352">  7  8 -1 -1</clus>
<clus scale="   88.017">  1  5  2 -1</clus>
</clustering>
</event>
<event>
 9    2  0.6066854E-005  0.9781726E+02  0.7546771E-02  0.1289138E+00
          2   -1    0    0  502    0  0.00000000000E+00  0.00000000000E+00  0.40767996421E+03  0.40767996421E+03  0.00000000000E+00 0. -1.
         -1   -1    0    0    0  501 -0.00000000000E+00 -0.00000000000E+00 -0.50913119749E+02  0.50913119749E+02  0.00000000000E+00 0.  1.
         24    2    1    2    0    0  0.17978403315E+02  0.40842264484E+02  0.56931251263E+02  0.10943581174E+03  0.82120131309E+02 0.  0.
         23    2    1    2    0    0  0.40240976073E+02 -0.24472802429E+02  0.25289200498E+03  0.27259908586E+03  0.90208875474E+02 0.  0.
        -13    1    3    3    0    0  0.49950594395E+02  0.16398956854E+02  0.25846663889E+02  0.58583595831E+02  0.00000000000E+00 0.  1.
         14    1    3    3    0    0 -0.31972191080E+02  0.24443307630E+02  0.31084587374E+02  0.50852215906E+02  0.00000000000E+00 0. -1.
        -11    1    4    4    0    0 -0.14455848273E+02  0.24410644807E+02  0.67295197497E+02  0.73030779370E+02  0.00000000000E+00 0. -1.
         11    1    4    4    0    0  0.54696824346E+02 -0.48883447235E+02  0.18559680748E+03  0.19956830649E+03  0.00000000000E+00 0.  1.
         21    1    1    2  502  501 -0.58219379388E+02 -0.16369462055E+02  0.46943588220E+02  0.76558186364E+02  0.00000000000E+00 0. -1.
<scales pt_clust_5="13000.00000" pt_clust_6="13000.00000" pt_clust_7="13000.00000" pt_clust_8="13000.00000" pt_clust_9="60.47690"></scales>
<clustering>
<clus scale="   60.477">  2  9  1 -1</clus>
<clus scale="   82.120">  5  6 -1 -1</clus>
<clus scale="   90.209">  7  8 -1 -1</clus>
<clus scale="   90.412">  2  5  1 -1</clus>
<clus scale="   97.817">  1  5  2 -1</clus>
</clustering>
</event>
<event>
 9    2  0.6066854E-005  0.1193413E+03  0.7546771E-02  0.1249397E+00
         -1   -1    0    0    0  501 -0.00000000000E+00  0.00000000000E+00  0.13054031412E+03  0.13054031412E+03  0.00000000000E+00 0.  1.
          2   -1    0    0  502    0  0.00000000000E+00 -0.00000000000E+00 -0.35196847304E+03  0.35196847304E+03  0.00000000000E+00 0. -1.
         24    2    1    2    0    0 -0.44307642411E+02 -0.12413909299E+02  0.49447613149E+02  0.10398677036E+03  0.79062694388E+02 0.  0.
         23    2    1    2    0    0  0.75259424679E+02 -0.20286783378E+02 -0.30056830676E+03  0.32458691929E+03  0.94550656067E+02 0.  0.
        -13    1    3    3    0    0 -0.36243858014E+02  0.19936379300E+02  0.56386488552E+02  0.69932199697E+02  0.00000000000E+00 0.  1.
         14    1    3    3    0    0 -0.80637843975E+01 -0.32350288599E+02 -0.69388754029E+01  0.34054570664E+02  0.00000000000E+00 0. -1.
        -13    1    4    4    0    0  0.11847153735E+02  0.34371661477E+02 -0.63504003905E+02  0.73174617705E+02  0.00000000000E+00 0.  1.
         13    1    4    4    0    0  0.63412270944E+02 -0.54658444855E+02 -0.23706430285E+03  0.25141230158E+03  0.00000000000E+00 0. -1.
         21    1    1    2  502  501 -0.30951782268E+02  0.32700692677E+02  0.29692534695E+02  0.53935097513E+02  0.00000000000E+00 0. -1.
<scales pt_clust_5="13000.00000" pt_clust_6="13000.00000" pt_clust_7="13000.00000" pt_clust_8="13000.00000" pt_clust_9="45.02608"></scales>
<clustering>
<clus scale="   45.026">  1  9  2 -1</clus>
<clus scale="   79.063">  5  6 -1 -1</clus>
<clus scale="   94.551">  7  8 -1 -1</clus>
<clus scale="  107.487">  1  5  2 -1</clus>
<clus scale="  119.341">  2  5  1 -1</clus>
</clustering>
</event>
<event>
 9    2  0.6066854E-005  0.1021280E+03  0.7546771E-02  0.1280302E+00
          2   -1    0    0  502    0  0.00000000000E+00  0.00000000000E+00  0.16248692461E+04  0.16248692461E+04  0.00000000000E+00 0. -1.
         -1   -1    0    0    0  501 -0.00000000000E+00 -0.00000000000E+00 -0.12814716847E+02  0.12814716847E+02  0.00000000000E+00 0.  1.
         23    2    1    2    0    0 -0.32586786836E+02 -0.37742824900E+02  0.27064682211E+03  0.28976957529E+03  0.90720917871E+02 0.  0.
         24    2    1    2    0    0 -0.10186888976E+01  0.44603670510E+02  0.11237564075E+04  0.11275771747E+04  0.81309877771E+02 0.  0.
        -11    1    4    4    0    0 -0.21508584308E+02  0.21950707545E+02  0.13941753396E+03  0.14276449676E+03  0.00000000000E+00 0.  1.
         12    1    4    4    0    0  0.20489895411E+02  0.22652962965E+02  0.98433887358E+03  0.98481267792E+03  0.00000000000E+00 0. -1.
        -13    1    3    3    0    0  0.31635375390E+02 -0.16387642947E+02  0.10236448356E+03  0.10838744998E+03  0.00000000000E+00 0. -1.
         13    1    3    3    0    0 -0.64222162226E+02 -0.21355181953E+02  0.16828233854E+03  0.18138212531E+03  0.00000000000E+00 0.  1.
         21    1    1    2  502  501  0.33605475734E+02 -0.68608456100E+01  0.21765129956E+03  0.22033721293E+03  0.00000000000E+00 0. -1.
<scales pt_clust_5="13000.00000" pt_clust_6="13000.00000" pt_clust_7="13000.00000" pt_clust_8="13000.00000" pt_clust_9="34.29868"></scales>
<clustering>
<clus scale="   34.299">  1  9  2 -1</clus>
<clus scale="   81.310">  5  6 -1 -1</clus>
<clus scale="   90.721">  7  8 -1 -1</clus>
<clus scale="   93.868">  1  5  2 -1</clus>
<clus scale="   34.299">  1  5  2 -1</clus>
</clustering>
</event>
<event>
 9    2  0.6066854E-005  0.9966232E+02  0.7546771E-02  0.1283793E+00
         -1   -1    0    0    0  501 -0.00000000000E+00  0.00000000000E+00  0.34358459874E+03  0.34358459874E+03  0.00000000000E+00 0.  1.
          2   -1    0    0  502    0  0.00000000000E+00 -0.00000000000E+00 -0.16355166188E+03  0.16355166188E+03  0.00000000000E+00 0. -1.
         23    2    1    2    0    0 -0.76204588877E+01  0.78516551425E+02  0.18212633346E+03  0.21871592569E+03  0.91889795792E+02 0.  0.
         24    2    1    2    0    0 -0.10926313911E+01 -0.35515933010E+02 -0.12609909103E+03  0.15688181061E+03  0.86303802931E+02 0.  0.
        -11    1    4    4    0    0  0.28320780135E+02  0.10919830982E+02 -0.17178171169E+02  0.34876910139E+02  0.00000000000E+00 0.  1.
         12    1    4    4    0    0 -0.29413411526E+02 -0.46435763992E+02 -0.10892091987E+03  0.12200490047E+03  0.00000000000E+00 0. -1.
        -11    1    3    3    0    0  0.21618546061E+02  0.25208657829E+02  0.78302199045E+01  0.34119646936E+02  0.00000000000E+00 0. -1.
         11    1    3    3    0    0 -0.29239004948E+02  0.53307893596E+02  0.17429611356E+03  0.18459627876E+03  0.00000000000E+00 0.  1.
         21    1    1    2  502  501  0.87130902788E+01 -0.43000618415E+02  0.12400569443E+03  0.13153852431E+03  0.00000000000E+00 0.  1.
<scales pt_clust_5="13000.00000" pt_clust_6="13000.00000" pt_clust_7="13000.00000" pt_clust_8="13000.00000" pt_clust_9="43.87449"></scales>
<clustering>
<clus scale="   43.874">  1  9  2 -1</clus>
<clus scale="   86.304">  5  6 -1 -1</clus>
<clus scale="   91.890">  7  8 -1 -1</clus>
<clus scale="   94.537">  2  5  1 -1</clus>
<clus scale="   94.537">  2  5  1 -1</clus>
</clustering>
</event>
<event>
 9    2  0.6066854E-005  0.1006019E+03  0.7546771E-02  0.1289238E+00
         -1   -1    0    0    0  501 -0.00000000000E+00  0.00000000000E+00  0.23456939124E+02  0.23456939124E+02  0.00000000000E+00 0.  1.
          2   -1    0    0  502    0  0.00000000000E+00 -0.00000000000E+00 -0.51308448756E+03  0.51308448756E+03  0.00000000000E+00 0. -1.
         23    2    1    2    0    0  0.35020465958E+02  0.63070161323E+01 -0.22833187541E+03  0.25101199073E+03  0.98006952155E+02 0.  0.
         24    2    1    2    0    0 -0.14579147347E+02  0.10232276616E+02 -0.23289088228E+03  0.24682248763E+03  0.79786755362E+02 0.  0.
        -13    1    4    4    0    0  0.12296471589E+02 -0.30521798603E+02 -0.96902142697E+02  0.10233674151E+03  0.00000000000E+00 0.  1.
         14    1    4    4    0    0 -0.26875618936E+02  0.40754075219E+02 -0.13598873958E+03  0.14448574613E+03  0.00000000000E+00 0. -1.
        -13    1    3    3    0    0 -0.25389816742E+02  0.16732661018E+02 -0.14143897167E+03  0.14467068621E+03  0.00000000000E+00 0. -1.
         13    1    3    3    0    0  0.60410282700E+02 -0.10425644886E+02 -0.86892903738E+02  0.10634130452E+03  0.00000000000E+00 0.  1.
         21    1    1    2  502  501 -0.20441318611E+02 -0.16539292748E+02 -0.28404790739E+02  0.38706948318E+02  0.00000000000E+00 0.  1.
<scales pt_clust_5="13000.00000" pt_clust_6="13000.00000" pt_clust_7="13000.00000" pt_clust_8="13000.00000" pt_clust_9="26.29440"></scales>
<clustering>
<clus scale="   26.294">  1  9  2 -1</clus>
<clus scale="   79.787">  5  6 -1 -1</clus>
<clus scale="   82.954">  2  5  1 -1</clus>
<clus scale="   98.007">  7  8 -1 -1</clus>
<clus scale="   82.954">  2  5  1 -1</clus>
</clustering>
</event>
<event>
 9    2  0.6066854E-005  0.9195465E+02  0.7546771E-02  0.1306344E+00
         -1   -1    0    0    0  501 -0.00000000000E+00  0.00000000000E+00  0.23966905796E+02  0.23966905796E+02  0.00000000000E+00 0.  1.
          2   -1    0    0  502    0  0.00000000000E+00 -0.00000000000E+00 -0.42907745659E+03  0.42907745659E+03  0.00000000000E+00 0. -1.
         23    2    1    2    0    0 -0.45126893891E+01  0.26619064181E+01 -0.12601413957E+03  0.15605810832E+03  0.91908213396E+02 0.  0.
         24    2    1    2    0    0 -0.10092782299E+02  0.11905577304E+02 -0.23041386117E+03  0.24411355728E+03  0.79102935501E+02 0.  0.
        -13    1    4    4    0    0  0.11709513080E+02  0.18089782239E+02 -0.12273218412E+02  0.24798887238E+02  0.00000000000E+00 0.  1.
         14    1    4    4    0    0 -0.21802295379E+02 -0.61842049351E+01 -0.21814064275E+03  0.21931467004E+03  0.00000000000E+00 0. -1.
        -13    1    3    3    0    0 -0.24848150815E+02 -0.38009942386E+02 -0.75386784529E+02  0.88007690577E+02  0.00000000000E+00 0.  1.
         13    1    3    3    0    0  0.20335461426E+02  0.40671848804E+02 -0.50627355039E+02  0.68050417741E+02  0.00000000000E+00 0. -1.
         21    1    1    2  502  501  0.14605471688E+02 -0.14567483722E+02 -0.48682550059E+02  0.52872696787E+02  0.00000000000E+00 0.  1.
<scales pt_clust_5="13000.00000" pt_clust_6="13000.00000" pt_clust_7="13000.00000" pt_clust_8="13000.00000" pt_clust_9="20.62841"></scales>
<clustering>
<clus scale="   20.628">  2  9  1 -1</clus>
<clus scale="   79.103">  5  6 -1 -1</clus>
<clus scale="   79.157">  2  5  1 -1</clus>
<clus scale="   91.908">  7  8 -1 -1</clus>
<clus scale="   20.628">  2  5  1 -1</clus>
</clustering>
</event>
<event>
 9    2  0.6066854E-005  0.1076331E+03  0.7546771E-02  0.1270844E+00
          2   -1    0    0  502    0  0.00000000000E+00  0.00000000000E+00  0.83274348202E+02  0.83274348202E+02  0.00000000000E+00 0. -1.
         -1   -1    0    0    0  501 -0.00000000000E+00 -0.00000000000E+00 -0.24171138003E+03  0.24171138003E+03  0.00000000000E+00 0.  1.
         23    2    1    2    0    0  0.69724115063E+01 -0.73908501543E+02 -0.11668674572E+03  0.16686884898E+03  0.93372024780E+02 0.  0.
         24    2    1    2    0    0 -0.34244929685E+02  0.16468019198E+02 -0.17938896364E+02  0.90218561589E+02  0.79835292866E+02 0.  0.
        -13    1    4    4    0    0  0.55757729952E+01 -0.28066638179E+02 -0.73779000846E+01  0.29550953163E+02  0.00000000000E+00 0.  1.
         14    1    4    4    0    0 -0.39820702681E+02  0.44534657378E+02 -0.10560996280E+02  0.60667608426E+02  0.00000000000E+00 0. -1.
        -11    1    3    3    0    0 -0.10434041935E+02 -0.85148492963E+02 -0.11825020799E+03  0.14608985856E+03  0.00000000000E+00 0.  1.
         11    1    3    3    0    0  0.17406453442E+02  0.11239991420E+02  0.15634622719E+01  0.20778990419E+02  0.00000000000E+00 0. -1.
         21    1    1    2  502  501  0.27272518179E+02  0.57440482345E+02 -0.23811389746E+02  0.67898317663E+02  0.00000000000E+00 0. -1.
<scales pt_clust_5="13000.00000" pt_clust_6="13000.00000" pt_clust_7="13000.00000" pt_clust_8="13000.00000" pt_clust_9="63.58616"></scales>
<clustering>
<clus scale="   63.586">  1  9  2 -1</clus>
<clus scale="   79.835">  5  6 -1 -1</clus>
<clus scale="   93.372">  7  8 -1 -1</clus>
<clus scale="   96.126">  1  5  2 -1</clus>
<clus scale="   63.586">  1  5  2 -1</clus>
</clustering>
</event>
<event>
 9    2  0.6066854E-005  0.1356331E+03  0.7546771E-02  0.1221951E+00
          4   -1    0    0  502    0  0.00000000000E+00  0.00000000000E+00  0.22937836994E+03  0.22937836994E+03  0.00000000000E+00 0. -1.
         -3   -1    0    0    0  501 -0.00000000000E+00 -0.00000000000E+00 -0.17091313778E+03  0.17091313778E+03  0.00000000000E+00 0.  1.
         23    2    1    2    0    0 -0.10518702712E+03  0.45534195466E+02  0.82517380198E+01  0.14669115485E+03  0.91173077714E+02 0.  0.
         24    2    1    2    0    0  0.84214426376E+02 -0.44467716569E+02  0.12475843735E+03  0.17615401069E+03  0.79975748604E+02 0.  0.
        -11    1    4    4    0    0  0.63421271086E+02 -0.67981574476E+02  0.93197901631E+02  0.13164194226E+03  0.00000000000E+00 0.  1.
         12    1    4    4    0    0  0.20793155290E+02  0.23513857907E+02  0.31560535715E+02  0.44512068422E+02  0.00000000000E+00 0. -1.
        -11    1    3    3    0    0 -0.28244272796E+02  0.48427803568E+02 -0.26743433832E+02  0.62114429541E+02  0.00000000000E+00 0. -1.
         11    1    3    3    0    0 -0.76942754328E+02 -0.28936081015E+01  0.34995171852E+02  0.84576725311E+02  0.00000000000E+00 0.  1.
         21    1    1    2  502  501  0.20972600748E+02 -0.10664788971E+01 -0.74544943205E+02  0.77446342179E+02  0.00000000000E+00 0.  1.
<scales pt_clust_5="13000.00000" pt_clust_6="13000.00000" pt_clust_7="13000.00000" pt_clust_8="13000.00000" pt_clust_9="20.99970"></scales>
<clustering>
<clus scale="   21.000">  2  9  1 -1</clus>
<clus scale="   79.976">  5  6 -1 -1</clus>
<clus scale="   91.173">  7  8 -1 -1</clus>
<clus scale="  128.374">  1  5  2 -1</clus>
<clus scale="  128.374">  1  5  2 -1</clus>
</clustering>
</event>
<event>
 9    2  0.6066854E-005  0.9573277E+02  0.7546771E-02  0.1302677E+00
          2   -1    0    0  502    0  0.00000000000E+00  0.00000000000E+00  0.21856270673E+03  0.21856270673E+03  0.00000000000E+00 0. -1.
         -1   -1    0    0    0  501 -0.00000000000E+00 -0.00000000000E+00 -0.13001170334E+03  0.13001170334E+03  0.00000000000E+00 0.  1.
         23    2    1    2    0    0 -0.32724954741E+02 -0.57355575395E+01 -0.46369059216E+02  0.10812737086E+03  0.91856515250E+02 0.  0.
         24    2    1    2    0    0  0.79491526107E+01  0.26896661896E+02  0.17395563212E+03  0.18960012783E+03  0.70007335893E+02 0.  0.
        -13    1    4    4    0    0 -0.16326326540E+01  0.24606289241E+02  0.12143145276E+02  0.27488014421E+02  0.00000000000E+00 0.  1.
         14    1    4    4    0    0  0.95817852647E+01  0.22903726546E+01  0.16181248684E+03  0.16211211341E+03  0.00000000000E+00 0. -1.
        -13    1    3    3    0    0 -0.61462338439E+02 -0.15652843976E+02 -0.44867318225E+02  0.77689811530E+02  0.00000000000E+00 0.  1.
         13    1    3    3    0    0  0.28737383698E+02  0.99172864364E+01 -0.15017409903E+01  0.30437559331E+02  0.00000000000E+00 0. -1.
         21    1    1    2  502  501  0.24775802130E+02 -0.21161104356E+02 -0.39035569519E+02  0.50846911376E+02  0.00000000000E+00 0.  1.
<scales pt_clust_5="13000.00000" pt_clust_6="13000.00000" pt_clust_7="13000.00000" pt_clust_8="13000.00000" pt_clust_9="32.58271"></scales>
<clustering>
<clus scale="   32.583">  2  9  1 -1</clus>
<clus scale="   70.007">  5  6 -1 -1</clus>
<clus scale="   75.021">  1  5  2 -1</clus>
<clus scale="   91.857">  7  8 -1 -1</clus>
<clus scale="   75.021">  1  5  2 -1</clus>
</clustering>
</event>
<event>
 9    2  0.6066854E-005  0.1029222E+03  0.7546771E-02  0.1279446E+00
          2   -1    0    0  502    0  0.00000000000E+00  0.00000000000E+00  0.78022795733E+03  0.78022795733E+03  0.00000000000E+00 0. -1.
         -1   -1    0    0    0  501 -0.00000000000E+00 -0.00000000000E+00 -0.15776170327E+03  0.15776170327E+03  0.00000000000E+00 0.  1.
         23    2    1    2    0    0  0.72237633410E+02 -0.74691597400E+02 -0.91111291742E+02  0.16527909268E+03  0.90657600848E+02 0.  0.
         24    2    1    2    0    0 -0.26946651028E+02  0.39070409078E+02  0.70888109134E+03  0.71489881455E+03  0.79468827313E+02 0.  0.
        -11    1    4    4    0    0 -0.12217590030E+02  0.17671250894E+02  0.39093926654E+02  0.44608045412E+02  0.00000000000E+00 0.  1.
         12    1    4    4    0    0 -0.14729060997E+02  0.21399158184E+02  0.66978716469E+03  0.67029076914E+03  0.00000000000E+00 0. -1.
        -13    1    3    3    0    0  0.25708219559E+02 -0.68452397461E+02 -0.13178708698E+02  0.74298866977E+02  0.00000000000E+00 0. -1.
         13    1    3    3    0    0  0.46529413851E+02 -0.62391999391E+01 -0.77932583044E+02  0.90980225704E+02  0.00000000000E+00 0.  1.
         21    1    1    2  502  501 -0.45290982383E+02  0.35621188322E+02  0.46964544622E+01  0.57811753365E+02  0.00000000000E+00 0. -1.
<scales pt_clust_5="13000.00000" pt_clust_6="13000.00000" pt_clust_7="13000.00000" pt_clust_8="13000.00000" pt_clust_9="57.62067"></scales>
<clustering>
<clus scale="   57.621">  2  9  1 -1</clus>
<clus scale="   79.469">  5  6 -1 -1</clus>
<clus scale="   90.658">  7  8 -1 -1</clus>
<clus scale="   93.217">  1  5  2 -1</clus>
<clus scale="   93.217">  1  5  2 -1</clus>
</clustering>
</event>
<event>
 9    2  0.6066854E-005  0.1045454E+03  0.7546771E-02  0.1278060E+00
          2   -1    0    0  502    0  0.00000000000E+00  0.00000000000E+00  0.40313449283E+03  0.40313449283E+03  0.00000000000E+00 0. -1.
         -1   -1    0    0    0  501 -0.00000000000E+00 -0.00000000000E+00 -0.20070103634E+03  0.20070103634E+03  0.00000000000E+00 0.  1.
         23    2    1    2    0    0 -0.65062725129E+02  0.14323814744E+02 -0.13317630351E+03  0.17646796759E+03  0.94692586300E+02 0.  0.
         24    2    1    2    0    0  0.20727032941E+02 -0.39166731889E+02  0.35970905574E+03  0.37112167116E+03  0.79856416398E+02 0.  0.
        -13    1    4    4    0    0  0.24899571794E+02 -0.45647899445E+02  0.11407567223E+03  0.12536737372E+03  0.00000000000E+00 0.  1.
         14    1    4    4    0    0 -0.41725388530E+01  0.64811675560E+01  0.24563338351E+03  0.24575429744E+03  0.00000000000E+00 0. -1.
        -13    1    3    3    0    0 -0.15148382568E+02 -0.36849488717E+02 -0.72401520531E+02  0.82639811763E+02  0.00000000000E+00 0. -1.
         13    1    3    3    0    0 -0.49914342560E+02  0.51173303461E+02 -0.60774782980E+02  0.93828155831E+02  0.00000000000E+00 0.  1.
         21    1    1    2  502  501  0.44335692187E+02  0.24842917145E+02 -0.24099295735E+02  0.56245890418E+02  0.00000000000E+00 0.  1.
<scales pt_clust_5="13000.00000" pt_clust_6="13000.00000" pt_clust_7="13000.00000" pt_clust_8="13000.00000" pt_clust_9="50.82149"></scales>
<clustering>
<clus scale="   50.821">  2  9  1 -1</clus>
<clus scale="   79.856">  5  6 -1 -1</clus>
<clus scale="   91.324">  1  5  2 -1</clus>
<clus scale="   94.693">  7  8 -1 -1</clus>
<clus scale="   91.324">  1  5  2 -1</clus>
</clustering>
</event>
<event>
 9    2  0.6066854E-005  0.1051779E+03  0.7546771E-02  0.1275139E+00
         -1   -1    0    0    0  501 -0.00000000000E+00  0.00000000000E+00  0.27265417786E+03  0.27265417786E+03  0.00000000000E+00 0.  1.
          2   -1    0    0  502    0  0.00000000000E+00 -0.00000000000E+00 -0.57665209689E+02  0.57665209689E+02  0.00000000000E+00 0. -1.
         23    2    1    2    0    0 -0.34060099840E+02 -0.50414691918E+02  0.10978708184E+03  0.15622981143E+03  0.93020530408E+02 0.  0.
         24    2    1    2    0    0  0.43841428959E+02  0.15429998364E+02  0.45011734230E+02  0.10378696172E+03  0.81151225875E+02 0.  0.
        -13    1    4    4    0    0  0.10521008494E+02 -0.31864872898E+02  0.27369594264E+02  0.43303076504E+02  0.00000000000E+00 0.  1.
         14    1    4    4    0    0  0.33320420465E+02  0.47294871262E+02  0.17642139966E+02  0.60483885211E+02  0.00000000000E+00 0. -1.
        -11    1    3    3    0    0 -0.34481527433E+02 -0.75692868625E+02  0.97381319824E+02  0.12806837059E+03  0.00000000000E+00 0.  1.
         11    1    3    3    0    0  0.42142759324E+00  0.25278176707E+02  0.12405762018E+02  0.28161440839E+02  0.00000000000E+00 0. -1.
         21    1    1    2  502  501 -0.97813291193E+01  0.34984693555E+02  0.60190152097E+02  0.70302614403E+02  0.00000000000E+00 0. -1.
<scales pt_clust_5="13000.00000" pt_clust_6="13000.00000" pt_clust_7="13000.00000" pt_clust_8="13000.00000" pt_clust_9="36.32634"></scales>
<clustering>
<clus scale="   36.326">  1  9  2 -1</clus>
<clus scale="   81.151">  5  6 -1 -1</clus>
<clus scale="   93.021">  7  8 -1 -1</clus>
<clus scale="   94.842">  2  5  1 -1</clus>
<clus scale="   94.842">  2  5  1 -1</clus>
</clustering>
</event>
<event>
 9    2  0.6066854E-005  0.1932352E+03  0.7546771E-02  0.1157442E+00
          2   -1    0    0  502    0  0.00000000000E+00  0.00000000000E+00  0.12538329424E+04  0.12538329424E+04  0.00000000000E+00 0. -1.
         -1   -1    0    0    0  501 -0.00000000000E+00 -0.00000000000E+00 -0.60578444772E+02  0.60578444772E+02  0.00000000000E+00 0.  1.
         24    2    1    2    0    0  0.45106643843E+02  0.96846825154E+02  0.16169885099E+03  0.20771862932E+03  0.74743519401E+02 0.  0.
         23    2    1    2    0    0 -0.12896824655E+02 -0.21281717187E+03  0.89452534571E+03  0.92430883001E+03  0.93347428393E+02 0.  0.
        -13    1    3    3    0    0 -0.17160993325E+02  0.36595545766E+02  0.31137638055E+02  0.51022408464E+02  0.00000000000E+00 0.  1.
         14    1    3    3    0    0  0.62267637169E+02  0.60251279388E+02  0.13056121293E+03  0.15669622085E+03  0.00000000000E+00 0. -1.
        -11    1    4    4    0    0  0.36395461787E+02 -0.98495804314E+02  0.48698477467E+03  0.49817690017E+03  0.00000000000E+00 0. -1.
         11    1    4    4    0    0 -0.49292286442E+02 -0.11432136755E+03  0.40754057105E+03  0.42613192984E+03  0.00000000000E+00 0.  1.
         21    1    1    2  502  501 -0.32209819188E+02  0.11597034671E+03  0.13703030097E+03  0.18238392789E+03  0.00000000000E+00 0. -1.
<scales pt_clust_5="13000.00000" pt_clust_6="13000.00000" pt_clust_7="13000.00000" pt_clust_8="13000.00000" pt_clust_9="120.36027"></scales>
<clustering>
<clus scale="   74.744">  5  6 -1 -1</clus>
<clus scale="   93.347">  7  8 -1 -1</clus>
<clus scale="  120.360">  2  9  1 -1</clus>
<clus scale="  184.967">  2  5  1 -1</clus>
<clus scale="  193.235">  1  5  2 -1</clus>
</clustering>
</event>
<event>
 9    2  0.6066854E-005  0.1024120E+03  0.7546771E-02  0.1277438E+00
         -1   -1    0    0    0  501 -0.00000000000E+00  0.00000000000E+00  0.56008577335E+02  0.56008577335E+02  0.00000000000E+00 0.  1.
          2   -1    0    0  502    0  0.00000000000E+00 -0.00000000000E+00 -0.80724950995E+03  0.80724950995E+03  0.00000000000E+00 0. -1.
         23    2    1    2    0    0 -0.75197079317E+02 -0.29277784169E+02 -0.44809677072E+02  0.12496617582E+03  0.84242795282E+02 0.  0.
         24    2    1    2    0    0  0.19791539299E+02  0.55018612049E+02 -0.64198585473E+03  0.64949115825E+03  0.79209685482E+02 0.  0.
        -13    1    4    4    0    0  0.13465079515E+02  0.71688431409E+02 -0.38246048422E+03  0.38935403113E+03  0.00000000000E+00 0.  1.
         14    1    4    4    0    0  0.63264597847E+01 -0.16669819361E+02 -0.25952537050E+03  0.26013712712E+03  0.00000000000E+00 0. -1.
        -13    1    3    3    0    0 -0.42575411623E+02  0.60325363852E+01 -0.60653421464E+02  0.74349813082E+02  0.00000000000E+00 0. -1.
         13    1    3    3    0    0 -0.32621667694E+02 -0.35310320554E+02  0.15843744392E+02  0.50616362741E+02  0.00000000000E+00 0.  1.
         21    1    1    2  502  501  0.55405540018E+02 -0.25740827880E+02 -0.64445400812E+02  0.88800753209E+02  0.00000000000E+00 0. -1.
<scales pt_clust_5="13000.00000" pt_clust_6="13000.00000" pt_clust_7="13000.00000" pt_clust_8="13000.00000" pt_clust_9="61.09308"></scales>
<clustering>
<clus scale="   61.093">  1  9  2 -1</clus>
<clus scale="   79.210">  5  6 -1 -1</clus>
<clus scale="   84.243">  7  8 -1 -1</clus>
<clus scale="   98.314">  2  5  1 -1</clus>
<clus scale="   98.314">  2  5  1 -1</clus>
</clustering>
</event>
<event>
 9    2  0.6066854E-005  0.1154789E+03  0.7546771E-02  0.1254095E+00
          2   -1    0    0  502    0  0.00000000000E+00  0.00000000000E+00  0.88869713489E+03  0.88869713489E+03  0.00000000000E+00 0. -1.
         -1   -1    0    0    0  501 -0.00000000000E+00 -0.00000000000E+00 -0.36939344571E+02  0.36939344571E+02  0.00000000000E+00 0.  1.
         23    2    1    2    0    0  0.24453294542E+02  0.49283825904E+02  0.76284834360E+02  0.12945036606E+03  0.88944714339E+02 0.  0.
         24    2    1    2    0    0 -0.23330252104E+02 -0.72864744857E+02  0.76008905694E+03  0.76800836842E+03  0.79043708089E+02 0.  0.
        -13    1    4    4    0    0  0.15819158074E+02 -0.46328375857E+02  0.19913971610E+03  0.20506874628E+03  0.00000000000E+00 0.  1.
         14    1    4    4    0    0 -0.39149410178E+02 -0.26536369001E+02  0.56094934083E+03  0.56293962214E+03  0.00000000000E+00 0. -1.
        -13    1    3    3    0    0  0.36780591935E+02  0.70798939201E+02  0.58771646547E+02  0.99092926957E+02  0.00000000000E+00 0.  1.
         13    1    3    3    0    0 -0.12327297393E+02 -0.21515113298E+02  0.17513187813E+02  0.30357439098E+02  0.00000000000E+00 0. -1.
         21    1    1    2  502  501 -0.11230424377E+01  0.23580918954E+02  0.15383899019E+02  0.28177744978E+02  0.00000000000E+00 0.  1.
<scales pt_clust_5="13000.00000" pt_clust_6="13000.00000" pt_clust_7="13000.00000" pt_clust_8="13000.00000" pt_clust_9="23.60765"></scales>
<clustering>
<clus scale="   23.608">  2  9  1 -1</clus>
<clus scale="   79.044">  5  6 -1 -1</clus>
<clus scale="   88.945">  7  8 -1 -1</clus>
<clus scale="  108.038">  1  5  2 -1</clus>
<clus scale="  108.038">  1  5  2 -1</clus>
</clustering>
</event>
<event>
 9    2  0.6066854E-005  0.1032298E+03  0.7546771E-02  0.1278600E+00
         -1   -1    0    0    0  501 -0.00000000000E+00  0.00000000000E+00  0.31906159169E+03  0.31906159169E+03  0.00000000000E+00 0.  1.
          2   -1    0    0  502    0  0.00000000000E+00 -0.00000000000E+00 -0.41205786685E+03  0.41205786685E+03  0.00000000000E+00 0. -1.
         23    2    1    2    0    0 -0.58697673235E+01  0.64068611081E+02  0.15297585704E+03  0.18965767928E+03  0.91810573352E+02 0.  0.
         24    2    1    2    0    0  0.15325854017E+02 -0.44107204250E+02 -0.38727934905E+03  0.39843868717E+03  0.81165053810E+02 0.  0.
        -11    1    4    4    0    0  0.37471271744E+02  0.67778591387E+01 -0.16486432996E+03  0.16920485476E+03  0.00000000000E+00 0.  1.
         12    1    4    4    0    0 -0.22145417727E+02 -0.50885063389E+02 -0.22241501909E+03  0.22923383241E+03  0.00000000000E+00 0. -1.
        -13    1    3    3    0    0 -0.18798958908E+02  0.19130885702E+02 -0.28448450336E+01  0.26971925905E+02  0.00000000000E+00 0. -1.
         13    1    3    3    0    0  0.12929191584E+02  0.44937725379E+02  0.15582070207E+03  0.16268575337E+03  0.00000000000E+00 0.  1.
         21    1    1    2  502  501 -0.94560866938E+01 -0.19961406831E+02  0.14130721685E+03  0.14302309209E+03  0.00000000000E+00 0.  1.
<scales pt_clust_5="13000.00000" pt_clust_6="13000.00000" pt_clust_7="13000.00000" pt_clust_8="13000.00000" pt_clust_9="22.08790"></scales>
<clustering>
<clus scale="   22.088">  1  9  2 -1</clus>
<clus scale="   81.165">  5  6 -1 -1</clus>
<clus scale="   91.811">  7  8 -1 -1</clus>
<clus scale="   93.888">  2  5  1 -1</clus>
<clus scale="   93.888">  2  5  1 -1</clus>
</clustering>
</event>
<event>
 9    2  0.6066854E-005  0.9570499E+02  0.7546771E-02  0.1311214E+00
          2   -1    0    0  502    0  0.00000000000E+00  0.00000000000E+00  0.11343820960E+03  0.11343820960E+03  0.00000000000E+00 0. -1.
         -1   -1    0    0    0  501 -0.00000000000E+00 -0.00000000000E+00 -0.13910807576E+03  0.13910807576E+03  0.00000000000E+00 0.  1.
         23    2    1    2    0    0  0.42069442354E+02  0.99307546254E+01 -0.78650445379E+02  0.12816008466E+03  0.91491293984E+02 0.  0.
         24    2    1    2    0    0 -0.19763797224E+02 -0.18164352022E+02  0.70363388336E+02  0.94932915931E+02  0.57798795351E+02 0.  0.
        -11    1    4    4    0    0  0.10622789510E+02 -0.22503248707E+02  0.92571868518E+01  0.26550618971E+02  0.00000000000E+00 0.  1.
         12    1    4    4    0    0 -0.30386586734E+02  0.43388966845E+01  0.61106201484E+02  0.68382296960E+02  0.00000000000E+00 0. -1.
        -11    1    3    3    0    0  0.67784676310E+02  0.18664569382E+02 -0.71055729158E+02  0.99960217781E+02  0.00000000000E+00 0.  1.
         11    1    3    3    0    0 -0.25715233956E+02 -0.87338147564E+01 -0.75947162212E+01  0.28199866881E+02  0.00000000000E+00 0. -1.
         21    1    1    2  502  501 -0.22305645130E+02  0.82335973966E+01 -0.17382809122E+02  0.29453284770E+02  0.00000000000E+00 0. -1.
<scales pt_clust_5="13000.00000" pt_clust_6="13000.00000" pt_clust_7="13000.00000" pt_clust_8="13000.00000" pt_clust_9="23.77675"></scales>
<clustering>
<clus scale="   23.777">  2  9  1 -1</clus>
<clus scale="   57.799">  5  6 -1 -1</clus>
<clus scale="   64.261">  1  5  2 -1</clus>
<clus scale="   91.491">  7  8 -1 -1</clus>
<clus scale="   64.261">  1  5  2 -1</clus>
</clustering>
</event>
<event>
 9    2  0.6066854E-005  0.1727714E+03  0.7546771E-02  0.1175713E+00
         -1   -1    0    0    0  501 -0.00000000000E+00  0.00000000000E+00  0.54705604539E+02  0.54705604539E+02  0.00000000000E+00 0.  1.
          2   -1    0    0  502    0  0.00000000000E+00 -0.00000000000E+00 -0.11466437668E+04  0.11466437668E+04  0.00000000000E+00 0. -1.
         23    2    1    2    0    0 -0.64470597667E+02 -0.15372311060E+03 -0.20246596504E+03  0.27666831075E+03  0.88122837414E+02 0.  0.
         24    2    1    2    0    0  0.46550595737E+02  0.13719742426E+03 -0.88415183965E+03  0.89973048982E+03  0.82464462540E+02 0.  0.
        -13    1    4    4    0    0  0.27334910117E+02  0.17491167359E+01 -0.97625516906E+02  0.10139525764E+03  0.00000000000E+00 0.  1.
         14    1    4    4    0    0  0.19215685620E+02  0.13544830753E+03 -0.78652632274E+03  0.79833523218E+03  0.00000000000E+00 0. -1.
        -13    1    3    3    0    0 -0.42873806480E+02 -0.15888892627E+03 -0.16452396750E+03  0.23270580151E+03  0.00000000000E+00 0.  1.
         13    1    3    3    0    0 -0.21596791186E+02  0.51658156675E+01 -0.37941997543E+02  0.43962509239E+02  0.00000000000E+00 0. -1.
         21    1    1    2  502  501  0.17920001930E+02  0.16525686337E+02 -0.53203576023E+01  0.24950570797E+02  0.00000000000E+00 0. -1.
<scales pt_clust_5="13000.00000" pt_clust_6="13000.00000" pt_clust_7="13000.00000" pt_clust_8="13000.00000" pt_clust_9="24.37673"></scales>
<clustering>
<clus scale="   24.377">  1  9  2 -1</clus>
<clus scale="   82.464">  5  6 -1 -1</clus>
<clus scale="   88.123">  7  8 -1 -1</clus>
<clus scale="  169.955">  2  5  1 -1</clus>
<clus scale="  169.955">  2  5  1 -1</clus>
</clustering>
</event>
<event>
 9    2  0.6066854E-005  0.9203830E+02  0.7546771E-02  0.1305296E+00
          4   -1    0    0  502    0  0.00000000000E+00  0.00000000000E+00  0.75110990263E+03  0.75110990263E+03  0.00000000000E+00 0. -1.
         -3   -1    0    0    0  501 -0.00000000000E+00 -0.00000000000E+00 -0.17857878498E+02  0.17857878498E+02  0.00000000000E+00 0.  1.
         23    2    1    2    0    0 -0.23588428864E+02  0.14070826754E+02  0.17536552399E+03  0.19974235857E+03  0.91594435746E+02 0.  0.
         24    2    1    2    0    0  0.51338921259E+01  0.24804803297E+01  0.49800906528E+03  0.50441938196E+03  0.79958577827E+02 0.  0.
        -13    1    4    4    0    0  0.27454387925E+02  0.29221310621E+02  0.17483688185E+03  0.17937548235E+03  0.00000000000E+00 0.  1.
         14    1    4    4    0    0 -0.22320495800E+02 -0.26740830291E+02  0.32317218343E+03  0.32504389962E+03  0.00000000000E+00 0. -1.
        -11    1    3    3    0    0 -0.20640198428E+02 -0.30663219194E+02  0.13307090309E+03  0.13810907303E+03  0.00000000000E+00 0. -1.
         11    1    3    3    0    0 -0.29482304361E+01  0.44734045948E+02  0.42294620900E+02  0.61633285542E+02  0.00000000000E+00 0.  1.
         21    1    1    2  502  501  0.18454536738E+02 -0.16551307083E+02  0.59877434858E+02  0.64806040594E+02  0.00000000000E+00 0.  1.
<scales pt_clust_5="13000.00000" pt_clust_6="13000.00000" pt_clust_7="13000.00000" pt_clust_8="13000.00000" pt_clust_9="24.78943"></scales>
<clustering>
<clus scale="   24.789">  2  9  1 -1</clus>
<clus scale="   79.959">  5  6 -1 -1</clus>
<clus scale="   80.467">  1  5  2 -1</clus>
<clus scale="   91.594">  7  8 -1 -1</clus>
<clus scale="   80.467">  1  5  2 -1</clus>
</clustering>
</event>
<event>
 9    2  0.6066854E-005  0.1101331E+03  0.7546771E-02  0.1266532E+00
          2   -1    0    0  502    0  0.00000000000E+00  0.00000000000E+00  0.38556023596E+03  0.38556023596E+03  0.00000000000E+00 0. -1.
         -1   -1    0    0    0  501 -0.00000000000E+00 -0.00000000000E+00 -0.43986087124E+02  0.43986087124E+02  0.00000000000E+00 0.  1.
         24    2    1    2    0    0 -0.36355083377E+02  0.24211917030E+02  0.95344225173E+02  0.13206351854E+03  0.80264205236E+02 0.  0.
         23    2    1    2    0    0  0.67581046733E+02 -0.35365791522E+01  0.22725348208E+03  0.25549904913E+03  0.95162564692E+02 0.  0.
        -11    1    3    3    0    0  0.21387872735E+02  0.22078925210E+02  0.18354542531E+02  0.35802364029E+02  0.00000000000E+00 0.  1.
         12    1    3    3    0    0 -0.57742956113E+02  0.21329918195E+01  0.76989682643E+02  0.96261154513E+02  0.00000000000E+00 0. -1.
        -11    1    4    4    0    0  0.69500790534E+02 -0.30633090670E+02  0.10108501527E+03  0.12643941806E+03  0.00000000000E+00 0.  1.
         11    1    4    4    0    0 -0.19197438018E+01  0.27096511518E+02  0.12616846681E+03  0.12905963106E+03  0.00000000000E+00 0. -1.
         21    1    1    2  502  501 -0.31225963355E+02 -0.20675337877E+02  0.18976441590E+02  0.41983755421E+02  0.00000000000E+00 0. -1.
<scales pt_clust_5="13000.00000" pt_clust_6="13000.00000" pt_clust_7="13000.00000" pt_clust_8="13000.00000" pt_clust_9="37.45037"></scales>
<clustering>
<clus scale="   37.450">  2  9  1 -1</clus>
<clus scale="   80.264">  5  6 -1 -1</clus>
<clus scale="   95.163">  7  8 -1 -1</clus>
<clus scale="   97.549">  2  5  1 -1</clus>
<clus scale="  110.133">  1  5  2 -1</clus>
</clustering>
</event>
<event>
 9    2  0.6066854E-005  0.9333747E+02  0.7546771E-02  0.1298523E+00
          2   -1    0    0  502    0  0.00000000000E+00  0.00000000000E+00  0.63472636610E+03  0.63472636610E+03  0.00000000000E+00 0. -1.
         -1   -1    0    0    0  501 -0.00000000000E+00 -0.00000000000E+00 -0.27496211714E+03  0.27496211714E+03  0.00000000000E+00 0.  1.
         23    2    1    2    0    0  0.65258260479E+02  0.31310667834E+02 -0.20276907230E+03  0.23351812908E+03  0.90423566869E+02 0.  0.
         24    2    1    2    0    0 -0.22009188978E+02 -0.44937823391E+01  0.60416249088E+03  0.61042375505E+03  0.84262962542E+02 0.  0.
        -11    1    4    4    0    0 -0.49159093539E+02  0.67464275271E+01  0.23989241945E+03  0.24497041387E+03  0.00000000000E+00 0.  1.
         12    1    4    4    0    0  0.27149904562E+02 -0.11240209866E+02  0.36427007144E+03  0.36545334118E+03  0.00000000000E+00 0. -1.
        -13    1    3    3    0    0  0.63240369550E+02  0.10862993138E+02 -0.20307239716E+03  0.21296888846E+03  0.00000000000E+00 0.  1.
         13    1    3    3    0    0  0.20178909288E+01  0.20447674696E+02  0.30332485898E+00  0.20549240624E+02  0.00000000000E+00 0. -1.
         21    1    1    2  502  501 -0.43249071501E+02 -0.26816885494E+02 -0.41629169618E+02  0.65746599124E+02  0.00000000000E+00 0. -1.
<scales pt_clust_5="13000.00000" pt_clust_6="13000.00000" pt_clust_7="13000.00000" pt_clust_8="13000.00000" pt_clust_9="50.88838"></scales>
<clustering>
<clus scale="   50.888">  2  9  1 -1</clus>
<clus scale="   84.263">  5  6 -1 -1</clus>
<clus scale="   87.383">  1  5  2 -1</clus>
<clus scale="   90.424">  7  8 -1 -1</clus>
<clus scale="   87.383">  1  5  2 -1</clus>
</clustering>
</event>
<event>
 9    2  0.6066854E-005  0.1169671E+03  0.7546771E-02  0.1251687E+00
          2   -1    0    0  502    0  0.00000000000E+00  0.00000000000E+00  0.21636116749E+03  0.21636116749E+03  0.00000000000E+00 0. -1.
         -1   -1    0    0    0  501 -0.00000000000E+00 -0.00000000000E+00 -0.24257090182E+03  0.24257090182E+03  0.00000000000E+00 0.  1.
         23    2    1    2    0    0  0.80894191549E+02 -0.37979992026E+01 -0.19239948011E+03  0.22779561371E+03  0.91186548650E+02 0.  0.
         24    2    1    2    0    0 -0.18796014739E+02  0.35897244278E+02  0.10117040137E+03  0.13566886820E+03  0.80800305490E+02 0.  0.
        -13    1    4    4    0    0  0.24247667603E+02  0.16537889920E+02  0.67605201512E+01  0.30119027539E+02  0.00000000000E+00 0.  1.
         14    1    4    4    0    0 -0.43043682342E+02  0.19359354358E+02  0.94409881223E+02  0.10554984066E+03  0.00000000000E+00 0. -1.
        -11    1    3    3    0    0  0.18712022000E+02 -0.33671195400E+02 -0.22945128611E+02  0.44837128520E+02  0.00000000000E+00 0. -1.
         11    1    3    3    0    0  0.62182169549E+02  0.29873196197E+02 -0.16945435150E+03  0.18295848519E+03  0.00000000000E+00 0.  1.
         21    1    1    2  502  501 -0.62098176810E+02 -0.32099245075E+02  0.65019344403E+02  0.95467587401E+02  0.00000000000E+00 0. -1.
<scales pt_clust_5="13000.00000" pt_clust_6="13000.00000" pt_clust_7="13000.00000" pt_clust_8="13000.00000" pt_clust_9="69.90383"></scales>
<clustering>
<clus scale="   69.904">  1  9  2 -1</clus>
<clus scale="   80.800">  5  6 -1 -1</clus>
<clus scale="   91.187">  7  8 -1 -1</clus>
<clus scale="  109.064">  1  5  2 -1</clus>
<clus scale="   69.904">  1  5  2 -1</clus>
</clustering>
</event>
<event>
 9    2  0.6066854E-005  0.1426096E+03  0.7546771E-02  0.1213156E+00
         -1   -1    0    0    0  501 -0.00000000000E+00  0.00000000000E+00  0.32181622471E+02  0.32181622471E+02  0.00000000000E+00 0.  1.
          2   -1    0    0  502    0  0.00000000000E+00 -0.00000000000E+00 -0.11547415526E+04  0.11547415526E+04  0.00000000000E+00 0. -1.
         23    2    1    2    0    0 -0.12147694628E+03  0.50864522517E+02 -0.25189545495E+03  0.29930763678E+03  0.93754429642E+02 0.  0.
         24    2    1    2    0    0  0.91859001708E+02 -0.44964177868E+02 -0.80627451370E+03  0.81649519066E+03  0.78268457565E+02 0.  0.
        -13    1    4    4    0    0  0.65030541810E+02 -0.60014541995E+02 -0.43268144326E+03  0.44163780178E+03  0.00000000000E+00 0.  1.
         14    1    4    4    0    0  0.26828459899E+02  0.15050364127E+02 -0.37359307044E+03  0.37485738888E+03  0.00000000000E+00 0. -1.
        -11    1    3    3    0    0 -0.68999761774E+02 -0.12141864615E+02 -0.66530797742E+02  0.96616453306E+02  0.00000000000E+00 0.  1.
         11    1    3    3    0    0 -0.52477184506E+02  0.63006387132E+02 -0.18536465721E+03  0.20269118347E+03  0.00000000000E+00 0. -1.
         21    1    1    2  502  501  0.29617944572E+02 -0.59003446485E+01 -0.64389961429E+02  0.71120347584E+02  0.00000000000E+00 0.  1.
<scales pt_clust_5="13000.00000" pt_clust_6="13000.00000" pt_clust_7="13000.00000" pt_clust_8="13000.00000" pt_clust_9="30.19995"></scales>
<clustering>
<clus scale="   30.200">  1  9  2 -1</clus>
<clus scale="   78.268">  5  6 -1 -1</clus>
<clus scale="   93.754">  7  8 -1 -1</clus>
<clus scale="  132.942">  2  5  1 -1</clus>
<clus scale="  132.942">  2  5  1 -1</clus>
</clustering>
</event>
<event>
 9    2  0.6066854E-005  0.2748616E+03  0.7546771E-02  0.1099066E+00
          2   -1    0    0  502    0  0.00000000000E+00  0.00000000000E+00  0.39121457145E+03  0.39121457145E+03  0.00000000000E+00 0. -1.
         -1   -1    0    0    0  501 -0.00000000000E+00 -0.00000000000E+00 -0.40763586489E+03  0.40763586489E+03  0.00000000000E+00 0.  1.
         23    2    1    2    0    0 -0.23166423773E+03  0.35263134060E+02 -0.14632835870E+03  0.29088429713E+03  0.91048767642E+02 0.  0.
         24    2    1    2    0    0  0.26699180283E+03  0.25589556953E+02  0.24589279319E+03  0.37230562196E+03  0.78795699097E+02 0.  0.
        -11    1    4    4    0    0  0.98413390177E+02  0.57694755691E+01  0.42400732160E+02  0.10731404522E+03  0.00000000000E+00 0.  1.
         12    1    4    4    0    0  0.16857841265E+03  0.19820081384E+02  0.20349206103E+03  0.26499157674E+03  0.00000000000E+00 0. -1.
        -11    1    3    3    0    0 -0.10748991524E+03 -0.66652201182E+01 -0.21363903928E+02  0.10979491531E+03  0.00000000000E+00 0. -1.
         11    1    3    3    0    0 -0.12417432249E+03  0.41928354178E+02 -0.12496445477E+03  0.18108938182E+03  0.00000000000E+00 0.  1.
         21    1    1    2  502  501 -0.35327565101E+02 -0.60852691013E+02 -0.11598572793E+03  0.13566051726E+03  0.00000000000E+00 0. -1.
<scales pt_clust_5="13000.00000" pt_clust_6="13000.00000" pt_clust_7="13000.00000" pt_clust_8="13000.00000" pt_clust_9="70.36396"></scales>
<clustering>
<clus scale="   70.364">  2  9  1 -1</clus>
<clus scale="   78.796">  5  6 -1 -1</clus>
<clus scale="   91.049">  7  8 -1 -1</clus>
<clus scale="  271.049">  1  5  2 -1</clus>
<clus scale="  271.049">  1  5  2 -1</clus>
</clustering>
</event>
<event>
 9    2  0.6066854E-005  0.9622121E+02  0.7546771E-02  0.1292721E+00
         -1   -1    0    0    0  501 -0.00000000000E+00  0.00000000000E+00  0.27137597523E+02  0.27137597523E+02  0.00000000000E+00 0.  1.
          2   -1    0    0  502    0  0.00000000000E+00 -0.00000000000E+00 -0.88754392231E+03  0.88754392231E+03  0.00000000000E+00 0. -1.
         23    2    1    2    0    0 -0.41700484696E+02 -0.45875258751E+01 -0.23541245582E+03  0.25541568893E+03  0.89767332479E+02 0.  0.
         24    2    1    2    0    0  0.10238112835E+02  0.37935537290E+02 -0.60043918250E+03  0.60725714571E+03  0.81793063159E+02 0.  0.
        -11    1    4    4    0    0  0.22158334811E+01 -0.26012682660E+02 -0.15604811130E+03  0.15821688474E+03  0.00000000000E+00 0.  1.
         12    1    4    4    0    0  0.80222793538E+01  0.63948219949E+02 -0.44439107121E+03  0.44904026097E+03  0.00000000000E+00 0. -1.
        -13    1    3    3    0    0 -0.52309498862E+02 -0.30004711993E+02 -0.20796559353E+03  0.21653234055E+03  0.00000000000E+00 0.  1.
         13    1    3    3    0    0  0.10609014166E+02  0.25417186118E+02 -0.27446862291E+02  0.38883348381E+02  0.00000000000E+00 0. -1.
         21    1    1    2  502  501  0.31462371861E+02 -0.33348011415E+02 -0.24554686466E+02  0.52008685196E+02  0.00000000000E+00 0.  1.
<scales pt_clust_5="13000.00000" pt_clust_6="13000.00000" pt_clust_7="13000.00000" pt_clust_8="13000.00000" pt_clust_9="45.84725"></scales>
<clustering>
<clus scale="   45.847">  1  9  2 -1</clus>
<clus scale="   81.793">  5  6 -1 -1</clus>
<clus scale="   88.828">  2  5  1 -1</clus>
<clus scale="   89.767">  7  8 -1 -1</clus>
<clus scale="   88.828">  2  5  1 -1</clus>
</clustering>
</event>
<event>
 9    2  0.6066854E-005  0.1413595E+03  0.7546771E-02  0.1211571E+00
         -1   -1    0    0    0  501 -0.00000000000E+00  0.00000000000E+00  0.31162247135E+03  0.31162247135E+03  0.00000000000E+00 0.  1.
          2   -1    0    0  502    0  0.00000000000E+00 -0.00000000000E+00 -0.89069402046E+02  0.89069402046E+02  0.00000000000E+00 0. -1.
         24    2    1    2    0    0 -0.17394068566E+02  0.10772012338E+03  0.18189221147E+03  0.22470212933E+03  0.74162603322E+02 0.  0.
         23    2    1    2    0    0  0.34738677393E+02 -0.11999737361E+03  0.20855461797E+02  0.14694116336E+03  0.74502414868E+02 0.  0.
        -13    1    3    3    0    0 -0.19558859120E+02  0.11362454462E+03  0.18476598106E+03  0.21778786437E+03  0.00000000000E+00 0.  1.
         14    1    3    3    0    0  0.21647905540E+01 -0.59044212393E+01 -0.28737695908E+01  0.69142649628E+01  0.00000000000E+00 0. -1.
        -13    1    4    4    0    0  0.53621096313E+02 -0.91187813561E+02  0.32361475668E+02  0.11062415839E+03  0.00000000000E+00 0.  1.
         13    1    4    4    0    0 -0.18882418921E+02 -0.28809560052E+02 -0.11506013871E+02  0.36317004969E+02  0.00000000000E+00 0. -1.
         21    1    1    2  502  501 -0.17344608827E+02  0.12277250236E+02  0.19805396035E+02  0.29048580702E+02  0.00000000000E+00 0.  1.
<scales pt_clust_5="13000.00000" pt_clust_6="13000.00000" pt_clust_7="13000.00000" pt_clust_8="13000.00000" pt_clust_9="21.25009"></scales>
<clustering>
<clus scale="   21.250">  1  9  2 -1</clus>
<clus scale="   74.163">  5  6 -1 -1</clus>
<clus scale="   74.502">  7  8 -1 -1</clus>
<clus scale="  141.181">  1  5  2 -1</clus>
<clus scale="  141.359">  2  5  1 -1</clus>
</clustering>
</event>
<event>
 9    2  0.6066854E-005  0.1193656E+03  0.7546771E-02  0.1251880E+00
          2   -1    0    0  502    0  0.00000000000E+00  0.00000000000E+00  0.11197246144E+03  0.11197246144E+03  0.00000000000E+00 0. -1.
         -1   -1    0    0    0  501 -0.00000000000E+00 -0.00000000000E+00 -0.25679813894E+03  0.25679813894E+03  0.00000000000E+00 0.  1.
         23    2    1    2    0    0  0.50653176167E+02 -0.12387571572E+02 -0.10895575392E+03  0.14940485309E+03  0.87927570356E+02 0.  0.
         24    2    1    2    0    0  0.34972722190E+02 -0.58571763962E+02 -0.21533327545E+02  0.10723832087E+03  0.79891366478E+02 0.  0.
        -13    1    4    4    0    0  0.48334482803E+02 -0.26604159486E+02  0.14708247389E+02  0.57099352633E+02  0.00000000000E+00 0.  1.
         14    1    4    4    0    0 -0.13361760613E+02 -0.31967604476E+02 -0.36241574934E+02  0.50138968241E+02  0.00000000000E+00 0. -1.
        -13    1    3    3    0    0  0.40378606709E+02  0.30381568516E+02 -0.86104783180E+02  0.99837394155E+02  0.00000000000E+00 0. -1.
         13    1    3    3    0    0  0.10274569458E+02 -0.42769140088E+02 -0.22850970744E+02  0.49567458936E+02  0.00000000000E+00 0.  1.
         21    1    1    2  502  501 -0.85625898357E+02  0.70959335534E+02 -0.14336596025E+02  0.11212742642E+03  0.00000000000E+00 0. -1.
<scales pt_clust_5="13000.00000" pt_clust_6="13000.00000" pt_clust_7="13000.00000" pt_clust_8="13000.00000" pt_clust_9="88.68770"></scales>
<clustering>
<clus scale="   79.891">  5  6 -1 -1</clus>
<clus scale="   87.928">  7  8 -1 -1</clus>
<clus scale="  102.227">  2  7  1 -1</clus>
<clus scale="   88.688">  2  9  1 -1</clus>
<clus scale="  119.366">  1  5  2 -1</clus>
</clustering>
</event>
<event>
 9    2  0.6066854E-005  0.9971351E+02  0.7546771E-02  0.1287067E+00
         -1   -1    0    0    0  501 -0.00000000000E+00  0.00000000000E+00  0.26754634705E+02  0.26754634705E+02  0.00000000000E+00 0.  1.
          2   -1    0    0  502    0  0.00000000000E+00 -0.00000000000E+00 -0.67990229521E+03  0.67990229521E+03  0.00000000000E+00 0. -1.
         23    2    1    2    0    0 -0.17263303744E+01 -0.18822623332E+02 -0.11716504136E+03  0.15408502759E+03  0.98271447756E+02 0.  0.
         24    2    1    2    0    0  0.19988319066E+02 -0.81217789224E+01 -0.47541843383E+03  0.48381492750E+03  0.87113148608E+02 0.  0.
        -11    1    4    4    0    0  0.44957059236E+02  0.20997000262E+02 -0.21953869912E+03  0.22507610181E+03  0.00000000000E+00 0.  1.
         12    1    4    4    0    0 -0.24968740170E+02 -0.29118779184E+02 -0.25587973470E+03  0.25873882569E+03  0.00000000000E+00 0. -1.
        -13    1    3    3    0    0  0.31339069975E+02  0.25508908257E+01 -0.10956353135E+03  0.11398601561E+03  0.00000000000E+00 0.  1.
         13    1    3    3    0    0 -0.33065400350E+02 -0.21373514158E+02 -0.76015100105E+01  0.40099011985E+02  0.00000000000E+00 0. -1.
         21    1    1    2  502  501 -0.18261988692E+02  0.26944402255E+02 -0.60564185312E+02  0.68756974820E+02  0.00000000000E+00 0.  1.
<scales pt_clust_5="13000.00000" pt_clust_6="13000.00000" pt_clust_7="13000.00000" pt_clust_8="13000.00000" pt_clust_9="32.54998"></scales>
<clustering>
<clus scale="   32.550">  1  9  2 -1</clus>
<clus scale="   87.113">  5  6 -1 -1</clus>
<clus scale="   88.737">  2  5  1 -1</clus>
<clus scale="   98.271">  7  8 -1 -1</clus>
<clus scale="   88.737">  2  5  1 -1</clus>
</clustering>
</event>
<event>
 9    2  0.6066854E-005  0.1882710E+03  0.7546771E-02  0.1183098E+00
          2   -1    0    0  502    0  0.00000000000E+00  0.00000000000E+00  0.56807324785E+03  0.56807324785E+03  0.00000000000E+00 0. -1.
         -1   -1    0    0    0  501 -0.00000000000E+00 -0.00000000000E+00 -0.18390356450E+03  0.18390356450E+03  0.00000000000E+00 0.  1.
         23    2    1    2    0    0 -0.14489333352E+03  0.61582507678E+02 -0.62280968495E+02  0.19258307905E+03  0.91776031450E+02 0.  0.
         24    2    1    2    0    0 -0.67236145294E+02 -0.38496826578E+02  0.86333891582E+02  0.14080569538E+03  0.79812268018E+02 0.  0.
        -13    1    4    4    0    0 -0.30408339809E+02 -0.57740905982E+02  0.32800236792E+02  0.73037900347E+02  0.00000000000E+00 0.  1.
         14    1    4    4    0    0 -0.36827805485E+02  0.19244079403E+02  0.53533654790E+02  0.67767795036E+02  0.00000000000E+00 0. -1.
        -13    1    3    3    0    0 -0.12487299254E+02 -0.20649216254E+02  0.14923491768E+01  0.24177466381E+02  0.00000000000E+00 0.  1.
         13    1    3    3    0    0 -0.13240603427E+03  0.82231723932E+02 -0.63773317672E+02  0.16840561267E+03  0.00000000000E+00 0. -1.
         21    1    1    2  502  501  0.21212947882E+03 -0.23085681100E+02  0.36011676027E+03  0.41858803791E+03  0.00000000000E+00 0. -1.
<scales pt_clust_5="13000.00000" pt_clust_6="13000.00000" pt_clust_7="13000.00000" pt_clust_8="13000.00000" pt_clust_9="164.38712"></scales>
<clustering>
<clus scale="   79.812">  5  6 -1 -1</clus>
<clus scale="   91.776">  7  8 -1 -1</clus>
<clus scale="  111.233">  1  5  2 -1</clus>
<clus scale="  164.387">  1  9  2 -1</clus>
<clus scale="  111.233">  1  5  2 -1</clus>
</clustering>
</event>
<event>
 9    2  0.6066854E-005  0.9588664E+02  0.7546771E-02  0.1292968E+00
          2   -1    0    0  502    0  0.00000000000E+00  0.00000000000E+00  0.43104706457E+02  0.43104706457E+02  0.00000000000E+00 0. -1.
         -1   -1    0    0    0  501 -0.00000000000E+00 -0.00000000000E+00 -0.55354681414E+03  0.55354681414E+03  0.00000000000E+00 0.  1.
         23    2    1    2    0    0  0.48277562052E+02 -0.25118527536E+02 -0.35954681054E+03  0.37402484781E+03  0.87515795093E+02 0.  0.
         24    2    1    2    0    0 -0.25888607339E+02  0.26714646988E+02 -0.21199351702E+02  0.91002772391E+02  0.80300683164E+02 0.  0.
        -13    1    4    4    0    0  0.26150311434E+02 -0.45691370186E+00 -0.18870105073E+02  0.32251022057E+02  0.00000000000E+00 0.  1.
         14    1    4    4    0    0 -0.52038918774E+02  0.27171560689E+02 -0.23292466289E+01  0.58751750334E+02  0.00000000000E+00 0. -1.
        -11    1    3    3    0    0  0.22063105957E+02 -0.48757938014E+02 -0.30052348997E+03  0.30525151136E+03  0.00000000000E+00 0.  1.
         11    1    3    3    0    0  0.26214456095E+02  0.23639410477E+02 -0.59023320566E+02  0.68773336452E+02  0.00000000000E+00 0. -1.
         21    1    1    2  502  501 -0.22388954713E+02 -0.15961194513E+01 -0.12969594544E+03  0.13162390039E+03  0.00000000000E+00 0.  1.
<scales pt_clust_5="13000.00000" pt_clust_6="13000.00000" pt_clust_7="13000.00000" pt_clust_8="13000.00000" pt_clust_9="22.44578"></scales>
<clustering>
<clus scale="   22.446">  2  9  1 -1</clus>
<clus scale="   80.301">  5  6 -1 -1</clus>
<clus scale="   87.516">  7  8 -1 -1</clus>
<clus scale="   89.350">  1  5  2 -1</clus>
<clus scale="   89.350">  1  5  2 -1</clus>
</clustering>
</event>
<event>
 9    2  0.6066854E-005  0.1175662E+03  0.7546771E-02  0.1250200E+00
         -1   -1    0    0    0  501 -0.00000000000E+00  0.00000000000E+00  0.15305694501E+03  0.15305694501E+03  0.00000000000E+00 0.  1.
          2   -1    0    0  502    0  0.00000000000E+00 -0.00000000000E+00 -0.13257794805E+03  0.13257794805E+03  0.00000000000E+00 0. -1.
         23    2    1    2    0    0 -0.78808527077E+00  0.78528433406E+02  0.78324770917E+02  0.14315676331E+03  0.90508304657E+02 0.  0.
         24    2    1    2    0    0 -0.19347968817E+02 -0.65564283811E+02 -0.48437781950E+02  0.11674798862E+03  0.81307164001E+02 0.  0.
        -11    1    4    4    0    0  0.16946788704E+02 -0.34255324146E+02  0.11584301016E+02  0.39935158817E+02  0.00000000000E+00 0.  1.
         12    1    4    4    0    0 -0.36294757521E+02 -0.31308959666E+02 -0.60022082966E+02  0.76812829804E+02  0.00000000000E+00 0. -1.
        -11    1    3    3    0    0  0.18185710708E+02 -0.13855364646E+02  0.42999579160E+01  0.23263293867E+02  0.00000000000E+00 0. -1.
         11    1    3    3    0    0 -0.18973795979E+02  0.92383798052E+02  0.74024813001E+02  0.11989346945E+03  0.00000000000E+00 0.  1.
         21    1    1    2  502  501  0.20136054088E+02 -0.12964149594E+02 -0.94079920100E+01  0.25730141130E+02  0.00000000000E+00 0. -1.
<scales pt_clust_5="13000.00000" pt_clust_6="13000.00000" pt_clust_7="13000.00000" pt_clust_8="13000.00000" pt_clust_9="23.94848"></scales>
<clustering>
<clus scale="   23.948">  2  9  1 -1</clus>
<clus scale="   81.307">  5  6 -1 -1</clus>
<clus scale="   90.508">  7  8 -1 -1</clus>
<clus scale="  110.639">  2  5  1 -1</clus>
<clus scale="   23.948">  2  5  1 -1</clus>
</clustering>
</event>
<event>
 9    2  0.6066854E-005  0.1085434E+03  0.7546771E-02  0.1270310E+00
         -1   -1    0    0    0  501 -0.00000000000E+00  0.00000000000E+00  0.52431911035E+03  0.52431911035E+03  0.00000000000E+00 0.  1.
          2   -1    0    0  502    0  0.00000000000E+00 -0.00000000000E+00 -0.48506944953E+02  0.48506944953E+02  0.00000000000E+00 0. -1.
         23    2    1    2    0    0 -0.70838227819E+02  0.27454742794E+02  0.36685711582E+03  0.38610828910E+03  0.93400482130E+02 0.  0.
         24    2    1    2    0    0  0.52707282474E+02  0.53364280310E+01  0.27935150931E+02  0.97452901671E+02  0.76877566927E+02 0.  0.
        -13    1    4    4    0    0  0.32089692874E+02 -0.34183499727E+02  0.24090759772E+02  0.52712662129E+02  0.00000000000E+00 0.  1.
         14    1    4    4    0    0  0.20617589600E+02  0.39519927758E+02  0.38443911584E+01  0.44740239542E+02  0.00000000000E+00 0. -1.
        -11    1    3    3    0    0 -0.52043478589E+02 -0.23464797871E+02  0.26072913141E+03  0.26690597664E+03  0.00000000000E+00 0.  1.
         11    1    3    3    0    0 -0.18794749230E+02  0.50919540665E+02  0.10612798442E+03  0.11920231246E+03  0.00000000000E+00 0. -1.
         21    1    1    2  502  501  0.18130945344E+02 -0.32791170825E+02  0.81019898645E+02  0.89264864530E+02  0.00000000000E+00 0. -1.
<scales pt_clust_5="13000.00000" pt_clust_6="13000.00000" pt_clust_7="13000.00000" pt_clust_8="13000.00000" pt_clust_9="37.46988"></scales>
<clustering>
<clus scale="   37.470">  1  9  2 -1</clus>
<clus scale="   76.878">  5  6 -1 -1</clus>
<clus scale="   93.400">  7  8 -1 -1</clus>
<clus scale="   94.701">  2  5  1 -1</clus>
<clus scale="   94.701">  2  5  1 -1</clus>
</clustering>
</event>
<event>
 9    2  0.6066854E-005  0.9234378E+02  0.7546771E-02  0.1302650E+00
          2   -1    0    0  502    0  0.00000000000E+00  0.00000000000E+00  0.61875435109E+03  0.61875435109E+03  0.00000000000E+00 0. -1.
         -1   -1    0    0    0  501 -0.00000000000E+00 -0.00000000000E+00 -0.17498977918E+03  0.17498977918E+03  0.00000000000E+00 0.  1.
         23    2    1    2    0    0  0.21145561261E+02  0.33395265184E+01 -0.21431128654E+02  0.94681253412E+02  0.89704845320E+02 0.  0.
         24    2    1    2    0    0  0.74960643172E+01  0.22345616621E+02  0.57582727760E+03  0.58193296979E+03  0.80705700804E+02 0.  0.
        -13    1    4    4    0    0 -0.14267621685E+02 -0.20183676962E+02  0.78096529437E+02  0.81914673620E+02  0.00000000000E+00 0.  1.
         14    1    4    4    0    0  0.21763686002E+02  0.42529293583E+02  0.49773074816E+03  0.50001829617E+03  0.00000000000E+00 0. -1.
        -13    1    3    3    0    0  0.56414735387E+01 -0.23449102581E+02 -0.48110995181E+02  0.53817789743E+02  0.00000000000E+00 0.  1.
         13    1    3    3    0    0  0.15504087722E+02  0.26788629099E+02  0.26679866527E+02  0.40863463669E+02  0.00000000000E+00 0. -1.
         21    1    1    2  502  501 -0.28641625578E+02 -0.25685143140E+02 -0.11063157703E+03  0.11712990707E+03  0.00000000000E+00 0.  1.
<scales pt_clust_5="13000.00000" pt_clust_6="13000.00000" pt_clust_7="13000.00000" pt_clust_8="13000.00000" pt_clust_9="38.47167"></scales>
<clustering>
<clus scale="   38.472">  2  9  1 -1</clus>
<clus scale="   80.706">  5  6 -1 -1</clus>
<clus scale="   83.629">  1  5  2 -1</clus>
<clus scale="   89.705">  7  8 -1 -1</clus>
<clus scale="   83.629">  1  5  2 -1</clus>
</clustering>
</event>
<event>
 9    2  0.6066854E-005  0.1162510E+03  0.7546771E-02  0.1259391E+00
          4   -1    0    0  502    0  0.00000000000E+00  0.00000000000E+00  0.13539805391E+03  0.13539805391E+03  0.00000000000E+00 0. -1.
         -3   -1    0    0    0  501 -0.00000000000E+00 -0.00000000000E+00 -0.35403389535E+03  0.35403389535E+03  0.00000000000E+00 0.  1.
         23    2    1    2    0    0  0.16905964921E+02 -0.35423114079E+02 -0.30024723695E+03  0.32006131885E+03  0.10368334420E+03 0.  0.
         24    2    1    2    0    0 -0.43569235020E+02  0.31398077533E+02  0.98504832252E+02  0.13755052519E+03  0.79579064403E+02 0.  0.
        -13    1    4    4    0    0 -0.33401937484E+02 -0.22997617358E+02  0.44983934897E+02  0.60565123880E+02  0.00000000000E+00 0.  1.
         14    1    4    4    0    0 -0.10167297537E+02  0.54395694891E+02  0.53520897355E+02  0.76985401314E+02  0.00000000000E+00 0. -1.
        -13    1    3    3    0    0 -0.36434932610E+02  0.10545094317E+02 -0.74706384044E+02  0.83783931308E+02  0.00000000000E+00 0. -1.
         13    1    3    3    0    0  0.53340897531E+02 -0.45968208396E+02 -0.22554085291E+03  0.23627738754E+03  0.00000000000E+00 0.  1.
         21    1    1    2  502  501  0.26663270099E+02  0.40250365461E+01 -0.16893436735E+02  0.31820105221E+02  0.00000000000E+00 0.  1.
<scales pt_clust_5="13000.00000" pt_clust_6="13000.00000" pt_clust_7="13000.00000" pt_clust_8="13000.00000" pt_clust_9="26.96536"></scales>
<clustering>
<clus scale="   26.965">  2  9  1 -1</clus>
<clus scale="   79.579">  5  6 -1 -1</clus>
<clus scale="   95.378">  1  5  2 -1</clus>
<clus scale="  103.683">  7  8 -1 -1</clus>
<clus scale="   95.378">  1  5  2 -1</clus>
</clustering>
</event>
<event>
 9    2  0.6066854E-005  0.1127804E+03  0.7546771E-02  0.1260991E+00
         -1   -1    0    0    0  501 -0.00000000000E+00  0.00000000000E+00  0.29581127281E+02  0.29581127281E+02  0.00000000000E+00 0.  1.
          2   -1    0    0  502    0  0.00000000000E+00 -0.00000000000E+00 -0.60308763490E+03  0.60308763490E+03  0.00000000000E+00 0. -1.
         24    2    1    2    0    0 -0.75020688895E+01 -0.55992405762E+02 -0.19614377121E+03  0.21915267745E+03  0.79775224904E+02 0.  0.
         23    2    1    2    0    0  0.39701746293E+02  0.57781297852E+02 -0.35603881098E+03  0.37485435746E+03  0.94006634568E+02 0.  0.
        -13    1    3    3    0    0  0.10240312289E+02 -0.57616572721E+02 -0.67731321794E+02  0.89510141324E+02  0.00000000000E+00 0.  1.
         14    1    3    3    0    0 -0.17742381179E+02  0.16241669589E+01 -0.12841244942E+03  0.12964253613E+03  0.00000000000E+00 0. -1.
        -11    1    4    4    0    0 -0.52776099611E+01  0.70306416630E+02 -0.20759845404E+03  0.21924407291E+03  0.00000000000E+00 0. -1.
         11    1    4    4    0    0  0.44979356255E+02 -0.12525118778E+02 -0.14844035694E+03  0.15561028455E+03  0.00000000000E+00 0.  1.
         21    1    1    2  502  501 -0.32199677404E+02 -0.17888920905E+01 -0.21323925430E+02  0.38661727271E+02  0.00000000000E+00 0.  1.
<scales pt_clust_5="13000.00000" pt_clust_6="13000.00000" pt_clust_7="13000.00000" pt_clust_8="13000.00000" pt_clust_9="32.24933"></scales>
<clustering>
<clus scale="   32.249">  1  9  2 -1</clus>
<clus scale="   79.775">  5  6 -1 -1</clus>
<clus scale="   94.007">  7  8 -1 -1</clus>
<clus scale="  101.224">  1  5  2 -1</clus>
<clus scale="  112.780">  2  5  1 -1</clus>
</clustering>
</event>
<event>
 9    2  0.6066854E-005  0.1346371E+03  0.7546771E-02  0.1236421E+00
          4   -1    0    0  502    0  0.00000000000E+00  0.00000000000E+00  0.36929478370E+03  0.36929478370E+03  0.00000000000E+00 0. -1.
         -3   -1    0    0    0  501 -0.00000000000E+00 -0.00000000000E+00 -0.15147136993E+03  0.15147136993E+03  0.00000000000E+00 0.  1.
         24    2    1    2    0    0 -0.84190927523E+02 -0.27341319145E+02 -0.22799723194E+02  0.12362312344E+03  0.83229737843E+02 0.  0.
         23    2    1    2    0    0 -0.39924822588E+02  0.51977598088E+01  0.25241106874E+03  0.27051755100E+03  0.88585493226E+02 0.  0.
        -11    1    3    3    0    0 -0.70304447996E+02 -0.39682502032E+02 -0.46767341974E+02  0.93298449349E+02  0.00000000000E+00 0.  1.
         12    1    3    3    0    0 -0.13886479527E+02  0.12341182887E+02  0.23967618780E+02  0.30324674091E+02  0.00000000000E+00 0. -1.
        -13    1    4    4    0    0 -0.18630551853E+02  0.46068013662E+02  0.15467143829E+03  0.16245803510E+03  0.00000000000E+00 0. -1.
         13    1    4    4    0    0 -0.21294270735E+02 -0.40870253854E+02  0.97739630448E+02  0.10805951590E+03  0.00000000000E+00 0.  1.
         21    1    1    2  502  501  0.12411575011E+03  0.22143559336E+02 -0.11787931780E+02  0.12662547919E+03  0.00000000000E+00 0. -1.
<scales pt_clust_5="13000.00000" pt_clust_6="13000.00000" pt_clust_7="13000.00000" pt_clust_8="13000.00000" pt_clust_9="105.82986"></scales>
<clustering>
<clus scale="   83.230">  5  6 -1 -1</clus>
<clus scale="   88.585">  7  8 -1 -1</clus>
<clus scale="   97.306">  1  7  2 -1</clus>
<clus scale="  105.830">  1  9  2 -1</clus>
<clus scale="   97.306">  1  5  2 -1</clus>
</clustering>
</event>
<event>
 9    2  0.6066854E-005  0.1389306E+03  0.7546771E-02  0.1233432E+00
          4   -1    0    0  502    0  0.00000000000E+00  0.00000000000E+00  0.12100688278E+04  0.12100688278E+04  0.00000000000E+00 0. -1.
         -3   -1    0    0    0  501 -0.00000000000E+00 -0.00000000000E+00 -0.27619277857E+02  0.27619277857E+02  0.00000000000E+00 0.  1.
         24    2    1    2    0    0 -0.10707873680E+03  0.28546848765E+02  0.37823822758E+03  0.40144739873E+03  0.76256663286E+02 0.  0.
         23    2    1    2    0    0 -0.35386227429E+01  0.20665248008E+02  0.50066259219E+03  0.50943822486E+03  0.91786161257E+02 0.  0.
        -13    1    3    3    0    0 -0.24998334462E+02  0.39425169461E+02  0.19267881352E+03  0.19825333766E+03  0.00000000000E+00 0.  1.
         14    1    3    3    0    0 -0.82080402334E+02 -0.10878320696E+02  0.18555941406E+03  0.20319406107E+03  0.00000000000E+00 0. -1.
        -13    1    4    4    0    0 -0.40751087076E+02 -0.14107841608E+02  0.21816246587E+03  0.22238377595E+03  0.00000000000E+00 0. -1.
         13    1    4    4    0    0  0.37212464333E+02  0.34773089615E+02  0.28250012632E+03  0.28705444891E+03  0.00000000000E+00 0.  1.
         21    1    1    2  502  501  0.11061735954E+03 -0.49212096772E+02  0.30354873019E+03  0.32680248209E+03  0.00000000000E+00 0.  1.
<scales pt_clust_5="13000.00000" pt_clust_6="13000.00000" pt_clust_7="13000.00000" pt_clust_8="13000.00000" pt_clust_9="116.13195"></scales>
<clustering>
<clus scale="   76.257">  5  6 -1 -1</clus>
<clus scale="   91.786">  7  8 -1 -1</clus>
<clus scale="   94.150">  1  7  2 -1</clus>
<clus scale="  116.132">  2  9  1 -1</clus>
<clus scale="   94.150">  1  5  2 -1</clus>
</clustering>
</event>
<event>
 9    2  0.6066854E-005  0.1282273E+03  0.7546771E-02  0.1233028E+00
          2   -1    0    0  502    0  0.00000000000E+00  0.00000000000E+00  0.84018364704E+03  0.84018364704E+03  0.00000000000E+00 0. -1.
         -1   -1    0    0    0  501 -0.00000000000E+00 -0.00000000000E+00 -0.35894903311E+02  0.35894903311E+02  0.00000000000E+00 0.  1.
         24    2    1    2    0    0  0.69580438865E+02 -0.17376021285E+02  0.12546300346E+03  0.16510785647E+03  0.79851583840E+02 0.  0.
         23    2    1    2    0    0 -0.75654900891E+02  0.64822198472E+02  0.62319999651E+03  0.63760679140E+03  0.90766752431E+02 0.  0.
        -11    1    3    3    0    0  0.43242675473E+02 -0.35818439989E+01  0.82310932415E+01  0.44164572730E+02  0.00000000000E+00 0.  1.
         12    1    3    3    0    0  0.26337763392E+02 -0.13794177286E+02  0.11723191022E+03  0.12094328374E+03  0.00000000000E+00 0. -1.
        -11    1    4    4    0    0 -0.96043000347E+02  0.61434632526E+02  0.51857303332E+03  0.53095806132E+03  0.00000000000E+00 0. -1.
         11    1    4    4    0    0  0.20388099456E+02  0.33875659463E+01  0.10462696319E+03  0.10664873008E+03  0.00000000000E+00 0.  1.
         21    1    1    2  502  501  0.60744620262E+01 -0.47446177188E+02  0.55625743755E+02  0.73363902479E+02  0.00000000000E+00 0.  1.
<scales pt_clust_5="13000.00000" pt_clust_6="13000.00000" pt_clust_7="13000.00000" pt_clust_8="13000.00000" pt_clust_9="47.83345"></scales>
<clustering>
<clus scale="   47.833">  2  9  1 -1</clus>
<clus scale="   79.852">  5  6 -1 -1</clus>
<clus scale="   90.767">  7  8 -1 -1</clus>
<clus scale="  120.747">  2  5  1 -1</clus>
<clus scale="  128.227">  1  5  2 -1</clus>
</clustering>
</event>
<event>
 9    2  0.6066854E-005  0.9051468E+02  0.7546771E-02  0.1307969E+00
         -1   -1    0    0    0  501 -0.00000000000E+00  0.00000000000E+00  0.40063705245E+02  0.40063705245E+02  0.00000000000E+00 0.  1.
          2   -1    0    0  502    0  0.00000000000E+00 -0.00000000000E+00 -0.25569167118E+03  0.25569167118E+03  0.00000000000E+00 0. -1.
         23    2    1    2    0    0  0.24855852973E+01 -0.13540435074E+02 -0.79465764005E+02  0.12117864013E+03  0.90442985682E+02 0.  0.
         24    2    1    2    0    0 -0.20965086044E+01 -0.13307943917E+02 -0.11103718255E+03  0.13780373758E+03  0.80492965311E+02 0.  0.
        -13    1    4    4    0    0  0.18690933367E+02  0.11210877413E+02  0.42451471340E+00  0.21799426030E+02  0.00000000000E+00 0.  1.
         14    1    4    4    0    0 -0.20787441971E+02 -0.24518821330E+02 -0.11146169726E+03  0.11600431155E+03  0.00000000000E+00 0. -1.
        -13    1    3    3    0    0  0.41049284021E+02 -0.28593052618E+02 -0.45686135095E+02  0.67748279067E+02  0.00000000000E+00 0.  1.
         13    1    3    3    0    0 -0.38563698724E+02  0.15052617543E+02 -0.33779628910E+02  0.53430361065E+02  0.00000000000E+00 0. -1.
         21    1    1    2  502  501 -0.38907669290E+00  0.26848378992E+02 -0.25125019385E+02  0.36772998711E+02  0.00000000000E+00 0. -1.
<scales pt_clust_5="13000.00000" pt_clust_6="13000.00000" pt_clust_7="13000.00000" pt_clust_8="13000.00000" pt_clust_9="26.85120"></scales>
<clustering>
<clus scale="   26.851">  1  9  2 -1</clus>
<clus scale="   80.493">  5  6 -1 -1</clus>
<clus scale="   80.574">  2  5  1 -1</clus>
<clus scale="   90.443">  7  8 -1 -1</clus>
<clus scale="   80.574">  2  5  1 -1</clus>
</clustering>
</event>
<event>
 9    2  0.6066854E-005  0.1032887E+03  0.7546771E-02  0.1276930E+00
          2   -1    0    0  502    0  0.00000000000E+00  0.00000000000E+00  0.11263672687E+04  0.11263672687E+04  0.00000000000E+00 0. -1.
         -1   -1    0    0    0  501 -0.00000000000E+00 -0.00000000000E+00 -0.69324491403E+02  0.69324491403E+02  0.00000000000E+00 0.  1.
         23    2    1    2    0    0  0.39479702077E+02 -0.19990848746E+02  0.51183276295E+02  0.11663392262E+03  0.95002437991E+02 0.  0.
         24    2    1    2    0    0 -0.94296143567E+01  0.13807518434E+02  0.10329839745E+04  0.10381069107E+04  0.10163907363E+03 0.  0.
        -13    1    4    4    0    0 -0.27115372994E+02 -0.22414195519E+02  0.14493283271E+03  0.14914142822E+03  0.00000000000E+00 0.  1.
         14    1    4    4    0    0  0.17685758637E+02  0.36221713954E+02  0.88805114174E+03  0.88896548244E+03  0.00000000000E+00 0. -1.
        -13    1    3    3    0    0 -0.26658131679E+01 -0.50520501044E+02  0.37052589708E+02  0.62708229042E+02  0.00000000000E+00 0.  1.
         13    1    3    3    0    0  0.42145515244E+02  0.30529652298E+02  0.14130686588E+02  0.53925693580E+02  0.00000000000E+00 0. -1.
         21    1    1    2  502  501 -0.30050087720E+02  0.61833303118E+01 -0.27124473465E+02  0.40950926809E+02  0.00000000000E+00 0.  1.
<scales pt_clust_5="13000.00000" pt_clust_6="13000.00000" pt_clust_7="13000.00000" pt_clust_8="13000.00000" pt_clust_9="30.67966"></scales>
<clustering>
<clus scale="   30.680">  2  9  1 -1</clus>
<clus scale="   95.002">  7  8 -1 -1</clus>
<clus scale="   96.765">  2  7  1 -1</clus>
<clus scale="  101.639">  5  6 -1 -1</clus>
<clus scale="  103.289">  1  5  2 -1</clus>
</clustering>
</event>
<event>
 9    2  0.6066854E-005  0.8917283E+02  0.7546771E-02  0.1306113E+00
          2   -1    0    0  502    0  0.00000000000E+00  0.00000000000E+00  0.50581127568E+03  0.50581127568E+03  0.00000000000E+00 0. -1.
         -1   -1    0    0    0  501 -0.00000000000E+00 -0.00000000000E+00 -0.43082093708E+02  0.43082093708E+02  0.00000000000E+00 0.  1.
         23    2    1    2    0    0 -0.25043749337E+02 -0.16133684118E+02  0.15156959907E+03  0.17567547909E+03  0.83672250149E+02 0.  0.
         24    2    1    2    0    0 -0.53484622148E+02  0.32294394054E+02  0.25617650393E+03  0.27600157147E+03  0.81528728648E+02 0.  0.
        -11    1    4    4    0    0  0.13285977686E+02  0.28169068843E+02  0.46956212984E+02  0.56346247261E+02  0.00000000000E+00 0.  1.
         12    1    4    4    0    0 -0.66770599835E+02  0.41253252112E+01  0.20922029094E+03  0.21965532421E+03  0.00000000000E+00 0. -1.
        -11    1    3    3    0    0  0.17705153237E+02 -0.16727542725E+02  0.12021366308E+03  0.12265646305E+03  0.00000000000E+00 0.  1.
         11    1    3    3    0    0 -0.42748902574E+02  0.59385860706E+00  0.31355935989E+02  0.53019016033E+02  0.00000000000E+00 0. -1.
         21    1    1    2  502  501  0.78528371486E+02 -0.16160709936E+02  0.54983078966E+02  0.97216318828E+02  0.00000000000E+00 0.  1.
<scales pt_clust_5="13000.00000" pt_clust_6="13000.00000" pt_clust_7="13000.00000" pt_clust_8="13000.00000" pt_clust_9="80.17402"></scales>
<clustering>
<clus scale="   80.174">  2  9  1 -1</clus>
<clus scale="   81.529">  5  6 -1 -1</clus>
<clus scale="   83.672">  7  8 -1 -1</clus>
<clus scale="   87.165">  1  5  2 -1</clus>
<clus scale="   87.165">  1  5  2 -1</clus>
</clustering>
</event>
<event>
 9    2  0.6066854E-005  0.1150782E+03  0.7546771E-02  0.1255643E+00
          2   -1    0    0  502    0  0.00000000000E+00  0.00000000000E+00  0.12062624429E+04  0.12062624429E+04  0.00000000000E+00 0. -1.
         -1   -1    0    0    0  501 -0.00000000000E+00 -0.00000000000E+00 -0.16374244031E+02  0.16374244031E+02  0.00000000000E+00 0.  1.
         23    2    1    2    0    0 -0.19167348771E+02  0.40728386230E+02  0.31170578360E+03  0.32789886151E+03  0.91274197589E+02 0.  0.
         24    2    1    2    0    0  0.46381201294E+02 -0.69083436793E+02  0.78826566915E+03  0.79660717835E+03  0.79350452836E+02 0.  0.
        -13    1    4    4    0    0  0.29606533751E+02  0.10511851161E+02  0.15615586683E+03  0.15928496665E+03  0.00000000000E+00 0.  1.
         14    1    4    4    0    0  0.16774667543E+02 -0.79595287953E+02  0.63210980232E+03  0.63732221170E+03  0.00000000000E+00 0. -1.
        -11    1    3    3    0    0  0.14601963338E+02  0.60711269286E+02  0.19802411415E+03  0.20763579975E+03  0.00000000000E+00 0.  1.
         11    1    3    3    0    0 -0.33769312109E+02 -0.19982883056E+02  0.11368166945E+03  0.12026306176E+03  0.00000000000E+00 0. -1.
         21    1    1    2  502  501 -0.27213852523E+02  0.28355050563E+02  0.89916746077E+02  0.98130647030E+02  0.00000000000E+00 0.  1.
<scales pt_clust_5="13000.00000" pt_clust_6="13000.00000" pt_clust_7="13000.00000" pt_clust_8="13000.00000" pt_clust_9="39.30143"></scales>
<clustering>
<clus scale="   39.301">  2  9  1 -1</clus>
<clus scale="   79.350">  5  6 -1 -1</clus>
<clus scale="   91.274">  7  8 -1 -1</clus>
<clus scale="  105.870">  1  5  2 -1</clus>
<clus scale="  105.870">  1  5  2 -1</clus>
</clustering>
</event>
<event>
 9    2  0.6066854E-005  0.9768524E+02  0.7546771E-02  0.1290892E+00
         -1   -1    0    0    0  501 -0.00000000000E+00  0.00000000000E+00  0.10477478780E+03  0.10477478780E+03  0.00000000000E+00 0.  1.
          2   -1    0    0  502    0  0.00000000000E+00 -0.00000000000E+00 -0.24010202313E+03  0.24010202313E+03  0.00000000000E+00 0. -1.
         23    2    1    2    0    0 -0.91882739315E+01  0.41763826351E+02  0.30173918370E+02  0.10574427598E+03  0.91884410998E+02 0.  0.
         24    2    1    2    0    0  0.26113497849E+02 -0.20181400193E+02 -0.18547690380E+03  0.20520179791E+03  0.81344282762E+02 0.  0.
        -11    1    4    4    0    0  0.14922907009E+02  0.28837867241E+02 -0.41470115615E+02  0.52669594927E+02  0.00000000000E+00 0.  1.
         12    1    4    4    0    0  0.11190590840E+02 -0.49019267434E+02 -0.14400678819E+03  0.15253220298E+03  0.00000000000E+00 0. -1.
        -13    1    3    3    0    0 -0.41450361359E+02  0.15192118469E+02  0.43398499271E+02  0.61906079341E+02  0.00000000000E+00 0.  1.
         13    1    3    3    0    0  0.32262087428E+02  0.26571707882E+02 -0.13224580901E+02  0.43838196644E+02  0.00000000000E+00 0. -1.
         21    1    1    2  502  501 -0.16925223917E+02 -0.21582426158E+02  0.19975750101E+02  0.33930737033E+02  0.00000000000E+00 0.  1.
<scales pt_clust_5="13000.00000" pt_clust_6="13000.00000" pt_clust_7="13000.00000" pt_clust_8="13000.00000" pt_clust_9="27.42744"></scales>
<clustering>
<clus scale="   27.427">  1  9  2 -1</clus>
<clus scale="   81.344">  5  6 -1 -1</clus>
<clus scale="   87.844">  2  5  1 -1</clus>
<clus scale="   91.884">  7  8 -1 -1</clus>
<clus scale="   87.844">  2  5  1 -1</clus>
</clustering>
</event>
<event>
 9    2  0.6066854E-005  0.9164294E+02  0.7546771E-02  0.1307395E+00
          2   -1    0    0  502    0  0.00000000000E+00  0.00000000000E+00  0.17375671858E+03  0.17375671858E+03  0.00000000000E+00 0. -1.
         -1   -1    0    0    0  501 -0.00000000000E+00 -0.00000000000E+00 -0.17352272612E+03  0.17352272612E+03  0.00000000000E+00 0.  1.
         24    2    1    2    0    0  0.18866499787E+02 -0.36240539568E+02 -0.36906499135E+02  0.95235514147E+02  0.77707090757E+02 0.  0.
         23    2    1    2    0    0 -0.86300613724E+00  0.40762968159E+01  0.12620572517E+03  0.15565264397E+03  0.91008238827E+02 0.  0.
        -11    1    3    3    0    0  0.20815142144E+02  0.20097533408E+02 -0.23541072058E+02  0.37300979414E+02  0.00000000000E+00 0.  1.
         12    1    3    3    0    0 -0.19486423566E+01 -0.56338072977E+02 -0.13365427077E+02  0.57934534733E+02  0.00000000000E+00 0. -1.
        -11    1    4    4    0    0  0.21198139375E+02  0.34181730034E+02  0.10564099060E+03  0.11303880164E+03  0.00000000000E+00 0. -1.
         11    1    4    4    0    0 -0.22061145512E+02 -0.30105433218E+02  0.20564734574E+02  0.42613842336E+02  0.00000000000E+00 0.  1.
         21    1    1    2  502  501 -0.18003493650E+02  0.32164242752E+02 -0.89065233578E+02  0.96391286576E+02  0.00000000000E+00 0.  1.
<scales pt_clust_5="13000.00000" pt_clust_6="13000.00000" pt_clust_7="13000.00000" pt_clust_8="13000.00000" pt_clust_9="36.86006"></scales>
<clustering>
<clus scale="   36.860">  2  9  1 -1</clus>
<clus scale="   77.707">  5  6 -1 -1</clus>
<clus scale="   78.449">  2  5  1 -1</clus>
<clus scale="   91.008">  7  8 -1 -1</clus>
<clus scale="   91.643">  1  5  2 -1</clus>
</clustering>
</event>
<event>
 9    2  0.6066854E-005  0.2495094E+03  0.7546771E-02  0.1114575E+00
         -1   -1    0    0    0  501 -0.00000000000E+00  0.00000000000E+00  0.96752816824E+02  0.96752816824E+02  0.00000000000E+00 0.  1.
          2   -1    0    0  502    0  0.00000000000E+00 -0.00000000000E+00 -0.13871197563E+04  0.13871197563E+04  0.00000000000E+00 0. -1.
         24    2    1    2    0    0 -0.60059010274E+02 -0.21028338279E+03 -0.14541930908E+03  0.27300352699E+03  0.74551757208E+02 0.  0.
         23    2    1    2    0    0  0.63087518123E+02  0.28892841979E+03 -0.98573034523E+03  0.10332617332E+04  0.92227052047E+02 0.  0.
        -13    1    3    3    0    0  0.35553618026E+01 -0.11309878470E+03 -0.55044370305E+02  0.12583266031E+03  0.00000000000E+00 0.  1.
         14    1    3    3    0    0 -0.63614372077E+02 -0.97184598085E+02 -0.90374938773E+02  0.14717086668E+03  0.00000000000E+00 0. -1.
        -13    1    4    4    0    0  0.17955720160E+02  0.99137334421E+02 -0.49554378730E+03  0.50568197920E+03  0.00000000000E+00 0. -1.
         13    1    4    4    0    0  0.45131797962E+02  0.18979108536E+03 -0.49018655794E+03  0.52757975402E+03  0.00000000000E+00 0.  1.
         21    1    1    2  502  501 -0.30285078483E+01 -0.78645036997E+02 -0.15921728515E+03  0.17760731290E+03  0.00000000000E+00 0.  1.
<scales pt_clust_5="13000.00000" pt_clust_6="13000.00000" pt_clust_7="13000.00000" pt_clust_8="13000.00000" pt_clust_9="78.70333"></scales>
<clustering>
<clus scale="   74.552">  5  6 -1 -1</clus>
<clus scale="   78.703">  2  9  1 -1</clus>
<clus scale="   92.227">  7  8 -1 -1</clus>
<clus scale="  243.530">  1  5  2 -1</clus>
<clus scale="   78.703">  2  5  1 -1</clus>
</clustering>
</event>
<event>
 9    2  0.6066854E-005  0.9839878E+02  0.7546771E-02  0.1289687E+00
          2   -1    0    0  502    0  0.00000000000E+00  0.00000000000E+00  0.17330037713E+03  0.17330037713E+03  0.00000000000E+00 0. -1.
         -1   -1    0    0    0  501 -0.00000000000E+00 -0.00000000000E+00 -0.63551217776E+02  0.63551217776E+02  0.00000000000E+00 0.  1.
         23    2    1    2    0    0 -0.10977936596E+02 -0.38145294082E+02  0.53560330967E+02  0.11286247907E+03  0.91069487629E+02 0.  0.
         24    2    1    2    0    0 -0.99759316139E+01  0.36518091444E+02  0.52623717552E+02  0.10267193035E+03  0.79618963941E+02 0.  0.
        -11    1    4    4    0    0 -0.44879653716E+01  0.38676116101E+02 -0.96548206850E+01  0.40114827088E+02  0.00000000000E+00 0.  1.
         12    1    4    4    0    0 -0.54879662423E+01 -0.21580246576E+01  0.62278538237E+02  0.62557103264E+02  0.00000000000E+00 0. -1.
        -11    1    3    3    0    0  0.87446534055E+01 -0.50236319317E+02 -0.36797379414E+01  0.51124330930E+02  0.00000000000E+00 0.  1.
         11    1    3    3    0    0 -0.19722590001E+02  0.12091025235E+02  0.57240068909E+02  0.61738148144E+02  0.00000000000E+00 0. -1.
         21    1    1    2  502  501  0.20953868209E+02  0.16272026382E+01  0.35651108319E+01  0.21317185476E+02  0.00000000000E+00 0.  1.
<scales pt_clust_5="13000.00000" pt_clust_6="13000.00000" pt_clust_7="13000.00000" pt_clust_8="13000.00000" pt_clust_9="21.01695"></scales>
<clustering>
<clus scale="   21.017">  2  9  1 -1</clus>
<clus scale="   79.619">  5  6 -1 -1</clus>
<clus scale="   87.908">  1  5  2 -1</clus>
<clus scale="   91.069">  7  8 -1 -1</clus>
<clus scale="   87.908">  1  5  2 -1</clus>
</clustering>
</event>
<event>
 9    2  0.6066854E-005  0.1229475E+03  0.7546771E-02  0.1249687E+00
         -1   -1    0    0    0  501 -0.00000000000E+00  0.00000000000E+00  0.49221725035E+03  0.49221725035E+03  0.00000000000E+00 0.  1.
          2   -1    0    0  502    0  0.00000000000E+00 -0.00000000000E+00 -0.95052413028E+02  0.95052413028E+02  0.00000000000E+00 0. -1.
         23    2    1    2    0    0  0.14220946963E+02  0.10555155354E+01  0.36520112442E+03  0.38181539723E+03  0.11048885393E+03 0.  0.
         24    2    1    2    0    0 -0.56855055810E+02 -0.58615219260E+01 -0.51147345042E+02  0.11192238448E+03  0.81508983755E+02 0.  0.
        -11    1    4    4    0    0  0.10236751929E+02 -0.25867777517E+02 -0.24306726379E+02  0.36942522261E+02  0.00000000000E+00 0.  1.
         12    1    4    4    0    0 -0.67091807739E+02  0.20006255591E+02 -0.26840618663E+02  0.74979862221E+02  0.00000000000E+00 0. -1.
        -13    1    3    3    0    0 -0.28344932311E+02  0.31287585290E+02  0.67825925928E+02  0.79891829426E+02  0.00000000000E+00 0. -1.
         13    1    3    3    0    0  0.42565879274E+02 -0.30232069755E+02  0.29737519849E+03  0.30192356781E+03  0.00000000000E+00 0.  1.
         21    1    1    2  502  501  0.42634108847E+02  0.48060063907E+01  0.83111057945E+02  0.93531881662E+02  0.00000000000E+00 0. -1.
<scales pt_clust_5="13000.00000" pt_clust_6="13000.00000" pt_clust_7="13000.00000" pt_clust_8="13000.00000" pt_clust_9="42.90414"></scales>
<clustering>
<clus scale="   42.904">  1  9  2 -1</clus>
<clus scale="   81.509">  5  6 -1 -1</clus>
<clus scale="   97.734">  2  5  1 -1</clus>
<clus scale="  110.489">  7  8 -1 -1</clus>
<clus scale="   97.734">  2  5  1 -1</clus>
</clustering>
</event>
<event>
 9    2  0.6066854E-005  0.9208489E+02  0.7546771E-02  0.1301856E+00
         -1   -1    0    0    0  501 -0.00000000000E+00  0.00000000000E+00  0.25359817252E+03  0.25359817252E+03  0.00000000000E+00 0.  1.
          2   -1    0    0  502    0  0.00000000000E+00 -0.00000000000E+00 -0.49152398147E+03  0.49152398147E+03  0.00000000000E+00 0. -1.
         23    2    1    2    0    0  0.22198602609E+02  0.48408806452E+01  0.64505406011E+02  0.11191222979E+03  0.88584353525E+02 0.  0.
         24    2    1    2    0    0  0.27119012861E+02  0.32940648087E+01 -0.45994280606E+03  0.46795767500E+03  0.81796754337E+02 0.  0.
        -11    1    4    4    0    0 -0.20482163549E+02  0.49777530385E+01 -0.39026552695E+02  0.44355032006E+02  0.00000000000E+00 0.  1.
         12    1    4    4    0    0  0.47601176410E+02 -0.16836882297E+01 -0.42091625337E+03  0.42360264299E+03  0.00000000000E+00 0. -1.
        -13    1    3    3    0    0 -0.31220959501E+02 -0.10561377736E+02  0.10984450362E+02  0.34741173866E+02  0.00000000000E+00 0.  1.
         13    1    3    3    0    0  0.53419562110E+02  0.15402258382E+02  0.53520955650E+02  0.77171055927E+02  0.00000000000E+00 0. -1.
         21    1    1    2  502  501 -0.49317615470E+02 -0.81349454539E+01  0.15751159111E+03  0.16525224920E+03  0.00000000000E+00 0.  1.
<scales pt_clust_5="13000.00000" pt_clust_6="13000.00000" pt_clust_7="13000.00000" pt_clust_8="13000.00000" pt_clust_9="49.98404"></scales>
<clustering>
<clus scale="   49.984">  1  9  2 -1</clus>
<clus scale="   81.797">  5  6 -1 -1</clus>
<clus scale="   85.575">  2  5  1 -1</clus>
<clus scale="   88.584">  7  8 -1 -1</clus>
<clus scale="   85.575">  2  5  1 -1</clus>
</clustering>
</event>
<event>
 9    2  0.6066854E-005  0.1170538E+03  0.7546771E-02  0.1251392E+00
          2   -1    0    0  502    0  0.00000000000E+00  0.00000000000E+00  0.37073071381E+03  0.37073071381E+03  0.00000000000E+00 0. -1.
         -1   -1    0    0    0  501 -0.00000000000E+00 -0.00000000000E+00 -0.17927277202E+03  0.17927277202E+03  0.00000000000E+00 0.  1.
         23    2    1    2    0    0  0.32457173923E+02 -0.60388662831E+02 -0.80359216533E+02  0.13876243995E+03  0.89984178170E+02 0.  0.
         24    2    1    2    0    0 -0.54413512203E+02  0.52517580764E+02  0.33037867782E+03  0.34820545048E+03  0.79862621959E+02 0.  0.
        -13    1    4    4    0    0 -0.51197879636E+02 -0.58152463749E+01  0.15938932894E+03  0.16751118813E+03  0.00000000000E+00 0.  1.
         14    1    4    4    0    0 -0.32156325665E+01  0.58332827139E+02  0.17098934888E+03  0.18069426235E+03  0.00000000000E+00 0. -1.
        -13    1    3    3    0    0  0.33268403095E+01  0.23207308461E+02 -0.92113796348E+01  0.25189214899E+02  0.00000000000E+00 0. -1.
         13    1    3    3    0    0  0.29130333613E+02 -0.83595971292E+02 -0.71147836899E+02  0.11357322505E+03  0.00000000000E+00 0.  1.
         21    1    1    2  502  501  0.21956338280E+02  0.78710820676E+01 -0.58561519487E+02  0.63035595407E+02  0.00000000000E+00 0. -1.
<scales pt_clust_5="13000.00000" pt_clust_6="13000.00000" pt_clust_7="13000.00000" pt_clust_8="13000.00000" pt_clust_9="23.32455"></scales>
<clustering>
<clus scale="   23.325">  2  9  1 -1</clus>
<clus scale="   79.863">  5  6 -1 -1</clus>
<clus scale="   89.984">  7  8 -1 -1</clus>
<clus scale="  109.464">  1  5  2 -1</clus>
<clus scale="  109.464">  1  5  2 -1</clus>
</clustering>
</event>
<event>
 9    2  0.6066854E-005  0.1032398E+03  0.7546771E-02  0.1279540E+00
         -1   -1    0    0    0  501 -0.00000000000E+00  0.00000000000E+00  0.29882426442E+03  0.29882426442E+03  0.00000000000E+00 0.  1.
          2   -1    0    0  502    0  0.00000000000E+00 -0.00000000000E+00 -0.23566711556E+03  0.23566711556E+03  0.00000000000E+00 0. -1.
         23    2    1    2    0    0 -0.56474203578E+02 -0.73281762127E+02  0.10234894541E+03  0.16600962939E+03  0.92327342078E+02 0.  0.
         24    2    1    2    0    0  0.38996092454E+02  0.18758719610E+02 -0.18814968996E+03  0.20889885506E+03  0.79786220764E+02 0.  0.
        -11    1    4    4    0    0  0.24951850418E+02  0.44464677009E+02 -0.66639700833E+02  0.83907997640E+02  0.00000000000E+00 0.  1.
         12    1    4    4    0    0  0.14044242036E+02 -0.25705957399E+02 -0.12150998913E+03  0.12499085742E+03  0.00000000000E+00 0. -1.
        -13    1    3    3    0    0 -0.78850700834E+02 -0.46963191135E+02  0.91994373727E+02  0.12994590852E+03  0.00000000000E+00 0.  1.
         13    1    3    3    0    0  0.22376497257E+02 -0.26318570992E+02  0.10354571681E+02  0.36063720874E+02  0.00000000000E+00 0. -1.
         21    1    1    2  502  501  0.17478111123E+02  0.54523042517E+02  0.14895789342E+03  0.15958289553E+03  0.00000000000E+00 0.  1.
<scales pt_clust_5="13000.00000" pt_clust_6="13000.00000" pt_clust_7="13000.00000" pt_clust_8="13000.00000" pt_clust_9="57.25597"></scales>
<clustering>
<clus scale="   57.256">  1  9  2 -1</clus>
<clus scale="   79.786">  5  6 -1 -1</clus>
<clus scale="   92.195">  2  5  1 -1</clus>
<clus scale="   92.327">  7  8 -1 -1</clus>
<clus scale="   92.195">  2  5  1 -1</clus>
</clustering>
</event>
<event>
 9    2  0.6066854E-005  0.1387662E+03  0.7546771E-02  0.1218237E+00
          2   -1    0    0  502    0  0.00000000000E+00  0.00000000000E+00  0.50181060441E+03  0.50181060441E+03  0.00000000000E+00 0. -1.
         -1   -1    0    0    0  501 -0.00000000000E+00 -0.00000000000E+00 -0.46552182723E+02  0.46552182723E+02  0.00000000000E+00 0.  1.
         24    2    1    2    0    0 -0.89674234280E+02  0.44265737601E+02  0.14411572092E+03  0.19267344725E+03  0.79704406660E+02 0.  0.
         23    2    1    2    0    0  0.77158714421E+02 -0.72118441409E+02  0.26570622858E+03  0.30094553336E+03  0.93882252555E+02 0.  0.
        -13    1    3    3    0    0 -0.93161422046E+01  0.45676298817E+02  0.64142666956E+02  0.79293105018E+02  0.00000000000E+00 0.  1.
         14    1    3    3    0    0 -0.80358092076E+02 -0.14105612160E+01  0.79973053960E+02  0.11338034223E+03  0.00000000000E+00 0. -1.
        -13    1    4    4    0    0  0.80668836426E+02 -0.13267059693E+02  0.14051107886E+03  0.16256333943E+03  0.00000000000E+00 0.  1.
         13    1    4    4    0    0 -0.35101220043E+01 -0.58851381715E+02  0.12519514971E+03  0.13838219393E+03  0.00000000000E+00 0. -1.
         21    1    1    2  502  501  0.12515519859E+02  0.27852703808E+02  0.45436472201E+02  0.54743806524E+02  0.00000000000E+00 0.  1.
<scales pt_clust_5="13000.00000" pt_clust_6="13000.00000" pt_clust_7="13000.00000" pt_clust_8="13000.00000" pt_clust_9="30.53541"></scales>
<clustering>
<clus scale="   30.535">  2  9  1 -1</clus>
<clus scale="   79.704">  5  6 -1 -1</clus>
<clus scale="   93.882">  7  8 -1 -1</clus>
<clus scale="  129.595">  2  5  1 -1</clus>
<clus scale="  138.766">  1  5  2 -1</clus>
</clustering>
</event>
<event>
 9    2  0.6066854E-005  0.1003078E+03  0.7546771E-02  0.1285603E+00
         -1   -1    0    0    0  501 -0.00000000000E+00  0.00000000000E+00  0.52148910100E+03  0.52148910100E+03  0.00000000000E+00 0.  1.
          2   -1    0    0  502    0  0.00000000000E+00 -0.00000000000E+00 -0.38943301946E+02  0.38943301946E+02  0.00000000000E+00 0. -1.
         23    2    1    2    0    0  0.11333714333E+02  0.45703317408E+02  0.41814250523E+03  0.43062433377E+03  0.91525492911E+02 0.  0.
         24    2    1    2    0    0  0.43436270393E+01 -0.19418922768E+02  0.46995341621E+02  0.94598905112E+02  0.79651924376E+02 0.  0.
        -11    1    4    4    0    0 -0.22842420552E+02  0.21372459277E+02  0.28142416628E+02  0.42077949164E+02  0.00000000000E+00 0.  1.
         12    1    4    4    0    0  0.27186047591E+02 -0.40791382046E+02  0.18852924994E+02  0.52520955947E+02  0.00000000000E+00 0. -1.
        -13    1    3    3    0    0  0.16560536455E+02  0.67613667040E+02  0.38003023914E+03  0.38635326063E+03  0.00000000000E+00 0.  1.
         13    1    3    3    0    0 -0.52268221216E+01 -0.21910349633E+02  0.38112266089E+02  0.44271073140E+02  0.00000000000E+00 0. -1.
         21    1    1    2  502  501 -0.15677341373E+02 -0.26284394640E+02  0.17407952201E+02  0.35209164061E+02  0.00000000000E+00 0.  1.
<scales pt_clust_5="13000.00000" pt_clust_6="13000.00000" pt_clust_7="13000.00000" pt_clust_8="13000.00000" pt_clust_9="30.60471"></scales>
<clustering>
<clus scale="   30.605">  2  9  1 -1</clus>
<clus scale="   79.652">  5  6 -1 -1</clus>
<clus scale="   89.606">  2  5  1 -1</clus>
<clus scale="   91.525">  7  8 -1 -1</clus>
<clus scale="   30.605">  2  5  1 -1</clus>
</clustering>
</event>
<event>
 9    2  0.6066854E-005  0.1528452E+03  0.7546771E-02  0.1198979E+00
          2   -1    0    0  502    0  0.00000000000E+00  0.00000000000E+00  0.26622017525E+03  0.26622017525E+03  0.00000000000E+00 0. -1.
         -1   -1    0    0    0  501 -0.00000000000E+00 -0.00000000000E+00 -0.19429065919E+03  0.19429065919E+03  0.00000000000E+00 0.  1.
         23    2    1    2    0    0  0.46648182537E+02 -0.93054955902E+02 -0.10694272239E+03  0.17496395505E+03  0.91325582074E+02 0.  0.
         24    2    1    2    0    0 -0.55650729235E+02  0.11277128060E+03  0.20378209784E+03  0.25252748507E+03  0.80178687439E+02 0.  0.
        -13    1    4    4    0    0  0.12556854970E+02  0.25839759774E+02  0.11882830755E+02  0.31089700202E+02  0.00000000000E+00 0.  1.
         14    1    4    4    0    0 -0.68207584205E+02  0.86931520825E+02  0.19189926709E+03  0.22143778486E+03  0.00000000000E+00 0. -1.
        -11    1    3    3    0    0  0.73212573208E+02 -0.75165450147E+02 -0.70317561565E+02  0.12631106537E+03  0.00000000000E+00 0.  1.
         11    1    3    3    0    0 -0.26564390671E+02 -0.17889505755E+02 -0.36625160829E+02  0.48652889674E+02  0.00000000000E+00 0. -1.
         21    1    1    2  502  501  0.90025466978E+01 -0.19716324696E+02 -0.24909859395E+02  0.33019394326E+02  0.00000000000E+00 0.  1.
<scales pt_clust_5="13000.00000" pt_clust_6="13000.00000" pt_clust_7="13000.00000" pt_clust_8="13000.00000" pt_clust_9="21.67439"></scales>
<clustering>
<clus scale="   21.674">  2  9  1 -1</clus>
<clus scale="   80.179">  5  6 -1 -1</clus>
<clus scale="   91.326">  7  8 -1 -1</clus>
<clus scale="  146.458">  1  5  2 -1</clus>
<clus scale="  146.458">  1  5  2 -1</clus>
</clustering>
</event>
<event>
 9    2  0.6066854E-005  0.9800394E+02  0.7546771E-02  0.1288888E+00
          4   -1    0    0  502    0  0.00000000000E+00  0.00000000000E+00  0.17241981856E+03  0.17241981856E+03  0.00000000000E+00 0. -1.
         -3   -1    0    0    0  501 -0.00000000000E+00 -0.00000000000E+00 -0.10958269826E+03  0.10958269826E+03  0.00000000000E+00 0.  1.
         23    2    1    2    0    0 -0.49592319334E+01  0.24221917804E+02 -0.93994630375E+01  0.92974836171E+02  0.89132906225E+02 0.  0.
         24    2    1    2    0    0  0.71489981658E-01 -0.46175484343E+02  0.11067418123E+03  0.14449344621E+03  0.80606458428E+02 0.  0.
        -11    1    4    4    0    0  0.32709926342E+02 -0.37688443401E+02  0.33037058841E+02  0.59848185471E+02  0.00000000000E+00 0.  1.
         12    1    4    4    0    0 -0.32638436361E+02 -0.84870409419E+01  0.77637122389E+02  0.84645260734E+02  0.00000000000E+00 0. -1.
        -13    1    3    3    0    0  0.40633425395E+02  0.17883916427E+02 -0.14402395569E+02  0.46672676420E+02  0.00000000000E+00 0.  1.
         13    1    3    3    0    0 -0.45592657328E+02  0.63380013770E+01  0.50029325316E+01  0.46302159751E+02  0.00000000000E+00 0. -1.
         21    1    1    2  502  501  0.48877419517E+01  0.21953566539E+02 -0.38437597893E+02  0.44534234438E+02  0.00000000000E+00 0. -1.
<scales pt_clust_5="13000.00000" pt_clust_6="13000.00000" pt_clust_7="13000.00000" pt_clust_8="13000.00000" pt_clust_9="22.49109"></scales>
<clustering>
<clus scale="   22.491">  2  9  1 -1</clus>
<clus scale="   80.606">  5  6 -1 -1</clus>
<clus scale="   89.133">  7  8 -1 -1</clus>
<clus scale="   90.319">  1  5  2 -1</clus>
<clus scale="   90.319">  1  5  2 -1</clus>
</clustering>
</event>
<event>
 9    2  0.6066854E-005  0.1464024E+03  0.7546771E-02  0.1208427E+00
          2   -1    0    0  502    0  0.00000000000E+00  0.00000000000E+00  0.14800788210E+03  0.14800788210E+03  0.00000000000E+00 0. -1.
         -1   -1    0    0    0  501 -0.00000000000E+00 -0.00000000000E+00 -0.27524061127E+03  0.27524061127E+03  0.00000000000E+00 0.  1.
         24    2    1    2    0    0  0.64519942299E+02 -0.10704129340E+03 -0.18318590672E+03  0.23623142932E+03  0.81409768033E+02 0.  0.
         23    2    1    2    0    0 -0.58984399853E+02  0.87398304828E+02  0.72140340136E+02  0.16096877307E+03  0.97923920042E+02 0.  0.
        -13    1    3    3    0    0  0.28149479549E+02 -0.32975736267E+02 -0.13245390062E+03  0.13936939467E+03  0.00000000000E+00 0.  1.
         14    1    3    3    0    0  0.36370462750E+02 -0.74065557129E+02 -0.50732006103E+02  0.96862034651E+02  0.00000000000E+00 0. -1.
        -11    1    4    4    0    0  0.85836625809E+01  0.65774793639E+02  0.10845368682E+02  0.67213278178E+02  0.00000000000E+00 0.  1.
         11    1    4    4    0    0 -0.67568062434E+02  0.21623511189E+02  0.61294971454E+02  0.93755494894E+02  0.00000000000E+00 0. -1.
         21    1    1    2  502  501 -0.55355424457E+01  0.19642988568E+02 -0.16187162583E+02  0.26048290972E+02  0.00000000000E+00 0.  1.
<scales pt_clust_5="13000.00000" pt_clust_6="13000.00000" pt_clust_7="13000.00000" pt_clust_8="13000.00000" pt_clust_9="20.40807"></scales>
<clustering>
<clus scale="   20.408">  2  9  1 -1</clus>
<clus scale="   81.410">  5  6 -1 -1</clus>
<clus scale="   97.924">  7  8 -1 -1</clus>
<clus scale="  135.912">  2  5  1 -1</clus>
<clus scale="  146.402">  1  5  2 -1</clus>
</clustering>
</event>
<event>
 9    2  0.6066854E-005  0.1097486E+03  0.7546771E-02  0.1263663E+00
         -1   -1    0    0    0  501 -0.00000000000E+00  0.00000000000E+00  0.44598200582E+02  0.44598200582E+02  0.00000000000E+00 0.  1.
          2   -1    0    0  502    0  0.00000000000E+00 -0.00000000000E+00 -0.55679802151E+03  0.55679802151E+03  0.00000000000E+00 0. -1.
         23    2    1    2    0    0  0.41735765791E+02  0.63383688633E+01 -0.54755764412E+02  0.11228174495E+03  0.88470037000E+02 0.  0.
         24    2    1    2    0    0 -0.70123944262E+02  0.29781599650E+01 -0.44309332677E+03  0.45596889176E+03  0.81545674476E+02 0.  0.
        -11    1    4    4    0    0 -0.57398198345E+01 -0.29008041889E+02 -0.69629080840E+02  0.75648006745E+02  0.00000000000E+00 0.  1.
         12    1    4    4    0    0 -0.64384124428E+02  0.31986201854E+02 -0.37346424593E+03  0.38032088501E+03  0.00000000000E+00 0. -1.
        -13    1    3    3    0    0  0.52643278198E+02  0.37711761600E+02 -0.34436438379E+02  0.73344120355E+02  0.00000000000E+00 0.  1.
         13    1    3    3    0    0 -0.10907512407E+02 -0.31373392736E+02 -0.20319326033E+02  0.38937624595E+02  0.00000000000E+00 0. -1.
         21    1    1    2  502  501  0.28388178471E+02 -0.93165288283E+01 -0.14350729745E+02  0.33145585385E+02  0.00000000000E+00 0.  1.
<scales pt_clust_5="13000.00000" pt_clust_6="13000.00000" pt_clust_7="13000.00000" pt_clust_8="13000.00000" pt_clust_9="29.87786"></scales>
<clustering>
<clus scale="   29.878">  1  9  2 -1</clus>
<clus scale="   81.546">  5  6 -1 -1</clus>
<clus scale="   88.470">  7  8 -1 -1</clus>
<clus scale="  104.247">  2  5  1 -1</clus>
<clus scale="  104.247">  2  5  1 -1</clus>
</clustering>
</event>
<event>
 9    2  0.6066854E-005  0.1029202E+03  0.7546771E-02  0.1278385E+00
          2   -1    0    0  502    0  0.00000000000E+00  0.00000000000E+00  0.21627683361E+03  0.21627683361E+03  0.00000000000E+00 0. -1.
         -1   -1    0    0    0  501 -0.00000000000E+00 -0.00000000000E+00 -0.12974272717E+03  0.12974272717E+03  0.00000000000E+00 0.  1.
         24    2    1    2    0    0  0.36989736396E+01  0.38055198127E+02 -0.10263115559E+02  0.88091539839E+02  0.78695027414E+02 0.  0.
         23    2    1    2    0    0 -0.78318236063E+01 -0.57826238352E+02  0.15994177353E+03  0.19163164949E+03  0.87955141190E+02 0.  0.
        -13    1    3    3    0    0 -0.19491862398E+01  0.38564954218E+02 -0.41300598522E+02  0.56540202150E+02  0.00000000000E+00 0.  1.
         14    1    3    3    0    0  0.56481598794E+01 -0.50975609145E+00  0.31037482963E+02  0.31551337689E+02  0.00000000000E+00 0. -1.
        -11    1    4    4    0    0 -0.27514293174E+02 -0.69777582719E+02  0.85635718470E+02  0.11383946441E+03  0.00000000000E+00 0.  1.
         11    1    4    4    0    0  0.19682469567E+02  0.11951344367E+02  0.74306055062E+02  0.77792185079E+02  0.00000000000E+00 0. -1.
         21    1    1    2  502  501  0.41328499667E+01  0.19771040225E+02 -0.63144551533E+02  0.66296371460E+02  0.00000000000E+00 0.  1.
<scales pt_clust_5="13000.00000" pt_clust_6="13000.00000" pt_clust_7="13000.00000" pt_clust_8="13000.00000" pt_clust_9="20.19838"></scales>
<clustering>
<clus scale="   20.198">  2  9  1 -1</clus>
<clus scale="   78.695">  5  6 -1 -1</clus>
<clus scale="   87.955">  7  8 -1 -1</clus>
<clus scale="   95.128">  2  5  1 -1</clus>
<clus scale="  102.920">  1  5  2 -1</clus>
</clustering>
</event>
<event>
 9    2  0.6066854E-005  0.9773395E+02  0.7546771E-02  0.1290021E+00
         -1   -1    0    0    0  501 -0.00000000000E+00  0.00000000000E+00  0.64764291730E+02  0.64764291730E+02  0.00000000000E+00 0.  1.
          2   -1    0    0  502    0  0.00000000000E+00 -0.00000000000E+00 -0.28923003822E+03  0.28923003822E+03  0.00000000000E+00 0. -1.
         23    2    1    2    0    0  0.46712715512E+02 -0.29243844687E+01 -0.28679479202E+01  0.10241751090E+03  0.91052136701E+02 0.  0.
         24    2    1    2    0    0 -0.31969640422E+02 -0.11743910329E+02 -0.20963910439E+03  0.22758666478E+03  0.81775048510E+02 0.  0.
        -13    1    4    4    0    0  0.21959096223E+02 -0.24539425628E+02 -0.86162925851E+02  0.92241179027E+02  0.00000000000E+00 0.  1.
         14    1    4    4    0    0 -0.53928736644E+02  0.12795515299E+02 -0.12347617854E+03  0.13534548576E+03  0.00000000000E+00 0. -1.
        -11    1    3    3    0    0  0.14272340382E+02  0.29170365445E+02  0.31536425056E+02  0.45267604592E+02  0.00000000000E+00 0.  1.
         11    1    3    3    0    0  0.32440375131E+02 -0.32094749914E+02 -0.34404372977E+02  0.57149906304E+02  0.00000000000E+00 0. -1.
         21    1    1    2  502  501 -0.14743075091E+02  0.14668294797E+02 -0.11958694175E+02  0.23990154267E+02  0.00000000000E+00 0. -1.
<scales pt_clust_5="13000.00000" pt_clust_6="13000.00000" pt_clust_7="13000.00000" pt_clust_8="13000.00000" pt_clust_9="20.79705"></scales>
<clustering>
<clus scale="   20.797">  1  9  2 -1</clus>
<clus scale="   81.775">  5  6 -1 -1</clus>
<clus scale="   89.155">  2  5  1 -1</clus>
<clus scale="   91.052">  7  8 -1 -1</clus>
<clus scale="   89.155">  2  5  1 -1</clus>
</clustering>
</event>
<event>
 9    2  0.6066854E-005  0.9278705E+02  0.7546771E-02  0.1301286E+00
         -1   -1    0    0    0  501 -0.00000000000E+00  0.00000000000E+00  0.30155998667E+03  0.30155998667E+03  0.00000000000E+00 0.  1.
          2   -1    0    0  502    0  0.00000000000E+00 -0.00000000000E+00 -0.21883197289E+03  0.21883197289E+03  0.00000000000E+00 0. -1.
         23    2    1    2    0    0 -0.49469277195E+02 -0.12058091860E+02  0.12079028216E+03  0.15687301183E+03  0.86175649749E+02 0.  0.
         24    2    1    2    0    0  0.25803527187E+02  0.21595467820E+02 -0.19085336490E+03  0.20861204524E+03  0.77212643267E+02 0.  0.
        -13    1    4    4    0    0 -0.24311869977E+02  0.36770684819E+01 -0.27906563250E+02  0.37193603305E+02  0.00000000000E+00 0.  1.
         14    1    4    4    0    0  0.50115397164E+02  0.17918399338E+02 -0.16294680165E+03  0.17141844193E+03  0.00000000000E+00 0. -1.
        -13    1    3    3    0    0 -0.74346846784E+02 -0.11229396754E+02  0.91821907558E+02  0.11867946615E+03  0.00000000000E+00 0.  1.
         13    1    3    3    0    0  0.24877569589E+02 -0.82869510593E+00  0.28968374602E+02  0.38193545676E+02  0.00000000000E+00 0. -1.
         21    1    1    2  502  501  0.23665750008E+02 -0.95373759600E+01  0.15279109652E+03  0.15490690249E+03  0.00000000000E+00 0. -1.
<scales pt_clust_5="13000.00000" pt_clust_6="13000.00000" pt_clust_7="13000.00000" pt_clust_8="13000.00000" pt_clust_9="25.51528"></scales>
<clustering>
<clus scale="   25.515">  1  9  2 -1</clus>
<clus scale="   77.213">  5  6 -1 -1</clus>
<clus scale="   84.528">  2  5  1 -1</clus>
<clus scale="   86.176">  7  8 -1 -1</clus>
<clus scale="   84.528">  2  5  1 -1</clus>
</clustering>
</event>
<event>
 9    2  0.6066854E-005  0.1274394E+03  0.7546771E-02  0.1235819E+00
          2   -1    0    0  502    0  0.00000000000E+00  0.00000000000E+00  0.39170293158E+03  0.39170293158E+03  0.00000000000E+00 0. -1.
         -1   -1    0    0    0  501 -0.00000000000E+00 -0.00000000000E+00 -0.66253417065E+02  0.66253417065E+02  0.00000000000E+00 0.  1.
         23    2    1    2    0    0 -0.10662373136E+02 -0.94518625675E+02  0.33446051470E+02  0.13629823351E+03  0.91712121873E+02 0.  0.
         24    2    1    2    0    0  0.19427636400E+02  0.66097006723E+02  0.25148613279E+03  0.27139607862E+03  0.75261604750E+02 0.  0.
        -13    1    4    4    0    0  0.47774103144E+02  0.37030956258E+02  0.16843028271E+03  0.17894808406E+03  0.00000000000E+00 0.  1.
         14    1    4    4    0    0 -0.28346466743E+02  0.29066050464E+02  0.83055850080E+02  0.92447994565E+02  0.00000000000E+00 0. -1.
        -11    1    3    3    0    0  0.23044516621E+02 -0.87201469362E+01 -0.18202036061E+02  0.30633393962E+02  0.00000000000E+00 0.  1.
         11    1    3    3    0    0 -0.33706889757E+02 -0.85798478738E+02  0.51648087531E+02  0.10566483955E+03  0.00000000000E+00 0. -1.
         21    1    1    2  502  501 -0.87652632644E+01  0.28421618952E+02  0.40517330250E+02  0.50262036514E+02  0.00000000000E+00 0. -1.
<scales pt_clust_5="13000.00000" pt_clust_6="13000.00000" pt_clust_7="13000.00000" pt_clust_8="13000.00000" pt_clust_9="29.74253"></scales>
<clustering>
<clus scale="   29.743">  1  9  2 -1</clus>
<clus scale="   75.262">  5  6 -1 -1</clus>
<clus scale="   91.712">  7  8 -1 -1</clus>
<clus scale="  116.164">  1  5  2 -1</clus>
<clus scale="   29.743">  1  5  2 -1</clus>
</clustering>
</event>
<event>
 9    2  0.6066854E-005  0.1226423E+03  0.7546771E-02  0.1241901E+00
          4   -1    0    0  502    0  0.00000000000E+00  0.00000000000E+00  0.82706663788E+02  0.82706663788E+02  0.00000000000E+00 0. -1.
         -3   -1    0    0    0  501 -0.00000000000E+00 -0.00000000000E+00 -0.53786850688E+03  0.53786850688E+03  0.00000000000E+00 0.  1.
         24    2    1    2    0    0 -0.95478728254E+02 -0.22562970702E+02 -0.40766745113E+03  0.42701096881E+03  0.80748632091E+02 0.  0.
         23    2    1    2    0    0  0.73725323857E+02  0.31779981377E+02  0.19085716450E+02  0.12291666315E+03  0.91098029137E+02 0.  0.
        -13    1    3    3    0    0 -0.90193356674E+02  0.47673909963E+01 -0.36542539305E+03  0.37642168839E+03  0.00000000000E+00 0.  1.
         14    1    3    3    0    0 -0.52853715799E+01 -0.27330361698E+02 -0.42242058074E+02  0.50589280422E+02  0.00000000000E+00 0. -1.
        -11    1    4    4    0    0  0.90434457166E+02  0.10340456735E+02  0.26387237078E+02  0.94771316172E+02  0.00000000000E+00 0. -1.
         11    1    4    4    0    0 -0.16709133309E+02  0.21439524642E+02 -0.73015206285E+01  0.28145346975E+02  0.00000000000E+00 0.  1.
         21    1    1    2  502  501  0.21753404398E+02 -0.92170106749E+01 -0.66580108411E+02  0.70647538702E+02  0.00000000000E+00 0.  1.
<scales pt_clust_5="13000.00000" pt_clust_6="13000.00000" pt_clust_7="13000.00000" pt_clust_8="13000.00000" pt_clust_9="23.62549"></scales>
<clustering>
<clus scale="   23.625">  2  9  1 -1</clus>
<clus scale="   80.749">  5  6 -1 -1</clus>
<clus scale="   91.098">  7  8 -1 -1</clus>
<clus scale="  115.163">  2  5  1 -1</clus>
<clus scale="  122.642">  1  5  2 -1</clus>
</clustering>
</event>
<event>
 9    2  0.6066854E-005  0.1475454E+03  0.7546771E-02  0.1205107E+00
         -1   -1    0    0    0  501 -0.00000000000E+00  0.00000000000E+00  0.26845646928E+03  0.26845646928E+03  0.00000000000E+00 0.  1.
          2   -1    0    0  502    0  0.00000000000E+00 -0.00000000000E+00 -0.34739973615E+03  0.34739973615E+03  0.00000000000E+00 0. -1.
         24    2    1    2    0    0  0.11485604311E+03 -0.10812317037E+02  0.18289107857E+03  0.23074639633E+03  0.80535308790E+02 0.  0.
         23    2    1    2    0    0 -0.11689750855E+03 -0.16863025186E+02 -0.30201203248E+03  0.33628011849E+03  0.89014949332E+02 0.  0.
        -13    1    3    3    0    0  0.84136112798E+02  0.23627544376E+02  0.82163652151E+02  0.11995003987E+03  0.00000000000E+00 0.  1.
         14    1    3    3    0    0  0.30719930309E+02 -0.34439861413E+02  0.10072742642E+03  0.11079635646E+03  0.00000000000E+00 0. -1.
        -13    1    4    4    0    0 -0.79748755123E+02  0.88342214239E+00 -0.89763273413E+02  0.12007534981E+03  0.00000000000E+00 0.  1.
         13    1    4    4    0    0 -0.37148753430E+02 -0.17746447328E+02 -0.21224875907E+03  0.21620476868E+03  0.00000000000E+00 0. -1.
         21    1    1    2  502  501  0.20414654450E+01  0.27675342223E+02  0.40177687036E+02  0.48829690598E+02  0.00000000000E+00 0.  1.
<scales pt_clust_5="13000.00000" pt_clust_6="13000.00000" pt_clust_7="13000.00000" pt_clust_8="13000.00000" pt_clust_9="27.75053"></scales>
<clustering>
<clus scale="   27.751">  1  9  2 -1</clus>
<clus scale="   80.535">  5  6 -1 -1</clus>
<clus scale="   89.015">  7  8 -1 -1</clus>
<clus scale="  142.590">  1  5  2 -1</clus>
<clus scale="  147.545">  2  5  1 -1</clus>
</clustering>
</event>
<event>
 9    2  0.6066854E-005  0.1662306E+03  0.7546771E-02  0.1186435E+00
         -1   -1    0    0    0  501 -0.00000000000E+00  0.00000000000E+00  0.11776302420E+03  0.11776302420E+03  0.00000000000E+00 0.  1.
          2   -1    0    0  502    0  0.00000000000E+00 -0.00000000000E+00 -0.29907815950E+03  0.29907815950E+03  0.00000000000E+00 0. -1.
         23    2    1    2    0    0 -0.13153606504E+03  0.80231922151E+02 -0.80832744208E+02  0.20396138287E+03  0.10643033133E+03 0.  0.
         24    2    1    2    0    0  0.10566591448E+03 -0.37520905919E+02 -0.81729364523E+02  0.15953965082E+03  0.78740760053E+02 0.  0.
        -13    1    4    4    0    0  0.26782314586E+02 -0.26706189516E+02  0.89485177417E+01  0.38866295203E+02  0.00000000000E+00 0.  1.
         14    1    4    4    0    0  0.78883599898E+02 -0.10814716403E+02 -0.90677882265E+02  0.12067335562E+03  0.00000000000E+00 0. -1.
        -13    1    3    3    0    0 -0.11609419953E+03  0.11637863149E+02 -0.55744482927E+02  0.12930874062E+03  0.00000000000E+00 0. -1.
         13    1    3    3    0    0 -0.15441865505E+02  0.68594059002E+02 -0.25088261281E+02  0.74652642248E+02  0.00000000000E+00 0.  1.
         21    1    1    2  502  501  0.25870150556E+02 -0.42711016232E+02 -0.18753026565E+02  0.53340150006E+02  0.00000000000E+00 0.  1.
<scales pt_clust_5="13000.00000" pt_clust_6="13000.00000" pt_clust_7="13000.00000" pt_clust_8="13000.00000" pt_clust_9="49.93491"></scales>
<clustering>
<clus scale="   49.935">  1  9  2 -1</clus>
<clus scale="   78.741">  5  6 -1 -1</clus>
<clus scale="  106.430">  7  8 -1 -1</clus>
<clus scale="  150.018">  2  5  1 -1</clus>
<clus scale="  150.018">  2  5  1 -1</clus>
</clustering>
</event>
<event>
 9    2  0.6066854E-005  0.9391554E+02  0.7546771E-02  0.1300483E+00
         -1   -1    0    0    0  501 -0.00000000000E+00  0.00000000000E+00  0.17170733293E+03  0.17170733293E+03  0.00000000000E+00 0.  1.
          2   -1    0    0  502    0  0.00000000000E+00 -0.00000000000E+00 -0.99853623637E+02  0.99853623637E+02  0.00000000000E+00 0. -1.
         24    2    1    2    0    0  0.38860787927E+01  0.44199637707E+02  0.82602701498E+02  0.12354600251E+03  0.80446869801E+02 0.  0.
         23    2    1    2    0    0  0.33462147668E+01 -0.12039242982E+02 -0.42697339374E+02  0.10210968261E+03  0.91908563089E+02 0.  0.
        -11    1    3    3    0    0  0.14598773791E+02 -0.16161932356E+02  0.14323015761E+01  0.21826216838E+02  0.00000000000E+00 0.  1.
         12    1    3    3    0    0 -0.10712694998E+02  0.60361570063E+02  0.81170399922E+02  0.10171978568E+03  0.00000000000E+00 0. -1.
        -11    1    4    4    0    0 -0.34660945189E+02 -0.13850817266E+01 -0.51091603561E+02  0.61754769267E+02  0.00000000000E+00 0. -1.
         11    1    4    4    0    0  0.38007159956E+02 -0.10654161255E+02  0.83942641875E+01  0.40354913346E+02  0.00000000000E+00 0.  1.
         21    1    1    2  502  501 -0.72322935595E+01 -0.32160394725E+02  0.31948347163E+02  0.45905271434E+02  0.00000000000E+00 0.  1.
<scales pt_clust_5="13000.00000" pt_clust_6="13000.00000" pt_clust_7="13000.00000" pt_clust_8="13000.00000" pt_clust_9="32.96357"></scales>
<clustering>
<clus scale="   32.964">  1  9  2 -1</clus>
<clus scale="   80.447">  5  6 -1 -1</clus>
<clus scale="   82.732">  1  5  2 -1</clus>
<clus scale="   91.909">  7  8 -1 -1</clus>
<clus scale="   93.916">  2  5  1 -1</clus>
</clustering>
</event>
<event>
 9    2  0.6066854E-005  0.1251025E+03  0.7546771E-02  0.1237486E+00
         -1   -1    0    0    0  501 -0.00000000000E+00  0.00000000000E+00  0.17849935286E+03  0.17849935286E+03  0.00000000000E+00 0.  1.
          2   -1    0    0  502    0  0.00000000000E+00 -0.00000000000E+00 -0.21471023576E+03  0.21471023576E+03  0.00000000000E+00 0. -1.
         23    2    1    2    0    0  0.67399970307E+02  0.25459353260E+02  0.11606087000E+03  0.16363578946E+03  0.90086688139E+02 0.  0.
         24    2    1    2    0    0 -0.88284133893E+02 -0.12212229653E+02 -0.16297896434E+03  0.20262423610E+03  0.80939553914E+02 0.  0.
        -11    1    4    4    0    0 -0.85329600320E+02 -0.38714949592E+02 -0.12516074124E+03  0.15634960557E+03  0.00000000000E+00 0.  1.
         12    1    4    4    0    0 -0.29545335726E+01  0.26502719938E+02 -0.37818223104E+02  0.46274630539E+02  0.00000000000E+00 0. -1.
        -13    1    3    3    0    0  0.34968204213E+02  0.55649482754E+02  0.44170280151E+02  0.79187460404E+02  0.00000000000E+00 0. -1.
         13    1    3    3    0    0  0.32431766095E+02 -0.30190129494E+02  0.71890589848E+02  0.84448329051E+02  0.00000000000E+00 0.  1.
         21    1    1    2  502  501  0.20884163585E+02 -0.13247123606E+02  0.10707211448E+02  0.26949563067E+02  0.00000000000E+00 0.  1.
<scales pt_clust_5="13000.00000" pt_clust_6="13000.00000" pt_clust_7="13000.00000" pt_clust_8="13000.00000" pt_clust_9="24.73125"></scales>
<clustering>
<clus scale="   24.731">  1  9  2 -1</clus>
<clus scale="   80.940">  5  6 -1 -1</clus>
<clus scale="   90.087">  7  8 -1 -1</clus>
<clus scale="  118.685">  2  5  1 -1</clus>
<clus scale="  118.685">  2  5  1 -1</clus>
</clustering>
</event>
<event>
 9    2  0.6066854E-005  0.9644794E+02  0.7546771E-02  0.1291465E+00
          2   -1    0    0  502    0  0.00000000000E+00  0.00000000000E+00  0.38147069235E+03  0.38147069235E+03  0.00000000000E+00 0. -1.
         -1   -1    0    0    0  501 -0.00000000000E+00 -0.00000000000E+00 -0.72519037273E+02  0.72519037273E+02  0.00000000000E+00 0.  1.
         23    2    1    2    0    0 -0.18269297303E+02  0.45281965897E+02 -0.15637608331E+02  0.10281701383E+03  0.89121152821E+02 0.  0.
         24    2    1    2    0    0  0.31028589949E+02 -0.19162603234E+02  0.29951760348E+03  0.31278510338E+03  0.82424191516E+02 0.  0.
        -13    1    4    4    0    0 -0.45627576295E+01  0.21181637186E+02  0.25167257931E+02  0.33209507416E+02  0.00000000000E+00 0.  1.
         14    1    4    4    0    0  0.35591347578E+02 -0.40344240420E+02  0.27435034555E+03  0.27957559597E+03  0.00000000000E+00 0. -1.
        -11    1    3    3    0    0 -0.42993019444E+02 -0.65796228390E+01 -0.12606724728E+02  0.45283779281E+02  0.00000000000E+00 0. -1.
         11    1    3    3    0    0  0.24723722141E+02  0.51861588736E+02 -0.30308836032E+01  0.57533234553E+02  0.00000000000E+00 0.  1.
         21    1    1    2  502  501 -0.12759292645E+02 -0.26119362663E+02  0.25071659929E+02  0.38387612407E+02  0.00000000000E+00 0. -1.
<scales pt_clust_5="13000.00000" pt_clust_6="13000.00000" pt_clust_7="13000.00000" pt_clust_8="13000.00000" pt_clust_9="29.06924"></scales>
<clustering>
<clus scale="   29.069">  2  9  1 -1</clus>
<clus scale="   82.424">  5  6 -1 -1</clus>
<clus scale="   89.121">  7  8 -1 -1</clus>
<clus scale="   90.296">  1  5  2 -1</clus>
<clus scale="   90.296">  1  5  2 -1</clus>
</clustering>
</event>
<event>
 9    2  0.6066854E-005  0.1725263E+03  0.7546771E-02  0.1175256E+00
         -1   -1    0    0    0  501 -0.00000000000E+00  0.00000000000E+00  0.16029347190E+03  0.16029347190E+03  0.00000000000E+00 0.  1.
          2   -1    0    0  502    0  0.00000000000E+00 -0.00000000000E+00 -0.23134161538E+03  0.23134161538E+03  0.00000000000E+00 0. -1.
         23    2    1    2    0    0 -0.12578081835E+03  0.56919690835E+02  0.11473061329E+02  0.16055836283E+03  0.81158433132E+02 0.  0.
         24    2    1    2    0    0  0.15043880499E+03 -0.58326681890E+02 -0.94328329646E+02  0.20370147786E+03  0.81010014446E+02 0.  0.
        -13    1    4    4    0    0  0.99712067632E+02 -0.49453919870E+02 -0.19703367156E+02  0.11303277976E+03  0.00000000000E+00 0.  1.
         14    1    4    4    0    0  0.50726737356E+02 -0.88727620195E+01 -0.74624962490E+02  0.90668698100E+02  0.00000000000E+00 0. -1.
        -13    1    3    3    0    0 -0.91199244520E+02  0.64296249488E+02  0.36313502202E+02  0.11734555953E+03  0.00000000000E+00 0. -1.
         13    1    3    3    0    0 -0.34581573826E+02 -0.73765586536E+01 -0.24840440874E+02  0.43212803296E+02  0.00000000000E+00 0.  1.
         21    1    1    2  502  501 -0.24657986641E+02  0.14069910551E+01  0.11807124844E+02  0.27375246594E+02  0.00000000000E+00 0.  1.
<scales pt_clust_5="13000.00000" pt_clust_6="13000.00000" pt_clust_7="13000.00000" pt_clust_8="13000.00000" pt_clust_9="24.69810"></scales>
<clustering>
<clus scale="   24.698">  1  9  2 -1</clus>
<clus scale="   81.010">  5  6 -1 -1</clus>
<clus scale="   81.158">  7  8 -1 -1</clus>
<clus scale="  172.457">  2  5  1 -1</clus>
<clus scale="  172.457">  2  5  1 -1</clus>
</clustering>
</event>
<event>
 9    2  0.6066854E-005  0.9876657E+02  0.7546771E-02  0.1289203E+00
          2   -1    0    0  502    0  0.00000000000E+00  0.00000000000E+00  0.11130509157E+03  0.11130509157E+03  0.00000000000E+00 0. -1.
         -1   -1    0    0    0  501 -0.00000000000E+00 -0.00000000000E+00 -0.17501530319E+03  0.17501530319E+03  0.00000000000E+00 0.  1.
         23    2    1    2    0    0  0.22369501984E+02  0.42234970157E+02 -0.73231497394E+02  0.12637601642E+03  0.91235179573E+02 0.  0.
         24    2    1    2    0    0  0.26445254549E+02 -0.32186681161E+02  0.43666977756E+02  0.99530995322E+02  0.79147205580E+02 0.  0.
        -11    1    4    4    0    0  0.16684113452E+02  0.25705444279E+02  0.17061858773E+02  0.35074727826E+02  0.00000000000E+00 0.  1.
         12    1    4    4    0    0  0.97611410961E+01 -0.57892125440E+02  0.26605118983E+02  0.64456267496E+02  0.00000000000E+00 0. -1.
        -11    1    3    3    0    0  0.29648603707E+02 -0.23710387394E+01  0.10237897246E+02  0.31455938493E+02  0.00000000000E+00 0. -1.
         11    1    3    3    0    0 -0.72791017226E+01  0.44606008896E+02 -0.83469394640E+02  0.94920077924E+02  0.00000000000E+00 0.  1.
         21    1    1    2  502  501 -0.48814756533E+02 -0.10048288996E+02 -0.34145691978E+02  0.60413383019E+02  0.00000000000E+00 0.  1.
<scales pt_clust_5="13000.00000" pt_clust_6="13000.00000" pt_clust_7="13000.00000" pt_clust_8="13000.00000" pt_clust_9="49.83822"></scales>
<clustering>
<clus scale="   49.838">  2  9  1 -1</clus>
<clus scale="   79.147">  5  6 -1 -1</clus>
<clus scale="   87.723">  1  5  2 -1</clus>
<clus scale="   91.235">  7  8 -1 -1</clus>
<clus scale="   87.723">  1  5  2 -1</clus>
</clustering>
</event>
<event>
 9    2  0.6066854E-005  0.1520502E+03  0.7546771E-02  0.1221852E+00
          2   -1    0    0  502    0  0.00000000000E+00  0.00000000000E+00  0.79585797342E+02  0.79585797342E+02  0.00000000000E+00 0. -1.
         -1   -1    0    0    0  501 -0.00000000000E+00 -0.00000000000E+00 -0.55230132892E+03  0.55230132892E+03  0.00000000000E+00 0.  1.
         24    2    1    2    0    0  0.32625517737E+02  0.27080271170E+02 -0.20675231021E+03  0.22601769587E+03  0.80868507941E+02 0.  0.
         23    2    1    2    0    0 -0.46433752772E+02 -0.12746303565E+03 -0.53669132571E+02  0.17063306650E+03  0.88500557843E+02 0.  0.
        -13    1    3    3    0    0  0.37576772067E+02  0.12898523482E+02 -0.20721515639E+03  0.21098935220E+03  0.00000000000E+00 0.  1.
         14    1    3    3    0    0 -0.49512543301E+01  0.14181747688E+02  0.46284617489E+00  0.15028343672E+02  0.00000000000E+00 0. -1.
        -13    1    4    4    0    0 -0.69248915289E+02 -0.90636907270E+02 -0.56361865733E+02  0.12722861760E+03  0.00000000000E+00 0.  1.
         13    1    4    4    0    0  0.22815162518E+02 -0.36826128377E+02  0.26927331622E+01  0.43404448895E+02  0.00000000000E+00 0. -1.
         21    1    1    2  502  501  0.13808235035E+02  0.10038276448E+03 -0.21229408880E+03  0.23523636389E+03  0.00000000000E+00 0.  1.
<scales pt_clust_5="13000.00000" pt_clust_6="13000.00000" pt_clust_7="13000.00000" pt_clust_8="13000.00000" pt_clust_9="123.64025"></scales>
<clustering>
<clus scale="   80.869">  5  6 -1 -1</clus>
<clus scale="   88.501">  7  8 -1 -1</clus>
<clus scale="   91.310">  2  5  1 -1</clus>
<clus scale="  123.640">  2  9  1 -1</clus>
<clus scale="  152.050">  1  5  2 -1</clus>
</clustering>
</event>
<event>
 9    2  0.6066854E-005  0.1084644E+03  0.7546771E-02  0.1268104E+00
         -1   -1    0    0    0  501 -0.00000000000E+00  0.00000000000E+00  0.49832733789E+03  0.49832733789E+03  0.00000000000E+00 0.  1.
          2   -1    0    0  502    0  0.00000000000E+00 -0.00000000000E+00 -0.29352015671E+03  0.29352015671E+03  0.00000000000E+00 0. -1.
         23    2    1    2    0    0 -0.13078085313E+02 -0.64083418137E+02  0.32814144545E+03  0.34683857277E+03  0.91337103873E+02 0.  0.
         24    2    1    2    0    0 -0.17081570652E+02  0.55970764698E+02 -0.27388678308E+03  0.29125105727E+03  0.79929355407E+02 0.  0.
        -13    1    4    4    0    0  0.32100264093E+02  0.18217098447E+02 -0.11008078803E+03  0.11610370160E+03  0.00000000000E+00 0.  1.
         14    1    4    4    0    0 -0.49181834745E+02  0.37753666251E+02 -0.16380599505E+03  0.17514735567E+03  0.00000000000E+00 0. -1.
        -11    1    3    3    0    0  0.33157686992E+02 -0.32626870001E+02  0.22247864583E+03  0.22728988694E+03  0.00000000000E+00 0.  1.
         11    1    3    3    0    0 -0.46235772305E+02 -0.31456548136E+02  0.10566279961E+03  0.11954868583E+03  0.00000000000E+00 0. -1.
         21    1    1    2  502  501  0.30159655965E+02  0.81126534389E+01  0.15055251882E+03  0.15375786457E+03  0.00000000000E+00 0. -1.
<scales pt_clust_5="13000.00000" pt_clust_6="13000.00000" pt_clust_7="13000.00000" pt_clust_8="13000.00000" pt_clust_9="31.23171"></scales>
<clustering>
<clus scale="   31.232">  1  9  2 -1</clus>
<clus scale="   79.929">  5  6 -1 -1</clus>
<clus scale="   91.337">  7  8 -1 -1</clus>
<clus scale="   99.049">  2  5  1 -1</clus>
<clus scale="   99.049">  2  5  1 -1</clus>
</clustering>
</event>
<event>
 9    2  0.6066854E-005  0.9917532E+02  0.7546771E-02  0.1289138E+00
         -1   -1    0    0    0  501 -0.00000000000E+00  0.00000000000E+00  0.87082588034E+02  0.87082588034E+02  0.00000000000E+00 0.  1.
          2   -1    0    0  502    0  0.00000000000E+00 -0.00000000000E+00 -0.72384929660E+03  0.72384929660E+03  0.00000000000E+00 0. -1.
         23    2    1    2    0    0 -0.59817787447E+02 -0.24659669067E+00  0.14426610025E+02  0.11256151940E+03  0.94253594459E+02 0.  0.
         24    2    1    2    0    0  0.23606266913E+02 -0.18667079983E+02 -0.65180038197E+03  0.65751244175E+03  0.81075011043E+02 0.  0.
        -13    1    4    4    0    0  0.19688903976E+02 -0.46726854157E+02 -0.27407096730E+03  0.27872198865E+03  0.00000000000E+00 0.  1.
         14    1    4    4    0    0  0.39173629369E+01  0.28059774174E+02 -0.37772941467E+03  0.37879045310E+03  0.00000000000E+00 0. -1.
        -13    1    3    3    0    0 -0.13031251427E+02  0.36949348653E+02  0.31641558643E+02  0.50361256070E+02  0.00000000000E+00 0.  1.
         13    1    3    3    0    0 -0.46786536020E+02 -0.37195945344E+02 -0.17214948618E+02  0.62200263333E+02  0.00000000000E+00 0. -1.
         21    1    1    2  502  501  0.36211520534E+02  0.18913676674E+02  0.60706337900E+00  0.40857923475E+02  0.00000000000E+00 0.  1.
<scales pt_clust_5="13000.00000" pt_clust_6="13000.00000" pt_clust_7="13000.00000" pt_clust_8="13000.00000" pt_clust_9="40.85341"></scales>
<clustering>
<clus scale="   40.853">  1  9  2 -1</clus>
<clus scale="   81.075">  5  6 -1 -1</clus>
<clus scale="   86.748">  2  5  1 -1</clus>
<clus scale="   94.254">  7  8 -1 -1</clus>
<clus scale="   86.748">  2  5  1 -1</clus>
</clustering>
</event>
<event>
 9    2  0.6066854E-005  0.1162820E+03  0.7546771E-02  0.1254732E+00
         -1   -1    0    0    0  501 -0.00000000000E+00  0.00000000000E+00  0.31439566376E+03  0.31439566376E+03  0.00000000000E+00 0.  1.
          2   -1    0    0  502    0  0.00000000000E+00 -0.00000000000E+00 -0.51982589294E+03  0.51982589294E+03  0.00000000000E+00 0. -1.
         23    2    1    2    0    0 -0.63817291405E+02 -0.49873039209E+02  0.28239371341E+03  0.30789541715E+03  0.92159708146E+02 0.  0.
         24    2    1    2    0    0  0.67505943493E+02  0.21388705507E+02 -0.48649288165E+03  0.49757313721E+03  0.76740952866E+02 0.  0.
        -11    1    4    4    0    0  0.39152804231E+02  0.50278021169E+02 -0.31294664395E+03  0.31936878910E+03  0.00000000000E+00 0.  1.
         12    1    4    4    0    0  0.28353139262E+02 -0.28889315661E+02 -0.17354623770E+03  0.17820434811E+03  0.00000000000E+00 0. -1.
        -13    1    3    3    0    0 -0.23217050332E+02 -0.38227982603E+02  0.25180197668E+03  0.25574331964E+03  0.00000000000E+00 0.  1.
         13    1    3    3    0    0 -0.40600241073E+02 -0.11645056606E+02  0.30591736730E+02  0.52152097510E+02  0.00000000000E+00 0. -1.
         21    1    1    2  502  501 -0.36886520878E+01  0.28484333702E+02 -0.13310609356E+01  0.28753002346E+02  0.00000000000E+00 0.  1.
<scales pt_clust_5="13000.00000" pt_clust_6="13000.00000" pt_clust_7="13000.00000" pt_clust_8="13000.00000" pt_clust_9="28.72218"></scales>
<clustering>
<clus scale="   28.722">  1  9  2 -1</clus>
<clus scale="   76.741">  5  6 -1 -1</clus>
<clus scale="   92.160">  7  8 -1 -1</clus>
<clus scale="  104.486">  2  5  1 -1</clus>
<clus scale="  104.486">  2  5  1 -1</clus>
</clustering>
</event>
<event>
 9    2  0.6066854E-005  0.1245781E+03  0.7546771E-02  0.1243842E+00
         -1   -1    0    0    0  501 -0.00000000000E+00  0.00000000000E+00  0.10666178331E+03  0.10666178331E+03  0.00000000000E+00 0.  1.
          2   -1    0    0  502    0  0.00000000000E+00 -0.00000000000E+00 -0.51927061898E+03  0.51927061898E+03  0.00000000000E+00 0. -1.
         23    2    1    2    0    0 -0.28008397760E+02  0.36633742832E+02  0.55767550769E+02  0.13065100033E+03  0.10878034156E+03 0.  0.
         24    2    1    2    0    0  0.56599082724E+02 -0.25463891727E+02 -0.44254649506E+03  0.45516437154E+03  0.86460042124E+02 0.  0.
        -11    1    4    4    0    0  0.72389266338E+02  0.11726878402E+01 -0.35488490081E+03  0.36219452495E+03  0.00000000000E+00 0.  1.
         12    1    4    4    0    0 -0.15790183614E+02 -0.26636579568E+02 -0.87661594244E+02  0.92969846591E+02  0.00000000000E+00 0. -1.
        -13    1    3    3    0    0 -0.15473815278E+02 -0.33195305282E+02 -0.53462395313E+01  0.37012829251E+02  0.00000000000E+00 0. -1.
         13    1    3    3    0    0 -0.12534582483E+02  0.69829048114E+02  0.61113790300E+02  0.93638171081E+02  0.00000000000E+00 0.  1.
         21    1    1    2  502  501 -0.28590684964E+02 -0.11169851104E+02 -0.25829891383E+02  0.40117030414E+02  0.00000000000E+00 0. -1.
<scales pt_clust_5="13000.00000" pt_clust_6="13000.00000" pt_clust_7="13000.00000" pt_clust_8="13000.00000" pt_clust_9="30.69516"></scales>
<clustering>
<clus scale="   30.695">  1  9  2 -1</clus>
<clus scale="   86.460">  5  6 -1 -1</clus>
<clus scale="  105.650">  2  5  1 -1</clus>
<clus scale="  108.780">  7  8 -1 -1</clus>
<clus scale="  105.650">  2  5  1 -1</clus>
</clustering>
</event>
<event>
 9    2  0.6066854E-005  0.1210442E+03  0.7546771E-02  0.1244021E+00
         -1   -1    0    0    0  501 -0.00000000000E+00  0.00000000000E+00  0.13633519202E+03  0.13633519202E+03  0.00000000000E+00 0.  1.
          2   -1    0    0  502    0  0.00000000000E+00 -0.00000000000E+00 -0.28490275449E+03  0.28490275449E+03  0.00000000000E+00 0. -1.
         23    2    1    2    0    0 -0.75371662472E+02  0.66094465898E+01  0.50352301445E+02  0.12738911874E+03  0.89263996232E+02 0.  0.
         24    2    1    2    0    0  0.77062688478E+02 -0.31253259209E+02 -0.22799205132E+03  0.25569952699E+03  0.80538490644E+02 0.  0.
        -13    1    4    4    0    0  0.69939237230E+02 -0.31365913274E+02 -0.92987957276E+02  0.12050758324E+03  0.00000000000E+00 0.  1.
         14    1    4    4    0    0  0.71234512474E+01  0.11265406545E+00 -0.13500409404E+03  0.13519194375E+03  0.00000000000E+00 0. -1.
        -13    1    3    3    0    0 -0.39289197988E+02 -0.64374499598E+01 -0.22004060771E+02  0.45489125415E+02  0.00000000000E+00 0. -1.
         13    1    3    3    0    0 -0.36082464484E+02  0.13046896550E+02  0.72356362216E+02  0.81899993321E+02  0.00000000000E+00 0.  1.
         21    1    1    2  502  501 -0.16910260057E+01  0.24643812619E+02  0.29072187406E+02  0.38149300779E+02  0.00000000000E+00 0.  1.
<scales pt_clust_5="13000.00000" pt_clust_6="13000.00000" pt_clust_7="13000.00000" pt_clust_8="13000.00000" pt_clust_9="24.70176"></scales>
<clustering>
<clus scale="   24.702">  1  9  2 -1</clus>
<clus scale="   80.538">  5  6 -1 -1</clus>
<clus scale="   89.264">  7  8 -1 -1</clus>
<clus scale="  114.761">  2  5  1 -1</clus>
<clus scale="  114.761">  2  5  1 -1</clus>
</clustering>
</event>
<event>
 9    2  0.6066854E-005  0.2130160E+03  0.7546771E-02  0.1160914E+00
          2   -1    0    0  502    0  0.00000000000E+00  0.00000000000E+00  0.95689100659E+03  0.95689100659E+03  0.00000000000E+00 0. -1.
         -1   -1    0    0    0  501 -0.00000000000E+00 -0.00000000000E+00 -0.40645702533E+03  0.40645702533E+03  0.00000000000E+00 0.  1.
         23    2    1    2    0    0  0.75288428640E+02 -0.42612434813E+02 -0.30725846139E+02  0.13099555754E+03  0.93442984684E+02 0.  0.
         24    2    1    2    0    0 -0.19988364613E+03  0.68131231765E+01  0.88027496817E+03  0.90635335417E+03  0.81194164680E+02 0.  0.
        -13    1    4    4    0    0 -0.60365971641E+02  0.36533431289E+02  0.36160453375E+03  0.36842445761E+03  0.00000000000E+00 0.  1.
         14    1    4    4    0    0 -0.13951767449E+03 -0.29720308113E+02  0.51867043442E+03  0.53792889656E+03  0.00000000000E+00 0. -1.
        -13    1    3    3    0    0 -0.20966120172E+01  0.24666879585E+02 -0.73268664032E+01  0.25817313991E+02  0.00000000000E+00 0.  1.
         13    1    3    3    0    0  0.77385040657E+02 -0.67279314398E+02 -0.23398979735E+02  0.10517824355E+03  0.00000000000E+00 0. -1.
         21    1    1    2  502  501  0.12459521749E+03  0.35799311637E+02 -0.29911514078E+03  0.32599912021E+03  0.00000000000E+00 0.  1.
<scales pt_clust_5="13000.00000" pt_clust_6="13000.00000" pt_clust_7="13000.00000" pt_clust_8="13000.00000" pt_clust_9="196.93478"></scales>
<clustering>
<clus scale="   81.194">  5  6 -1 -1</clus>
<clus scale="   93.443">  7  8 -1 -1</clus>
<clus scale="  127.341">  2  7  1 -1</clus>
<clus scale="  196.935">  2  9  1 -1</clus>
<clus scale="  213.016">  1  5  2 -1</clus>
</clustering>
</event>
<event>
 9    2  0.6066854E-005  0.1355469E+03  0.7546771E-02  0.1223072E+00
         -1   -1    0    0    0  501 -0.00000000000E+00  0.00000000000E+00  0.61769766155E+02  0.61769766155E+02  0.00000000000E+00 0.  1.
          2   -1    0    0  502    0  0.00000000000E+00 -0.00000000000E+00 -0.63362212325E+03  0.63362212325E+03  0.00000000000E+00 0. -1.
         23    2    1    2    0    0 -0.53603191647E+02 -0.56593731806E+02 -0.66401788154E+02  0.13827736675E+03  0.92926207552E+02 0.  0.
         24    2    1    2    0    0  0.95885935934E+02  0.42269921912E+02 -0.49411300112E+03  0.51105431816E+03  0.77768883415E+02 0.  0.
        -11    1    4    4    0    0 -0.31887807543E+01  0.28385799304E+02 -0.77459192250E+02  0.82558151559E+02  0.00000000000E+00 0.  1.
         12    1    4    4    0    0  0.99074716688E+02  0.13884122608E+02 -0.41665380887E+03  0.42849616660E+03  0.00000000000E+00 0. -1.
        -11    1    3    3    0    0  0.62687806355E+01 -0.52991842363E+02 -0.69268393708E+01  0.53809051946E+02  0.00000000000E+00 0.  1.
         11    1    3    3    0    0 -0.59871972282E+02 -0.36018894430E+01 -0.59474948784E+02  0.84468314801E+02  0.00000000000E+00 0. -1.
         21    1    1    2  502  501 -0.42282744287E+02  0.14323809894E+02 -0.11337567822E+02  0.46060204498E+02  0.00000000000E+00 0.  1.
<scales pt_clust_5="13000.00000" pt_clust_6="13000.00000" pt_clust_7="13000.00000" pt_clust_8="13000.00000" pt_clust_9="44.64305"></scales>
<clustering>
<clus scale="   44.643">  1  9  2 -1</clus>
<clus scale="   77.769">  5  6 -1 -1</clus>
<clus scale="   92.926">  7  8 -1 -1</clus>
<clus scale="  125.641">  2  5  1 -1</clus>
<clus scale="  125.641">  2  5  1 -1</clus>
</clustering>
</event>
<event>
 9    2  0.6066854E-005  0.1304775E+03  0.7546771E-02  0.1227638E+00
         -1   -1    0    0    0  501 -0.00000000000E+00  0.00000000000E+00  0.12742459130E+03  0.12742459130E+03  0.00000000000E+00 0.  1.
          2   -1    0    0  502    0  0.00000000000E+00 -0.00000000000E+00 -0.36223989040E+03  0.36223989040E+03  0.00000000000E+00 0. -1.
         23    2    1    2    0    0 -0.33346786572E+02 -0.94333692744E+02  0.91670296584E+01  0.13236638396E+03  0.86174076193E+02 0.  0.
         24    2    1    2    0    0  0.10165329385E+01  0.94595304043E+02 -0.28002570069E+03  0.30887869666E+03  0.89679157649E+02 0.  0.
        -13    1    4    4    0    0  0.11831149958E+02  0.40485397804E+02 -0.27400749556E+02  0.50297560784E+02  0.00000000000E+00 0.  1.
         14    1    4    4    0    0 -0.10814617019E+02  0.54109906239E+02 -0.25262495114E+03  0.25858113588E+03  0.00000000000E+00 0. -1.
        -13    1    3    3    0    0 -0.12577113965E+02 -0.91717882706E+02  0.35127997698E+02  0.99016816885E+02  0.00000000000E+00 0.  1.
         13    1    3    3    0    0 -0.20769672607E+02 -0.26158100379E+01 -0.25960968039E+02  0.33349567072E+02  0.00000000000E+00 0. -1.
         21    1    1    2  502  501  0.32330253634E+02 -0.26161129901E+00  0.36043371935E+02  0.48419401080E+02  0.00000000000E+00 0.  1.
<scales pt_clust_5="13000.00000" pt_clust_6="13000.00000" pt_clust_7="13000.00000" pt_clust_8="13000.00000" pt_clust_9="32.33131"></scales>
<clustering>
<clus scale="   32.331">  1  9  2 -1</clus>
<clus scale="   86.174">  7  8 -1 -1</clus>
<clus scale="   89.679">  5  6 -1 -1</clus>
<clus scale="  128.094">  1  7  2 -1</clus>
<clus scale="  130.478">  2  5  1 -1</clus>
</clustering>
</event>
<event>
 9    2  0.6066854E-005  0.9245307E+02  0.7546771E-02  0.1298038E+00
         -1   -1    0    0    0  501 -0.00000000000E+00  0.00000000000E+00  0.21523743460E+02  0.21523743460E+02  0.00000000000E+00 0.  1.
          2   -1    0    0  502    0  0.00000000000E+00 -0.00000000000E+00 -0.17651844766E+04  0.17651844766E+04  0.00000000000E+00 0. -1.
         23    2    1    2    0    0  0.67671035424E+02  0.14036902856E+02 -0.19181700925E+03  0.22014984103E+03  0.83040856158E+02 0.  0.
         24    2    1    2    0    0 -0.35476961227E+02 -0.13776961752E+02 -0.15149304416E+04  0.15175776033E+04  0.81111772392E+02 0.  0.
        -13    1    4    4    0    0 -0.14395643834E+02 -0.13933979768E+02 -0.79277282555E+02  0.81769663585E+02  0.00000000000E+00 0.  1.
         14    1    4    4    0    0 -0.21081317393E+02  0.15701801627E+00 -0.14356531591E+04  0.14358079397E+04  0.00000000000E+00 0. -1.
        -11    1    3    3    0    0 -0.14046361324E+02  0.18688650977E+02 -0.24380674330E+02  0.33778443164E+02  0.00000000000E+00 0.  1.
         11    1    3    3    0    0  0.81717396748E+02 -0.46517481210E+01 -0.16743633492E+03  0.18637139787E+03  0.00000000000E+00 0. -1.
         21    1    1    2  502  501 -0.32194074197E+02 -0.25994110445E+00 -0.36913282235E+02  0.48980775699E+02  0.00000000000E+00 0. -1.
<scales pt_clust_5="13000.00000" pt_clust_6="13000.00000" pt_clust_7="13000.00000" pt_clust_8="13000.00000" pt_clust_9="32.19512"></scales>
<clustering>
<clus scale="   32.195">  1  9  2 -1</clus>
<clus scale="   81.112">  5  6 -1 -1</clus>
<clus scale="   83.041">  7  8 -1 -1</clus>
<clus scale="   90.724">  2  5  1 -1</clus>
<clus scale="   90.724">  2  5  1 -1</clus>
</clustering>
</event>
<event>
 9    2  0.6066854E-005  0.9227428E+02  0.7546771E-02  0.1312597E+00
          2   -1    0    0  502    0  0.00000000000E+00  0.00000000000E+00  0.90315818843E+02  0.90315818843E+02  0.00000000000E+00 0. -1.
         -1   -1    0    0    0  501 -0.00000000000E+00 -0.00000000000E+00 -0.22029080505E+03  0.22029080505E+03  0.00000000000E+00 0.  1.
         24    2    1    2    0    0  0.15677734824E+01 -0.22498634537E+02 -0.99543496812E+02  0.12311305448E+03  0.68842355831E+02 0.  0.
         23    2    1    2    0    0  0.94577016058E+01 -0.18844318164E+02  0.42428201265E+02  0.10299898165E+03  0.91455352554E+02 0.  0.
        -13    1    3    3    0    0  0.11124720064E+02 -0.45333692695E+02 -0.74385386895E+02  0.87818499608E+02  0.00000000000E+00 0.  1.
         14    1    3    3    0    0 -0.95569465817E+01  0.22835058159E+02 -0.25158109917E+02  0.35294554873E+02  0.00000000000E+00 0. -1.
        -11    1    4    4    0    0  0.95427774206E+01 -0.55760213999E+02  0.21187607734E+02  0.60408449637E+02  0.00000000000E+00 0.  1.
         11    1    4    4    0    0 -0.85075814875E-01  0.36915895835E+02  0.21240593531E+02  0.42590532008E+02  0.00000000000E+00 0. -1.
         21    1    1    2  502  501 -0.11025475088E+02  0.41342952700E+02 -0.72859690658E+02  0.84494587765E+02  0.00000000000E+00 0. -1.
<scales pt_clust_5="13000.00000" pt_clust_6="13000.00000" pt_clust_7="13000.00000" pt_clust_8="13000.00000" pt_clust_9="42.78786"></scales>
<clustering>
<clus scale="   42.788">  2  9  1 -1</clus>
<clus scale="   68.842">  5  6 -1 -1</clus>
<clus scale="   69.927">  2  5  1 -1</clus>
<clus scale="   91.455">  7  8 -1 -1</clus>
<clus scale="   92.274">  1  5  2 -1</clus>
</clustering>
</event>
<event>
 9    2  0.6066854E-005  0.9136527E+02  0.7546771E-02  0.1307818E+00
         -1   -1    0    0    0  501 -0.00000000000E+00  0.00000000000E+00  0.69046541885E+02  0.69046541885E+02  0.00000000000E+00 0.  1.
          2   -1    0    0  502    0  0.00000000000E+00 -0.00000000000E+00 -0.69860730640E+03  0.69860730640E+03  0.00000000000E+00 0. -1.
         23    2    1    2    0    0 -0.23110504234E+02  0.10723419528E+02  0.23535926152E+02  0.97727189441E+02  0.91365073217E+02 0.  0.
         24    2    1    2    0    0 -0.73152537833E+00  0.41141394039E+00 -0.63010287960E+03  0.63498181316E+03  0.78559275561E+02 0.  0.
        -13    1    4    4    0    0  0.66598247660E+01 -0.29492852447E+02 -0.11340188133E+03  0.11736340273E+03  0.00000000000E+00 0.  1.
         14    1    4    4    0    0 -0.73913501443E+01  0.29904266387E+02 -0.51670099827E+03  0.51761841043E+03  0.00000000000E+00 0. -1.
        -13    1    3    3    0    0  0.30158371696E+02  0.21480089499E+02 -0.31970754961E+01  0.37163731244E+02  0.00000000000E+00 0.  1.
         13    1    3    3    0    0 -0.53268875930E+02 -0.10756669970E+02  0.26733001648E+02  0.60563458197E+02  0.00000000000E+00 0. -1.
         21    1    1    2  502  501  0.23842029612E+02 -0.11134833469E+02 -0.22993811071E+02  0.34944845685E+02  0.00000000000E+00 0. -1.
<scales pt_clust_5="13000.00000" pt_clust_6="13000.00000" pt_clust_7="13000.00000" pt_clust_8="13000.00000" pt_clust_9="26.31401"></scales>
<clustering>
<clus scale="   26.314">  1  9  2 -1</clus>
<clus scale="   78.559">  5  6 -1 -1</clus>
<clus scale="   78.560">  2  5  1 -1</clus>
<clus scale="   91.365">  7  8 -1 -1</clus>
<clus scale="   78.560">  2  5  1 -1</clus>
</clustering>
</event>
<event>
 9    2  0.6066854E-005  0.9442579E+02  0.7546771E-02  0.1297049E+00
          2   -1    0    0  502    0  0.00000000000E+00  0.00000000000E+00  0.54252384067E+03  0.54252384067E+03  0.00000000000E+00 0. -1.
         -1   -1    0    0    0  501 -0.00000000000E+00 -0.00000000000E+00 -0.52325932722E+03  0.52325932722E+03  0.00000000000E+00 0.  1.
         23    2    1    2    0    0 -0.71957901165E+02 -0.26138173566E+02 -0.53036192059E+02  0.12848291711E+03  0.88509201017E+02 0.  0.
         24    2    1    2    0    0  0.19272338453E+01  0.32826321372E+02  0.49816879447E+03  0.50566075434E+03  0.80245679579E+02 0.  0.
        -13    1    4    4    0    0 -0.11298034618E+02  0.43645935346E+02  0.13990843317E+03  0.14699313906E+03  0.00000000000E+00 0.  1.
         14    1    4    4    0    0  0.13225268463E+02 -0.10819613974E+02  0.35826036129E+03  0.35866761528E+03  0.00000000000E+00 0. -1.
        -11    1    3    3    0    0 -0.42612390711E+02 -0.55378819535E+02 -0.13400546496E+02  0.71149168242E+02  0.00000000000E+00 0.  1.
         11    1    3    3    0    0 -0.29345510454E+02  0.29240645969E+02 -0.39635645563E+02  0.57333748872E+02  0.00000000000E+00 0. -1.
         21    1    1    2  502  501  0.70030667320E+02 -0.66881478062E+01 -0.42586808896E+03  0.43163949644E+03  0.00000000000E+00 0.  1.
<scales pt_clust_5="13000.00000" pt_clust_6="13000.00000" pt_clust_7="13000.00000" pt_clust_8="13000.00000" pt_clust_9="70.34931"></scales>
<clustering>
<clus scale="   70.349">  2  9  1 -1</clus>
<clus scale="   80.246">  5  6 -1 -1</clus>
<clus scale="   86.728">  1  5  2 -1</clus>
<clus scale="   88.509">  7  8 -1 -1</clus>
<clus scale="   86.728">  1  5  2 -1</clus>
</clustering>
</event>
<event>
 9    2  0.6066854E-005  0.1374206E+03  0.7546771E-02  0.1239247E+00
          2   -1    0    0  502    0  0.00000000000E+00  0.00000000000E+00  0.54979437796E+03  0.54979437796E+03  0.00000000000E+00 0. -1.
         -1   -1    0    0    0  501 -0.00000000000E+00 -0.00000000000E+00 -0.69445670151E+02  0.69445670151E+02  0.00000000000E+00 0.  1.
         23    2    1    2    0    0 -0.67836051352E+00 -0.69683162583E+00  0.10639952403E+02  0.87042442935E+02  0.86384214633E+02 0.  0.
         24    2    1    2    0    0 -0.33080548228E+02  0.10762448149E+03  0.24298672395E+03  0.27926270095E+03  0.79169163464E+02 0.  0.
        -11    1    4    4    0    0 -0.17530624239E+02  0.83838704708E+02  0.23442652455E+03  0.24958374668E+03  0.00000000000E+00 0.  1.
         12    1    4    4    0    0 -0.15549923989E+02  0.23785776779E+02  0.85601993920E+01  0.29678954272E+02  0.00000000000E+00 0. -1.
        -11    1    3    3    0    0  0.41906444249E+02  0.86393031908E+01  0.47667682269E+01  0.43052406536E+02  0.00000000000E+00 0.  1.
         11    1    3    3    0    0 -0.42584804763E+02 -0.93361348166E+01  0.58731841762E+01  0.43990036399E+02  0.00000000000E+00 0. -1.
         21    1    1    2  502  501  0.33758908741E+02 -0.10692764986E+03  0.22672203146E+03  0.25293490422E+03  0.00000000000E+00 0. -1.
<scales pt_clust_5="13000.00000" pt_clust_6="13000.00000" pt_clust_7="13000.00000" pt_clust_8="13000.00000" pt_clust_9="112.32387"></scales>
<clustering>
<clus scale="   79.169">  5  6 -1 -1</clus>
<clus scale="   86.384">  7  8 -1 -1</clus>
<clus scale="   86.390">  2  7  1 -1</clus>
<clus scale="  112.324">  1  9  2 -1</clus>
<clus scale="  112.324">  1  5  2 -1</clus>
</clustering>
</event>
<event>
 9    2  0.6066854E-005  0.9987977E+02  0.7546771E-02  0.1285065E+00
         -1   -1    0    0    0  501 -0.00000000000E+00  0.00000000000E+00  0.13684436545E+03  0.13684436545E+03  0.00000000000E+00 0.  1.
          2   -1    0    0  502    0  0.00000000000E+00 -0.00000000000E+00 -0.47577954411E+03  0.47577954411E+03  0.00000000000E+00 0. -1.
         23    2    1    2    0    0 -0.26920004268E+02 -0.52046583663E+02  0.62293725188E+02  0.12470363085E+03  0.90757665503E+02 0.  0.
         24    2    1    2    0    0  0.43406636876E+01  0.40803924147E+02 -0.43571411086E+03  0.44519495230E+03  0.81657562839E+02 0.  0.
        -11    1    4    4    0    0 -0.16413268250E+02 -0.20427904692E+02 -0.14844262831E+03  0.15073788033E+03  0.00000000000E+00 0.  1.
         12    1    4    4    0    0  0.20753931938E+02  0.61231828839E+02 -0.28727148254E+03  0.29445707197E+03  0.00000000000E+00 0. -1.
        -11    1    3    3    0    0  0.72310226150E+01  0.23784641406E+02  0.14787383449E+02  0.28925137236E+02  0.00000000000E+00 0. -1.
         11    1    3    3    0    0 -0.34151026883E+02 -0.75831225069E+02  0.47506341739E+02  0.95778493609E+02  0.00000000000E+00 0.  1.
         21    1    1    2  502  501  0.22579340580E+02  0.11242659515E+02  0.34485207012E+02  0.42725326408E+02  0.00000000000E+00 0.  1.
<scales pt_clust_5="13000.00000" pt_clust_6="13000.00000" pt_clust_7="13000.00000" pt_clust_8="13000.00000" pt_clust_9="25.22348"></scales>
<clustering>
<clus scale="   25.223">  1  9  2 -1</clus>
<clus scale="   81.658">  5  6 -1 -1</clus>
<clus scale="   90.758">  7  8 -1 -1</clus>
<clus scale="   91.690">  2  5  1 -1</clus>
<clus scale="   91.690">  2  5  1 -1</clus>
</clustering>
</event>
<event>
 9    2  0.6066854E-005  0.1517515E+03  0.7546771E-02  0.1210099E+00
          2   -1    0    0  502    0  0.00000000000E+00  0.00000000000E+00  0.95323773556E+02  0.95323773556E+02  0.00000000000E+00 0. -1.
         -1   -1    0    0    0  501 -0.00000000000E+00 -0.00000000000E+00 -0.46267397812E+03  0.46267397812E+03  0.00000000000E+00 0.  1.
         23    2    1    2    0    0  0.30808876371E+02  0.10273860203E+03 -0.81647569756E+02  0.16351418669E+03  0.92553532571E+02 0.  0.
         24    2    1    2    0    0  0.82405980110E+02 -0.29231550639E+02 -0.61665203726E+02  0.13292351288E+03  0.78872262644E+02 0.  0.
        -13    1    4    4    0    0  0.16963483531E+02  0.26612679260E+02 -0.13480363208E+02  0.34317847588E+02  0.00000000000E+00 0.  1.
         14    1    4    4    0    0  0.65442496579E+02 -0.55844229898E+02 -0.48184840518E+02  0.98605665290E+02  0.00000000000E+00 0. -1.
        -13    1    3    3    0    0  0.32170195307E+02  0.49694715577E+02 -0.92050142041E+02  0.10944274701E+03  0.00000000000E+00 0.  1.
         13    1    3    3    0    0 -0.13613189356E+01  0.53043886454E+02  0.10402572286E+02  0.54071439684E+02  0.00000000000E+00 0. -1.
         21    1    1    2  502  501 -0.11321485648E+03 -0.73507051392E+02 -0.22403743108E+03  0.26156005211E+03  0.00000000000E+00 0. -1.
<scales pt_clust_5="13000.00000" pt_clust_6="13000.00000" pt_clust_7="13000.00000" pt_clust_8="13000.00000" pt_clust_9="120.25950"></scales>
<clustering>
<clus scale="   78.872">  5  6 -1 -1</clus>
<clus scale="   92.554">  7  8 -1 -1</clus>
<clus scale="  117.754">  1  5  2 -1</clus>
<clus scale="  120.260">  2  9  1 -1</clus>
<clus scale="  117.754">  1  5  2 -1</clus>
</clustering>
</event>
<event>
 9    2  0.6066854E-005  0.1746442E+03  0.7546771E-02  0.1174734E+00
          2   -1    0    0  502    0  0.00000000000E+00  0.00000000000E+00  0.16917682990E+03  0.16917682990E+03  0.00000000000E+00 0. -1.
         -1   -1    0    0    0  501 -0.00000000000E+00 -0.00000000000E+00 -0.40142672512E+03  0.40142672512E+03  0.00000000000E+00 0.  1.
         24    2    1    2    0    0 -0.14014366230E+03  0.39482000158E+01 -0.26102136234E+03  0.30724603649E+03  0.81315072230E+02 0.  0.
         23    2    1    2    0    0  0.14423238670E+03 -0.38461147780E+02  0.86171152444E+02  0.19625621374E+03  0.93855168503E+02 0.  0.
        -13    1    3    3    0    0 -0.64391082480E+02 -0.22020166858E+02 -0.18382082415E+03  0.19601325119E+03  0.00000000000E+00 0.  1.
         14    1    3    3    0    0 -0.75752579818E+02  0.25968366874E+02 -0.77200538190E+02  0.11123278529E+03  0.00000000000E+00 0. -1.
        -13    1    4    4    0    0  0.68515461234E+02 -0.58911748175E+02  0.17559627763E+02  0.92050546052E+02  0.00000000000E+00 0.  1.
         13    1    4    4    0    0  0.75716925470E+02  0.20450600395E+02  0.68611524681E+02  0.10420566769E+03  0.00000000000E+00 0. -1.
         21    1    1    2  502  501 -0.40887244061E+01  0.34512947764E+02 -0.57399685321E+02  0.67101304798E+02  0.00000000000E+00 0. -1.
<scales pt_clust_5="13000.00000" pt_clust_6="13000.00000" pt_clust_7="13000.00000" pt_clust_8="13000.00000" pt_clust_9="34.75430"></scales>
<clustering>
<clus scale="   34.754">  2  9  1 -1</clus>
<clus scale="   81.315">  5  6 -1 -1</clus>
<clus scale="   93.855">  7  8 -1 -1</clus>
<clus scale="  168.238">  2  5  1 -1</clus>
<clus scale="  174.644">  1  5  2 -1</clus>
</clustering>
</event>
<event>
 9    2  0.6217287E-005  0.1449883E+03  0.7546771E-02  0.1209943E+00
          2   -1    0    0  502    0  0.00000000000E+00  0.00000000000E+00  0.38692428821E+03  0.38692428821E+03  0.00000000000E+00 0. -1.
         -1   -1    0    0    0  501 -0.00000000000E+00 -0.00000000000E+00 -0.12179198242E+03  0.12179198242E+03  0.00000000000E+00 0.  1.
         24    2    1    2    0    0  0.54343012543E+02 -0.24382611884E+02 -0.39066132204E+02  0.10840908858E+03  0.81723271021E+02 0.  0.
         23    2    1    2    0    0 -0.11782617760E+03  0.26122729754E+02  0.29895539884E+03  0.33658411154E+03  0.96690891548E+02 0.  0.
        -11    1    3    3    0    0  0.71034909754E+02 -0.38581789862E+01 -0.15125937415E+02  0.72729897096E+02  0.00000000000E+00 0.  1.
         12    1    3    3    0    0 -0.16691897211E+02 -0.20524432898E+02 -0.23940194788E+02  0.35679191482E+02  0.00000000000E+00 0. -1.
        -13    1    4    4    0    0 -0.10873036725E+02 -0.20693569422E+02  0.10948805876E+02  0.25813234844E+02  0.00000000000E+00 0.  1.
         13    1    4    4    0    0 -0.10695314088E+03  0.46816299176E+02  0.28800659296E+03  0.31077087670E+03  0.00000000000E+00 0. -1.
         21    1    1    2  502  501  0.63483165061E+02 -0.17401178697E+01  0.52430391539E+01  0.63723070515E+02  0.00000000000E+00 0.  1.
<scales pt_clust_5="13000.00000" pt_clust_6="13000.00000" pt_clust_7="13000.00000" pt_clust_8="13000.00000" pt_clust_9="63.50701"></scales>
<clustering>
<clus scale="   63.507">  2  9  1 -1</clus>
<clus scale="   81.723">  5  6 -1 -1</clus>
<clus scale="   96.691">  7  8 -1 -1</clus>
<clus scale="  135.466">  2  5  1 -1</clus>
<clus scale="  144.988">  1  5  2 -1</clus>
</clustering>
</event>
<event>
 9    2  0.6066854E-005  0.9203958E+02  0.7546771E-02  0.1304908E+00
          2   -1    0    0  502    0  0.00000000000E+00  0.00000000000E+00  0.10044710298E+03  0.10044710298E+03  0.00000000000E+00 0. -1.
         -1   -1    0    0    0  501 -0.00000000000E+00 -0.00000000000E+00 -0.15307852740E+03  0.15307852740E+03  0.00000000000E+00 0.  1.
         23    2    1    2    0    0 -0.14388761961E+02 -0.35026016888E+02 -0.62301704460E+02  0.11681249375E+03  0.91267726971E+02 0.  0.
         24    2    1    2    0    0 -0.15208235075E+02  0.38025356944E+00  0.29849092572E+02  0.86878453684E+02  0.80158981907E+02 0.  0.
        -13    1    4    4    0    0  0.44196448452E+01 -0.38078325134E+02  0.12142125288E+02  0.40210984968E+02  0.00000000000E+00 0.  1.
         14    1    4    4    0    0 -0.19627879920E+02  0.38458578703E+02  0.17706967284E+02  0.46667468717E+02  0.00000000000E+00 0. -1.
        -11    1    3    3    0    0 -0.46711606520E+02 -0.14869856693E+02 -0.61584834085E+02  0.78713268329E+02  0.00000000000E+00 0. -1.
         11    1    3    3    0    0  0.32322844558E+02 -0.20156160195E+02 -0.71687037432E+00  0.38099225416E+02  0.00000000000E+00 0.  1.
         21    1    1    2  502  501  0.29596997036E+02  0.34645763318E+02 -0.20178812529E+02  0.49834682948E+02  0.00000000000E+00 0.  1.
<scales pt_clust_5="13000.00000" pt_clust_6="13000.00000" pt_clust_7="13000.00000" pt_clust_8="13000.00000" pt_clust_9="45.56656"></scales>
<clustering>
<clus scale="   45.567">  2  9  1 -1</clus>
<clus scale="   80.159">  5  6 -1 -1</clus>
<clus scale="   81.037">  1  5  2 -1</clus>
<clus scale="   91.268">  7  8 -1 -1</clus>
<clus scale="   81.037">  1  5  2 -1</clus>
</clustering>
</event>
<event>
 9    2  0.6066854E-005  0.9305547E+02  0.7546771E-02  0.1299556E+00
          2   -1    0    0  502    0  0.00000000000E+00  0.00000000000E+00  0.72395550995E+02  0.72395550995E+02  0.00000000000E+00 0. -1.
         -1   -1    0    0    0  501 -0.00000000000E+00 -0.00000000000E+00 -0.36270076249E+03  0.36270076249E+03  0.00000000000E+00 0.  1.
         23    2    1    2    0    0 -0.17344153117E+01  0.24439039356E+02 -0.14651834145E+03  0.17320491875E+03  0.89062027020E+02 0.  0.
         24    2    1    2    0    0 -0.32434865392E+02 -0.16213849701E+01  0.22005976238E+02  0.91083160232E+02  0.82202370437E+02 0.  0.
        -11    1    4    4    0    0  0.36035765609E+01  0.21788612872E+02 -0.20864346860E+02  0.30381744269E+02  0.00000000000E+00 0.  1.
         12    1    4    4    0    0 -0.36038441953E+02 -0.23409997842E+02  0.42870323099E+02  0.60701415963E+02  0.00000000000E+00 0. -1.
        -13    1    3    3    0    0  0.34351997635E+02  0.23947671743E+02 -0.30781266356E+02  0.51971502594E+02  0.00000000000E+00 0.  1.
         13    1    3    3    0    0 -0.36086412946E+02  0.49136761287E+00 -0.11573707510E+03  0.12123341616E+03  0.00000000000E+00 0. -1.
         21    1    1    2  502  501  0.34169280704E+02 -0.22817654386E+02 -0.16579284628E+03  0.17080823450E+03  0.00000000000E+00 0.  1.
<scales pt_clust_5="13000.00000" pt_clust_6="13000.00000" pt_clust_7="13000.00000" pt_clust_8="13000.00000" pt_clust_9="41.08753"></scales>
<clustering>
<clus scale="   41.088">  2  9  1 -1</clus>
<clus scale="   82.202">  5  6 -1 -1</clus>
<clus scale="   86.513">  1  5  2 -1</clus>
<clus scale="   89.062">  7  8 -1 -1</clus>
<clus scale="   86.513">  1  5  2 -1</clus>
</clustering>
</event>
<event>
 9    2  0.6066854E-005  0.1385210E+03  0.7546771E-02  0.1217594E+00
          2   -1    0    0  502    0  0.00000000000E+00  0.00000000000E+00  0.14971944362E+04  0.14971944362E+04  0.00000000000E+00 0. -1.
         -1   -1    0    0    0  501 -0.00000000000E+00 -0.00000000000E+00 -0.23785033878E+02  0.23785033878E+02  0.00000000000E+00 0.  1.
         23    2    1    2    0    0  0.66695466702E+02  0.46842888872E+02  0.32108355859E+03  0.34372651313E+03  0.91709992446E+02 0.  0.
         24    2    1    2    0    0 -0.95820582724E+02 -0.58418390686E+02  0.11306792025E+04  0.11391630409E+04  0.81625255748E+02 0.  0.
        -11    1    4    4    0    0 -0.71312019931E+02 -0.59793943866E+02  0.53901474925E+03  0.54698959754E+03  0.00000000000E+00 0.  1.
         12    1    4    4    0    0 -0.24508562793E+02  0.13755531795E+01  0.59166445324E+03  0.59217344336E+03  0.00000000000E+00 0. -1.
        -13    1    3    3    0    0  0.20044387085E+02  0.42463721735E+02  0.27140439538E+03  0.27543654614E+03  0.00000000000E+00 0. -1.
         13    1    3    3    0    0  0.46651079617E+02  0.43791671368E+01  0.49679163208E+02  0.68289966988E+02  0.00000000000E+00 0.  1.
         21    1    1    2  502  501  0.29125116022E+02  0.11575501814E+02  0.21646641193E+02  0.38089915995E+02  0.00000000000E+00 0. -1.
<scales pt_clust_5="13000.00000" pt_clust_6="13000.00000" pt_clust_7="13000.00000" pt_clust_8="13000.00000" pt_clust_9="31.34110"></scales>
<clustering>
<clus scale="   31.341">  2  9  1 -1</clus>
<clus scale="   81.625">  5  6 -1 -1</clus>
<clus scale="   91.710">  7  8 -1 -1</clus>
<clus scale="  132.061">  1  5  2 -1</clus>
<clus scale="  132.061">  1  5  2 -1</clus>
</clustering>
</event>
<event>
 9    2  0.6066854E-005  0.1329061E+03  0.7546771E-02  0.1227145E+00
          4   -1    0    0  502    0  0.00000000000E+00  0.00000000000E+00  0.80893800112E+02  0.80893800112E+02  0.00000000000E+00 0. -1.
         -3   -1    0    0    0  501 -0.00000000000E+00 -0.00000000000E+00 -0.36657761202E+03  0.36657761202E+03  0.00000000000E+00 0.  1.
         23    2    1    2    0    0 -0.92678586981E+02 -0.21904837526E+02 -0.26996808641E+03  0.30155049663E+03  0.94767040379E+02 0.  0.
         24    2    1    2    0    0  0.78152203711E+02  0.38991721730E+02  0.81614558897E+00  0.11805911039E+03  0.79430259626E+02 0.  0.
        -13    1    4    4    0    0 -0.14354692490E+02  0.18222034770E+02  0.15191000990E+01  0.23246664551E+02  0.00000000000E+00 0.  1.
         14    1    4    4    0    0  0.92506896201E+02  0.20769686960E+02 -0.70295451000E+00  0.94812445840E+02  0.00000000000E+00 0. -1.
        -13    1    3    3    0    0 -0.62068698674E+02  0.28816252287E+02 -0.96929067860E+02  0.11865135459E+03  0.00000000000E+00 0.  1.
         13    1    3    3    0    0 -0.30609888307E+02 -0.50721089814E+02 -0.17303901856E+03  0.18289914203E+03  0.00000000000E+00 0. -1.
         21    1    1    2  502  501  0.14526383270E+02 -0.17086884204E+02 -0.16531871081E+02  0.27861805113E+02  0.00000000000E+00 0. -1.
<scales pt_clust_5="13000.00000" pt_clust_6="13000.00000" pt_clust_7="13000.00000" pt_clust_8="13000.00000" pt_clust_9="22.42716"></scales>
<clustering>
<clus scale="   22.427">  1  9  2 -1</clus>
<clus scale="   79.430">  5  6 -1 -1</clus>
<clus scale="   94.767">  7  8 -1 -1</clus>
<clus scale="  122.443">  1  5  2 -1</clus>
<clus scale="   22.427">  1  5  2 -1</clus>
</clustering>
</event>
<event>
 9    2  0.6066854E-005  0.9006117E+02  0.7546771E-02  0.1307849E+00
         -1   -1    0    0    0  501 -0.00000000000E+00  0.00000000000E+00  0.43430107005E+03  0.43430107005E+03  0.00000000000E+00 0.  1.
          2   -1    0    0  502    0  0.00000000000E+00 -0.00000000000E+00 -0.52468316867E+02  0.52468316867E+02  0.00000000000E+00 0. -1.
         24    2    1    2    0    0 -0.16253686665E+02 -0.37963569941E+02  0.22268270263E+03  0.24013301788E+03  0.79817700126E+02 0.  0.
         23    2    1    2    0    0 -0.53604312533E+01  0.14636254923E+02  0.54006018163E+01  0.89632462376E+02  0.88101405381E+02 0.  0.
        -11    1    3    3    0    0 -0.36158526547E+02  0.40929383966E+01  0.53749112206E+02  0.64908845697E+02  0.00000000000E+00 0.  1.
         12    1    3    3    0    0  0.19904839882E+02 -0.42056508338E+02  0.16893359042E+03  0.17522417218E+03  0.00000000000E+00 0. -1.
        -13    1    4    4    0    0 -0.29333402510E+02  0.20074910605E+02  0.35859646253E+02  0.50491234566E+02  0.00000000000E+00 0.  1.
         13    1    4    4    0    0  0.23972971257E+02 -0.54386556815E+01 -0.30459044436E+02  0.39141227810E+02  0.00000000000E+00 0. -1.
         21    1    1    2  502  501  0.21614117918E+02  0.23327315018E+02  0.15374944874E+03  0.15700390666E+03  0.00000000000E+00 0. -1.
<scales pt_clust_5="13000.00000" pt_clust_6="13000.00000" pt_clust_7="13000.00000" pt_clust_8="13000.00000" pt_clust_9="31.80147"></scales>
<clustering>
<clus scale="   31.801">  1  9  2 -1</clus>
<clus scale="   79.818">  5  6 -1 -1</clus>
<clus scale="   81.976">  1  5  2 -1</clus>
<clus scale="   88.101">  7  8 -1 -1</clus>
<clus scale="   90.061">  2  5  1 -1</clus>
</clustering>
</event>
<event>
 9    2  0.6066854E-005  0.9550953E+02  0.7546771E-02  0.1292877E+00
          4   -1    0    0  502    0  0.00000000000E+00  0.00000000000E+00  0.26161666715E+03  0.26161666715E+03  0.00000000000E+00 0. -1.
         -3   -1    0    0    0  501 -0.00000000000E+00 -0.00000000000E+00 -0.46672154522E+02  0.46672154522E+02  0.00000000000E+00 0.  1.
         23    2    1    2    0    0 -0.14591268388E+02  0.12278141436E+02  0.93403484335E+02  0.13173951345E+03  0.90925412545E+02 0.  0.
         24    2    1    2    0    0  0.37986631924E+02 -0.91069126724E+01  0.12045581734E+03  0.15291506591E+03  0.85717520894E+02 0.  0.
        -13    1    4    4    0    0  0.24127137504E+02  0.18858600655E+02  0.23031262318E+01  0.30709444365E+02  0.00000000000E+00 0.  1.
         14    1    4    4    0    0  0.13859494420E+02 -0.27965513327E+02  0.11815269111E+03  0.12220562155E+03  0.00000000000E+00 0. -1.
        -13    1    3    3    0    0 -0.32940765695E+02  0.33455490699E+02  0.16295917639E+02  0.49698298102E+02  0.00000000000E+00 0.  1.
         13    1    3    3    0    0  0.18349497307E+02 -0.21177349263E+02  0.77107566696E+02  0.82041215344E+02  0.00000000000E+00 0. -1.
         21    1    1    2  502  501 -0.23395363535E+02 -0.31712287632E+01  0.10852109467E+01  0.23634242311E+02  0.00000000000E+00 0. -1.
<scales pt_clust_5="13000.00000" pt_clust_6="13000.00000" pt_clust_7="13000.00000" pt_clust_8="13000.00000" pt_clust_9="23.60931"></scales>
<clustering>
<clus scale="   23.609">  2  9  1 -1</clus>
<clus scale="   85.718">  5  6 -1 -1</clus>
<clus scale="   90.566">  1  5  2 -1</clus>
<clus scale="   90.925">  7  8 -1 -1</clus>
<clus scale="   90.566">  1  5  2 -1</clus>
</clustering>
</event>
<event>
 9    2  0.6066854E-005  0.1009102E+03  0.7546771E-02  0.1281834E+00
         -1   -1    0    0    0  501 -0.00000000000E+00  0.00000000000E+00  0.83909462105E+02  0.83909462105E+02  0.00000000000E+00 0.  1.
          2   -1    0    0  502    0  0.00000000000E+00 -0.00000000000E+00 -0.34637494182E+03  0.34637494182E+03  0.00000000000E+00 0. -1.
         23    2    1    2    0    0 -0.33987065717E+02 -0.29204808765E+02  0.45202528138E+01  0.98280374650E+02  0.87353064427E+02 0.  0.
         24    2    1    2    0    0  0.51146212022E+02  0.10226871975E+02 -0.28511106907E+03  0.30064918577E+03  0.79881708034E+02 0.  0.
        -13    1    4    4    0    0  0.51129503299E+02 -0.26068142710E+02 -0.14583186495E+03  0.15671855986E+03  0.00000000000E+00 0.  1.
         14    1    4    4    0    0  0.16708723015E-01  0.36295014685E+02 -0.13927920413E+03  0.14393062590E+03  0.00000000000E+00 0. -1.
        -11    1    3    3    0    0  0.21018578586E+02 -0.34598097509E+02 -0.88018962579E+01  0.41428038510E+02  0.00000000000E+00 0. -1.
         11    1    3    3    0    0 -0.55005644303E+02  0.53932887437E+01  0.13322149072E+02  0.56852336140E+02  0.00000000000E+00 0.  1.
         21    1    1    2  502  501 -0.17159146305E+02  0.18977936791E+02  0.18125336544E+02  0.31354843511E+02  0.00000000000E+00 0.  1.
<scales pt_clust_5="13000.00000" pt_clust_6="13000.00000" pt_clust_7="13000.00000" pt_clust_8="13000.00000" pt_clust_9="25.58512"></scales>
<clustering>
<clus scale="   25.585">  1  9  2 -1</clus>
<clus scale="   79.882">  5  6 -1 -1</clus>
<clus scale="   87.353">  7  8 -1 -1</clus>
<clus scale="   94.517">  2  5  1 -1</clus>
<clus scale="   94.517">  2  5  1 -1</clus>
</clustering>
</event>
<event>
 9    2  0.6066854E-005  0.1008380E+03  0.7546771E-02  0.1285551E+00
          2   -1    0    0  502    0  0.00000000000E+00  0.00000000000E+00  0.11995099199E+03  0.11995099199E+03  0.00000000000E+00 0. -1.
         -1   -1    0    0    0  501 -0.00000000000E+00 -0.00000000000E+00 -0.15575745865E+03  0.15575745865E+03  0.00000000000E+00 0.  1.
         23    2    1    2    0    0  0.35086856914E+01  0.11568692990E+02 -0.42440939880E+02  0.10384529102E+03  0.94002476331E+02 0.  0.
         24    2    1    2    0    0 -0.45812024572E+02 -0.12150276671E+02  0.54427133021E+02  0.10803488179E+03  0.80391865602E+02 0.  0.
        -13    1    4    4    0    0  0.22427321860E+02  0.28785815281E+01  0.73299649983E+01  0.23769715697E+02  0.00000000000E+00 0.  1.
         14    1    4    4    0    0 -0.68239346432E+02 -0.15028858199E+02  0.47097168023E+02  0.84265166089E+02  0.00000000000E+00 0. -1.
        -13    1    3    3    0    0  0.24188578774E+02  0.43708311057E+02 -0.42560746791E+02  0.65627135896E+02  0.00000000000E+00 0.  1.
         13    1    3    3    0    0 -0.20679893082E+02 -0.32139618067E+02  0.11980691149E+00  0.38218155124E+02  0.00000000000E+00 0. -1.
         21    1    1    2  502  501  0.42303338880E+02  0.58158368106E+00 -0.47792659805E+02  0.63828277834E+02  0.00000000000E+00 0.  1.
<scales pt_clust_5="13000.00000" pt_clust_6="13000.00000" pt_clust_7="13000.00000" pt_clust_8="13000.00000" pt_clust_9="42.30734"></scales>
<clustering>
<clus scale="   42.307">  2  9  1 -1</clus>
<clus scale="   80.392">  5  6 -1 -1</clus>
<clus scale="   88.288">  1  5  2 -1</clus>
<clus scale="   94.002">  7  8 -1 -1</clus>
<clus scale="   88.288">  1  5  2 -1</clus>
</clustering>
</event>
<event>
 9    2  0.6066854E-005  0.1044321E+03  0.7546771E-02  0.1275067E+00
          2   -1    0    0  502    0  0.00000000000E+00  0.00000000000E+00  0.58589322140E+03  0.58589322140E+03  0.00000000000E+00 0. -1.
         -1   -1    0    0    0  501 -0.00000000000E+00 -0.00000000000E+00 -0.42222754115E+02  0.42222754115E+02  0.00000000000E+00 0.  1.
         24    2    1    2    0    0 -0.29255674667E+02  0.41111106797E+02  0.37719201185E+02  0.10252482758E+03  0.80886244374E+02 0.  0.
         23    2    1    2    0    0  0.46496606606E+02 -0.57630161311E+02  0.44959021677E+03  0.46438088101E+03  0.89638550376E+02 0.  0.
        -11    1    3    3    0    0  0.27961197923E+02  0.14556789226E+02  0.66815617705E+01  0.32223779567E+02  0.00000000000E+00 0.  1.
         12    1    3    3    0    0 -0.57216872590E+02  0.26554317571E+02  0.31037639414E+02  0.70301048008E+02  0.00000000000E+00 0. -1.
        -11    1    4    4    0    0  0.18930521475E+02  0.23727318499E+02  0.11430103880E+03  0.11826274882E+03  0.00000000000E+00 0.  1.
         11    1    4    4    0    0  0.27566085131E+02 -0.81357479809E+02  0.33528917797E+03  0.34611813220E+03  0.00000000000E+00 0. -1.
         21    1    1    2  502  501 -0.17240931939E+02  0.16519054513E+02  0.56361049330E+02  0.61210266930E+02  0.00000000000E+00 0. -1.
<scales pt_clust_5="13000.00000" pt_clust_6="13000.00000" pt_clust_7="13000.00000" pt_clust_8="13000.00000" pt_clust_9="23.87737"></scales>
<clustering>
<clus scale="   23.877">  1  9  2 -1</clus>
<clus scale="   80.886">  5  6 -1 -1</clus>
<clus scale="   89.639">  7  8 -1 -1</clus>
<clus scale="   97.024">  2  5  1 -1</clus>
<clus scale="   23.877">  1  5  2 -1</clus>
</clustering>
</event>
<event>
 9    2  0.6066854E-005  0.1014629E+03  0.7546771E-02  0.1283780E+00
         -1   -1    0    0    0  501 -0.00000000000E+00  0.00000000000E+00  0.86184703111E+02  0.86184703111E+02  0.00000000000E+00 0.  1.
          2   -1    0    0  502    0  0.00000000000E+00 -0.00000000000E+00 -0.10501723918E+04  0.10501723918E+04  0.00000000000E+00 0. -1.
         23    2    1    2    0    0  0.31097450374E+02  0.12042828107E+01 -0.20733421526E+01  0.97448796850E+02  0.92322627470E+02 0.  0.
         24    2    1    2    0    0 -0.38762851415E+02  0.17889455474E+02 -0.99548393817E+03  0.99953512567E+03  0.79117665804E+02 0.  0.
        -11    1    4    4    0    0 -0.22702429704E+01 -0.25201540672E+02 -0.14599887219E+03  0.14817537695E+03  0.00000000000E+00 0.  1.
         12    1    4    4    0    0 -0.36492608444E+02  0.43090996146E+02 -0.84948506598E+03  0.85135974872E+03  0.00000000000E+00 0. -1.
        -13    1    3    3    0    0  0.39861139756E+02  0.40298899016E+02  0.44475112329E+01  0.56856768117E+02  0.00000000000E+00 0. -1.
         13    1    3    3    0    0 -0.87636893821E+01 -0.39094616205E+02 -0.65208533854E+01  0.40592028733E+02  0.00000000000E+00 0.  1.
         21    1    1    2  502  501  0.76654010413E+01 -0.19093738285E+02  0.33569591677E+02  0.39373172341E+02  0.00000000000E+00 0. -1.
<scales pt_clust_5="13000.00000" pt_clust_6="13000.00000" pt_clust_7="13000.00000" pt_clust_8="13000.00000" pt_clust_9="20.57497"></scales>
<clustering>
<clus scale="   20.575">  1  9  2 -1</clus>
<clus scale="   79.118">  5  6 -1 -1</clus>
<clus scale="   89.615">  2  5  1 -1</clus>
<clus scale="   92.323">  7  8 -1 -1</clus>
<clus scale="   89.615">  2  5  1 -1</clus>
</clustering>
</event>
<event>
 9    2  0.6066854E-005  0.1016592E+03  0.7546771E-02  0.1279571E+00
          2   -1    0    0  502    0  0.00000000000E+00  0.00000000000E+00  0.20989786820E+04  0.20989786820E+04  0.00000000000E+00 0. -1.
         -1   -1    0    0    0  501 -0.00000000000E+00 -0.00000000000E+00 -0.12126793081E+02  0.12126793081E+02  0.00000000000E+00 0.  1.
         23    2    1    2    0    0 -0.20466069648E+02  0.11795476701E+02  0.30412053735E+03  0.31848218619E+03  0.91562046748E+02 0.  0.
         24    2    1    2    0    0  0.23535414891E+02  0.49770418674E+02  0.14893994959E+04  0.14928844727E+04  0.85803148259E+02 0.  0.
        -13    1    4    4    0    0  0.30484729435E+02  0.18033701304E+02  0.20245444761E+03  0.20552940536E+03  0.00000000000E+00 0.  1.
         14    1    4    4    0    0 -0.69493145446E+01  0.31736717371E+02  0.12869450482E+04  0.12873550673E+04  0.00000000000E+00 0. -1.
        -13    1    3    3    0    0 -0.33261868525E+02 -0.29122458973E+02  0.91979182531E+02  0.10205214125E+03  0.00000000000E+00 0.  1.
         13    1    3    3    0    0  0.12795798877E+02  0.40917935674E+02  0.21214135482E+03  0.21643004494E+03  0.00000000000E+00 0. -1.
         21    1    1    2  502  501 -0.30693452427E+01 -0.61565895376E+02  0.29333185572E+03  0.29973881619E+03  0.00000000000E+00 0.  1.
<scales pt_clust_5="13000.00000" pt_clust_6="13000.00000" pt_clust_7="13000.00000" pt_clust_8="13000.00000" pt_clust_9="61.64236"></scales>
<clustering>
<clus scale="   61.642">  2  9  1 -1</clus>
<clus scale="   85.803">  5  6 -1 -1</clus>
<clus scale="   91.562">  7  8 -1 -1</clus>
<clus scale="   96.505">  1  5  2 -1</clus>
<clus scale="   96.505">  1  5  2 -1</clus>
</clustering>
</event>
<event>
 9    2  0.6066854E-005  0.1483340E+03  0.7546771E-02  0.1204079E+00
          2   -1    0    0  502    0  0.00000000000E+00  0.00000000000E+00  0.10122683895E+03  0.10122683895E+03  0.00000000000E+00 0. -1.
         -1   -1    0    0    0  501 -0.00000000000E+00 -0.00000000000E+00 -0.30206844794E+03  0.30206844794E+03  0.00000000000E+00 0.  1.
         24    2    1    2    0    0 -0.89255585189E+02 -0.38336173323E+02 -0.15708545705E+03  0.20174601661E+03  0.81175074565E+02 0.  0.
         23    2    1    2    0    0  0.11069102275E+03  0.66245857904E+02 -0.18191667026E+02  0.15805247309E+03  0.89490956500E+02 0.  0.
        -13    1    3    3    0    0 -0.62286140468E+02 -0.45732812428E+02 -0.15561230383E+03  0.17374188479E+03  0.00000000000E+00 0.  1.
         14    1    3    3    0    0 -0.26969444721E+02  0.73966391047E+01 -0.14731532148E+01  0.28004131820E+02  0.00000000000E+00 0. -1.
        -13    1    4    4    0    0  0.40688044104E+02  0.74340085738E+02  0.19238708040E+01  0.84768311057E+02  0.00000000000E+00 0. -1.
         13    1    4    4    0    0  0.70002978644E+02 -0.80942278338E+01 -0.20115537830E+02  0.73284162037E+02  0.00000000000E+00 0.  1.
         21    1    1    2  502  501 -0.21435437559E+02 -0.27909684581E+02 -0.25564484913E+02  0.43496797188E+02  0.00000000000E+00 0. -1.
<scales pt_clust_5="13000.00000" pt_clust_6="13000.00000" pt_clust_7="13000.00000" pt_clust_8="13000.00000" pt_clust_9="35.19131"></scales>
<clustering>
<clus scale="   35.191">  2  9  1 -1</clus>
<clus scale="   81.175">  5  6 -1 -1</clus>
<clus scale="   89.491">  7  8 -1 -1</clus>
<clus scale="  143.470">  2  5  1 -1</clus>
<clus scale="  148.334">  1  5  2 -1</clus>
</clustering>
</event>
<event>
 9    2  0.6066854E-005  0.9851252E+02  0.7546771E-02  0.1297373E+00
         -3   -1    0    0    0  501 -0.00000000000E+00  0.00000000000E+00  0.31366117936E+02  0.31366117936E+02  0.00000000000E+00 0.  1.
          4   -1    0    0  502    0  0.00000000000E+00 -0.00000000000E+00 -0.57847145652E+03  0.57847145652E+03  0.00000000000E+00 0. -1.
         24    2    1    2    0    0  0.32656926207E+02 -0.24896216698E+02 -0.63568140462E+02  0.10130810439E+03  0.67350776518E+02 0.  0.
         23    2    1    2    0    0  0.67427714110E+01  0.38023862814E+02 -0.42616423709E+03  0.43770343020E+03  0.92070933152E+02 0.  0.
        -13    1    3    3    0    0 -0.20818726971E+02 -0.30368660790E+01 -0.15077347363E+02  0.25883746865E+02  0.00000000000E+00 0.  1.
         14    1    3    3    0    0  0.53475653177E+02 -0.21859350619E+02 -0.48490793099E+02  0.75424357522E+02  0.00000000000E+00 0. -1.
        -11    1    4    4    0    0 -0.34424459936E+02 -0.10132953563E+02 -0.17788026432E+03  0.18146379425E+03  0.00000000000E+00 0.  1.
         11    1    4    4    0    0  0.41167231347E+02  0.48156816376E+02 -0.24828397277E+03  0.25623963595E+03  0.00000000000E+00 0. -1.
         21    1    1    2  502  501 -0.39399697618E+02 -0.13127646116E+02 -0.57372961038E+02  0.70826039867E+02  0.00000000000E+00 0.  1.
<scales pt_clust_5="13000.00000" pt_clust_6="13000.00000" pt_clust_7="13000.00000" pt_clust_8="13000.00000" pt_clust_9="41.52916"></scales>
<clustering>
<clus scale="   41.529">  1  9  2 -1</clus>
<clus scale="   67.351">  5  6 -1 -1</clus>
<clus scale="   75.920">  1  5  2 -1</clus>
<clus scale="   92.071">  7  8 -1 -1</clus>
<clus scale="   98.513">  2  5  1 -1</clus>
</clustering>
</event>
<event>
 9    2  0.6066854E-005  0.9631600E+02  0.7546771E-02  0.1295949E+00
         -1   -1    0    0    0  501 -0.00000000000E+00  0.00000000000E+00  0.84523136500E+02  0.84523136500E+02  0.00000000000E+00 0.  1.
          2   -1    0    0  502    0  0.00000000000E+00 -0.00000000000E+00 -0.38092548679E+03  0.38092548679E+03  0.00000000000E+00 0. -1.
         23    2    1    2    0    0 -0.21912852286E+01 -0.24092131923E+01 -0.38556193568E+02  0.98854230530E+02  0.90966877444E+02 0.  0.
         24    2    1    2    0    0  0.58428918109E+01  0.36956461389E+02 -0.29997299009E+03  0.31199112657E+03  0.77167019182E+02 0.  0.
        -11    1    4    4    0    0 -0.87884324575E+01  0.28993039713E+02 -0.34169032378E+02  0.45665694679E+02  0.00000000000E+00 0.  1.
         12    1    4    4    0    0  0.14631324268E+02  0.79634216760E+01 -0.26580395771E+03  0.26632543189E+03  0.00000000000E+00 0. -1.
        -13    1    3    3    0    0  0.23758090417E+02  0.36643511512E+02 -0.23590714294E+02  0.49635829772E+02  0.00000000000E+00 0. -1.
         13    1    3    3    0    0 -0.25949375646E+02 -0.39052724705E+02 -0.14965479274E+02  0.49218400758E+02  0.00000000000E+00 0.  1.
         21    1    1    2  502  501 -0.36516065823E+01 -0.34547248197E+02  0.42126833373E+02  0.54603266190E+02  0.00000000000E+00 0.  1.
<scales pt_clust_5="13000.00000" pt_clust_6="13000.00000" pt_clust_7="13000.00000" pt_clust_8="13000.00000" pt_clust_9="34.73970"></scales>
<clustering>
<clus scale="   34.740">  1  9  2 -1</clus>
<clus scale="   77.167">  5  6 -1 -1</clus>
<clus scale="   83.406">  2  5  1 -1</clus>
<clus scale="   90.967">  7  8 -1 -1</clus>
<clus scale="   83.406">  2  5  1 -1</clus>
</clustering>
</event>
<event>
 9    2  0.6066854E-005  0.9125999E+02  0.7546771E-02  0.1303312E+00
         -1   -1    0    0    0  501 -0.00000000000E+00  0.00000000000E+00  0.99988661530E+02  0.99988661530E+02  0.00000000000E+00 0.  1.
          2   -1    0    0  502    0  0.00000000000E+00 -0.00000000000E+00 -0.21510392449E+03  0.21510392449E+03  0.00000000000E+00 0. -1.
         23    2    1    2    0    0 -0.26725865712E+01  0.25038496053E+02 -0.49736806294E+02  0.10627400866E+03  0.90478428444E+02 0.  0.
         24    2    1    2    0    0 -0.49816015038E+01 -0.53075367662E+01 -0.12179302352E+03  0.14856494094E+03  0.84764466595E+02 0.  0.
        -13    1    4    4    0    0 -0.12097241127E+02  0.37830527153E+02 -0.72575380312E+02  0.82732568285E+02  0.00000000000E+00 0.  1.
         14    1    4    4    0    0  0.71156396232E+01 -0.43138063920E+02 -0.49217643208E+02  0.65832372652E+02  0.00000000000E+00 0. -1.
        -13    1    3    3    0    0 -0.13457609650E+02 -0.30369585647E+02 -0.34310907459E+02  0.47756228500E+02  0.00000000000E+00 0. -1.
         13    1    3    3    0    0  0.10785023079E+02  0.55408081700E+02 -0.15425898835E+02  0.58517780164E+02  0.00000000000E+00 0.  1.
         21    1    1    2  502  501  0.76541880749E+01 -0.19730959286E+02  0.56414566849E+02  0.60253636423E+02  0.00000000000E+00 0.  1.
<scales pt_clust_5="13000.00000" pt_clust_6="13000.00000" pt_clust_7="13000.00000" pt_clust_8="13000.00000" pt_clust_9="21.16359"></scales>
<clustering>
<clus scale="   21.164">  1  9  2 -1</clus>
<clus scale="   84.764">  5  6 -1 -1</clus>
<clus scale="   85.598">  2  5  1 -1</clus>
<clus scale="   90.478">  7  8 -1 -1</clus>
<clus scale="   85.598">  2  5  1 -1</clus>
</clustering>
</event>
<event>
 9    2  0.6066854E-005  0.1004661E+03  0.7546771E-02  0.1289453E+00
         -1   -1    0    0    0  501 -0.00000000000E+00  0.00000000000E+00  0.10566943032E+03  0.10566943032E+03  0.00000000000E+00 0.  1.
          2   -1    0    0  502    0  0.00000000000E+00 -0.00000000000E+00 -0.43768262075E+03  0.43768262075E+03  0.00000000000E+00 0. -1.
         23    2    1    2    0    0  0.51470437514E+02 -0.74506422911E+01 -0.17624768380E+03  0.20625918926E+03  0.93674378039E+02 0.  0.
         24    2    1    2    0    0 -0.17040842645E+02  0.30423241626E+02 -0.23428542244E+03  0.24833186529E+03  0.74586139486E+02 0.  0.
        -11    1    4    4    0    0 -0.45320418000E+02  0.17160995273E+02 -0.11036877825E+03  0.12053923535E+03  0.00000000000E+00 0.  1.
         12    1    4    4    0    0  0.28279575355E+02  0.13262246353E+02 -0.12391664419E+03  0.12779262994E+03  0.00000000000E+00 0. -1.
        -11    1    3    3    0    0  0.25547729506E+02  0.41909204956E+02 -0.10400372394E+03  0.11500366314E+03  0.00000000000E+00 0. -1.
         11    1    3    3    0    0  0.25922708007E+02 -0.49359847247E+02 -0.72243959868E+02  0.91255526124E+02  0.00000000000E+00 0.  1.
         21    1    1    2  502  501 -0.34429594869E+02 -0.22972599335E+02  0.78519915815E+02  0.88760996517E+02  0.00000000000E+00 0.  1.
<scales pt_clust_5="13000.00000" pt_clust_6="13000.00000" pt_clust_7="13000.00000" pt_clust_8="13000.00000" pt_clust_9="41.39006"></scales>
<clustering>
<clus scale="   41.390">  1  9  2 -1</clus>
<clus scale="   74.586">  5  6 -1 -1</clus>
<clus scale="   82.956">  2  5  1 -1</clus>
<clus scale="   93.674">  7  8 -1 -1</clus>
<clus scale="   82.956">  2  5  1 -1</clus>
</clustering>
</event>
<event>
 9    2  0.6066854E-005  0.1699647E+03  0.7546771E-02  0.1179225E+00
         -1   -1    0    0    0  501 -0.00000000000E+00  0.00000000000E+00  0.66242356424E+02  0.66242356424E+02  0.00000000000E+00 0.  1.
          2   -1    0    0  502    0  0.00000000000E+00 -0.00000000000E+00 -0.58601880438E+03  0.58601880438E+03  0.00000000000E+00 0. -1.
         23    2    1    2    0    0  0.90640236126E+02 -0.11800395837E+03 -0.11335678782E+03  0.20781310159E+03  0.90531415835E+02 0.  0.
         24    2    1    2    0    0 -0.68611938503E+02  0.11323820278E+03 -0.37499873376E+03  0.40577981725E+03  0.80639451174E+02 0.  0.
        -13    1    4    4    0    0 -0.26840320435E+02 -0.66126562332E+01 -0.79803805868E+02  0.84455772180E+02  0.00000000000E+00 0.  1.
         14    1    4    4    0    0 -0.41771618068E+02  0.11985085901E+03 -0.29519492790E+03  0.32132404507E+03  0.00000000000E+00 0. -1.
        -13    1    3    3    0    0  0.76479700223E+02 -0.55051799654E+02 -0.23377740580E+02  0.97089463619E+02  0.00000000000E+00 0.  1.
         13    1    3    3    0    0  0.14160535903E+02 -0.62952158718E+02 -0.89979047237E+02  0.11072363797E+03  0.00000000000E+00 0. -1.
         21    1    1    2  502  501 -0.22028297622E+02  0.47657555947E+01 -0.31420926375E+02  0.38668241967E+02  0.00000000000E+00 0.  1.
<scales pt_clust_5="13000.00000" pt_clust_6="13000.00000" pt_clust_7="13000.00000" pt_clust_8="13000.00000" pt_clust_9="22.53793"></scales>
<clustering>
<clus scale="   22.538">  2  9  1 -1</clus>
<clus scale="   80.639">  5  6 -1 -1</clus>
<clus scale="   90.531">  7  8 -1 -1</clus>
<clus scale="  164.908">  2  5  1 -1</clus>
<clus scale="   22.538">  2  5  1 -1</clus>
</clustering>
</event>
<event>
 9    2  0.6066854E-005  0.1072671E+03  0.7546771E-02  0.1270398E+00
          2   -1    0    0  502    0  0.00000000000E+00  0.00000000000E+00  0.42943263697E+02  0.42943263697E+02  0.00000000000E+00 0. -1.
         -1   -1    0    0    0  501 -0.00000000000E+00 -0.00000000000E+00 -0.46821946060E+03  0.46821946060E+03  0.00000000000E+00 0.  1.
         23    2    1    2    0    0 -0.34457886596E+02 -0.62082659531E+02 -0.28799115184E+03  0.31208442117E+03  0.97037002401E+02 0.  0.
         24    2    1    2    0    0  0.18680392099E+02  0.34143346122E+02 -0.52702091270E+02  0.10861388671E+03  0.86629907236E+02 0.  0.
        -11    1    4    4    0    0  0.37556904496E+01  0.24756044675E+02 -0.75643421561E+02  0.79679948445E+02  0.00000000000E+00 0.  1.
         12    1    4    4    0    0  0.14924701649E+02  0.93873014467E+01  0.22941330291E+02  0.28933938261E+02  0.00000000000E+00 0. -1.
        -13    1    3    3    0    0 -0.39618290182E+01 -0.68483102251E+02 -0.26397648230E+03  0.27274386261E+03  0.00000000000E+00 0.  1.
         13    1    3    3    0    0 -0.30496057578E+02  0.64004427197E+01 -0.24014669543E+02  0.39340558563E+02  0.00000000000E+00 0. -1.
         21    1    1    2  502  501  0.15777494498E+02  0.27939313409E+02 -0.84582953794E+02  0.90464416424E+02  0.00000000000E+00 0. -1.
<scales pt_clust_5="13000.00000" pt_clust_6="13000.00000" pt_clust_7="13000.00000" pt_clust_8="13000.00000" pt_clust_9="32.08636"></scales>
<clustering>
<clus scale="   32.086">  2  9  1 -1</clus>
<clus scale="   86.630">  5  6 -1 -1</clus>
<clus scale="   97.037">  7  8 -1 -1</clus>
<clus scale="   97.953">  1  5  2 -1</clus>
<clus scale="   97.953">  1  5  2 -1</clus>
</clustering>
</event>
<event>
 9    2  0.6066854E-005  0.1252084E+03  0.7546771E-02  0.1256951E+00
         -1   -1    0    0    0  501 -0.00000000000E+00  0.00000000000E+00  0.70700067716E+03  0.70700067716E+03  0.00000000000E+00 0.  1.
          2   -1    0    0  502    0  0.00000000000E+00 -0.00000000000E+00 -0.16384023743E+03  0.16384023743E+03  0.00000000000E+00 0. -1.
         24    2    1    2    0    0 -0.54146882579E+02 -0.88345488601E+02  0.79247175098E+02  0.15330272899E+03  0.80528266496E+02 0.  0.
         23    2    1    2    0    0  0.47367539024E+02 -0.75916362356E+01 -0.10974907382E+03  0.13586957722E+03  0.64143324803E+02 0.  0.
        -11    1    3    3    0    0 -0.64709358723E+02 -0.38657439177E+02  0.67457139469E+02  0.10115416143E+03  0.00000000000E+00 0.  1.
         12    1    3    3    0    0  0.10562476144E+02 -0.49688049424E+02  0.11790035629E+02  0.52148567554E+02  0.00000000000E+00 0. -1.
        -11    1    4    4    0    0  0.33528959950E+01  0.20639762901E+02 -0.98532861467E+01  0.23115556927E+02  0.00000000000E+00 0.  1.
         11    1    4    4    0    0  0.44014643029E+02 -0.28231399137E+02 -0.99895787674E+02  0.11275402030E+03  0.00000000000E+00 0. -1.
         21    1    1    2  502  501  0.67793435547E+01  0.95937124837E+02  0.57366233845E+03  0.58166860838E+03  0.00000000000E+00 0.  1.
<scales pt_clust_5="13000.00000" pt_clust_6="13000.00000" pt_clust_7="13000.00000" pt_clust_8="13000.00000" pt_clust_9="95.87670"></scales>
<clustering>
<clus scale="   64.143">  7  8 -1 -1</clus>
<clus scale="   80.098">  2  7  1 -1</clus>
<clus scale="   80.528">  5  6 -1 -1</clus>
<clus scale="   95.877">  1  9  2 -1</clus>
<clus scale="   80.098">  2  5  1 -1</clus>
</clustering>
</event>
<event>
 9    2  0.6066854E-005  0.8973997E+02  0.7546771E-02  0.1306408E+00
          2   -1    0    0  502    0  0.00000000000E+00  0.00000000000E+00  0.86999745950E+03  0.86999745950E+03  0.00000000000E+00 0. -1.
         -1   -1    0    0    0  501 -0.00000000000E+00 -0.00000000000E+00 -0.45451372331E+02  0.45451372331E+02  0.00000000000E+00 0.  1.
         23    2    1    2    0    0  0.11934856154E+02 -0.11190923805E+01  0.12835982404E+02  0.90347979503E+02  0.88624498852E+02 0.  0.
         24    2    1    2    0    0  0.11852116693E+02 -0.10054340273E+02  0.77645718841E+03  0.78113002352E+03  0.83885551686E+02 0.  0.
        -13    1    4    4    0    0  0.13937246955E+02  0.33334742798E+02  0.21685284364E+03  0.21984223371E+03  0.00000000000E+00 0.  1.
         14    1    4    4    0    0 -0.20851302616E+01 -0.43389083072E+02  0.55960434477E+03  0.56128778981E+03  0.00000000000E+00 0. -1.
        -11    1    3    3    0    0  0.71318715878E+01 -0.34855833891E+02  0.34830756954E+02  0.49789299840E+02  0.00000000000E+00 0. -1.
         11    1    3    3    0    0  0.48029845666E+01  0.33736741510E+02 -0.21994774551E+02  0.40558679663E+02  0.00000000000E+00 0.  1.
         21    1    1    2  502  501 -0.23786972848E+02  0.11173432654E+02  0.35252916359E+02  0.43970828812E+02  0.00000000000E+00 0. -1.
<scales pt_clust_5="13000.00000" pt_clust_6="13000.00000" pt_clust_7="13000.00000" pt_clust_8="13000.00000" pt_clust_9="26.28052"></scales>
<clustering>
<clus scale="   26.281">  2  9  1 -1</clus>
<clus scale="   83.886">  5  6 -1 -1</clus>
<clus scale="   85.063">  1  5  2 -1</clus>
<clus scale="   88.624">  7  8 -1 -1</clus>
<clus scale="   85.063">  1  5  2 -1</clus>
</clustering>
</event>
<event>
 9    2  0.6066854E-005  0.1025670E+03  0.7546771E-02  0.1279961E+00
         -1   -1    0    0    0  501 -0.00000000000E+00  0.00000000000E+00  0.14428802784E+03  0.14428802784E+03  0.00000000000E+00 0.  1.
          2   -1    0    0  502    0  0.00000000000E+00 -0.00000000000E+00 -0.23615427596E+03  0.23615427596E+03  0.00000000000E+00 0. -1.
         24    2    1    2    0    0 -0.52060215202E+02 -0.30552001897E+01  0.10200301733E+03  0.13905107578E+03  0.78809808261E+02 0.  0.
         23    2    1    2    0    0  0.24503408320E+02  0.22778001181E+02 -0.18177614657E+03  0.20541053863E+03  0.89619571312E+02 0.  0.
        -11    1    3    3    0    0 -0.36611045882E+02  0.35537204937E+02  0.69836756737E+02  0.86489503449E+02  0.00000000000E+00 0.  1.
         12    1    3    3    0    0 -0.15449169321E+02 -0.38592405126E+02  0.32166260589E+02  0.52561572336E+02  0.00000000000E+00 0. -1.
        -13    1    4    4    0    0 -0.18588230691E+02 -0.12112013925E+02 -0.12151097886E+03  0.12351980078E+03  0.00000000000E+00 0. -1.
         13    1    4    4    0    0  0.43091639010E+02  0.34890015106E+02 -0.60265167713E+02  0.81890737854E+02  0.00000000000E+00 0.  1.
         21    1    1    2  502  501  0.27556806882E+02 -0.19722800991E+02 -0.12093118871E+02  0.35980689384E+02  0.00000000000E+00 0.  1.
<scales pt_clust_5="13000.00000" pt_clust_6="13000.00000" pt_clust_7="13000.00000" pt_clust_8="13000.00000" pt_clust_9="33.88756"></scales>
<clustering>
<clus scale="   33.888">  2  9  1 -1</clus>
<clus scale="   78.810">  5  6 -1 -1</clus>
<clus scale="   89.620">  7  8 -1 -1</clus>
<clus scale="   93.270">  1  5  2 -1</clus>
<clus scale="   33.888">  2  5  1 -1</clus>
</clustering>
</event>
<event>
 9    2  0.6251716E-005  0.1555953E+03  0.7546771E-02  0.1195299E+00
         -1   -1    0    0    0  501 -0.00000000000E+00  0.00000000000E+00  0.18445462791E+03  0.18445462791E+03  0.00000000000E+00 0.  1.
          2   -1    0    0  502    0  0.00000000000E+00 -0.00000000000E+00 -0.14848531200E+04  0.14848531200E+04  0.00000000000E+00 0. -1.
         23    2    1    2    0    0  0.81439669480E+02 -0.79334360478E+02  0.14022734481E+03  0.20252575858E+03  0.91796591112E+02 0.  0.
         24    2    1    2    0    0 -0.74793521345E+02  0.10132542779E+03 -0.14353132559E+04  0.14432022980E+04  0.82751538253E+02 0.  0.
        -11    1    4    4    0    0 -0.32709892559E+02  0.10603463569E+02 -0.14508936073E+03  0.14910832676E+03  0.00000000000E+00 0.  1.
         12    1    4    4    0    0 -0.42083628786E+02  0.90721964225E+02 -0.12902238952E+04  0.12940939712E+04  0.00000000000E+00 0. -1.
        -11    1    3    3    0    0  0.21054455110E+02 -0.41813867311E+02  0.17297613880E+01  0.46847429534E+02  0.00000000000E+00 0. -1.
         11    1    3    3    0    0  0.60385214370E+02 -0.37520493167E+02  0.13849758342E+03  0.15567832905E+03  0.00000000000E+00 0.  1.
         21    1    1    2  502  501 -0.66461481354E+01 -0.21991067316E+02 -0.53125809404E+01  0.23579691325E+02  0.00000000000E+00 0.  1.
<scales pt_clust_5="13000.00000" pt_clust_6="13000.00000" pt_clust_7="13000.00000" pt_clust_8="13000.00000" pt_clust_9="22.97343"></scales>
<clustering>
<clus scale="   22.973">  1  9  2 -1</clus>
<clus scale="   82.752">  5  6 -1 -1</clus>
<clus scale="   91.797">  7  8 -1 -1</clus>
<clus scale="  150.436">  2  5  1 -1</clus>
<clus scale="  150.436">  2  5  1 -1</clus>
</clustering>
</event>
<event>
 9    2  0.6066854E-005  0.9311823E+02  0.7546771E-02  0.1301614E+00
          2   -1    0    0  502    0  0.00000000000E+00  0.00000000000E+00  0.19972452477E+03  0.19972452477E+03  0.00000000000E+00 0. -1.
         -1   -1    0    0    0  501 -0.00000000000E+00 -0.00000000000E+00 -0.65040023259E+02  0.65040023259E+02  0.00000000000E+00 0.  1.
         23    2    1    2    0    0 -0.35865959841E+02  0.20485353152E+02  0.55458401826E+02  0.11458321833E+03  0.91365545040E+02 0.  0.
         24    2    1    2    0    0 -0.26126259317E+01 -0.88660965560E+01  0.72916592191E+02  0.10949449434E+03  0.81158988354E+02 0.  0.
        -13    1    4    4    0    0 -0.18411502088E+02 -0.40444965865E+02  0.28665374841E+02  0.52881777464E+02  0.00000000000E+00 0.  1.
         14    1    4    4    0    0  0.15798876156E+02  0.31578869309E+02  0.44251217351E+02  0.56612716872E+02  0.00000000000E+00 0. -1.
        -11    1    3    3    0    0 -0.84381120043E+01 -0.20610879508E+02 -0.16201680360E+02  0.27540961036E+02  0.00000000000E+00 0.  1.
         11    1    3    3    0    0 -0.27427847837E+02  0.41096232660E+02  0.71660082186E+02  0.87042257293E+02  0.00000000000E+00 0. -1.
         21    1    1    2  502  501  0.38478585773E+02 -0.11619256596E+02  0.63095074903E+01  0.40686835361E+02  0.00000000000E+00 0. -1.
<scales pt_clust_5="13000.00000" pt_clust_6="13000.00000" pt_clust_7="13000.00000" pt_clust_8="13000.00000" pt_clust_9="40.19464"></scales>
<clustering>
<clus scale="   40.195">  2  9  1 -1</clus>
<clus scale="   81.159">  5  6 -1 -1</clus>
<clus scale="   83.127">  1  5  2 -1</clus>
<clus scale="   91.366">  7  8 -1 -1</clus>
<clus scale="   83.127">  1  5  2 -1</clus>
</clustering>
</event>
<event>
 9    2  0.6066854E-005  0.9481067E+02  0.7546771E-02  0.1303484E+00
          2   -1    0    0  502    0  0.00000000000E+00  0.00000000000E+00  0.10754051656E+04  0.10754051656E+04  0.00000000000E+00 0. -1.
         -1   -1    0    0    0  501 -0.00000000000E+00 -0.00000000000E+00 -0.16645841163E+02  0.16645841163E+02  0.00000000000E+00 0.  1.
         23    2    1    2    0    0  0.47213901397E+01  0.77548615278E+01  0.16325634069E+03  0.18720190134E+03  0.91156402341E+02 0.  0.
         24    2    1    2    0    0  0.25398024499E+02 -0.16032683101E+02  0.81201289603E+03  0.81570710514E+03  0.71491478350E+02 0.  0.
        -11    1    4    4    0    0  0.40359955065E+01 -0.26145961896E+02  0.10440871057E+03  0.10770830713E+03  0.00000000000E+00 0.  1.
         12    1    4    4    0    0  0.21362028993E+02  0.10113278795E+02  0.70760418546E+03  0.70799879801E+03  0.00000000000E+00 0. -1.
        -11    1    3    3    0    0 -0.86198902022E+01  0.45606318614E+02  0.56309852762E+02  0.72972860179E+02  0.00000000000E+00 0.  1.
         11    1    3    3    0    0  0.13341280342E+02 -0.37851457086E+02  0.10694648792E+03  0.11422904116E+03  0.00000000000E+00 0. -1.
         21    1    1    2  502  501 -0.30119414639E+02  0.82778215735E+01  0.83490087762E+02  0.89142000329E+02  0.00000000000E+00 0.  1.
<scales pt_clust_5="13000.00000" pt_clust_6="13000.00000" pt_clust_7="13000.00000" pt_clust_8="13000.00000" pt_clust_9="31.23622"></scales>
<clustering>
<clus scale="   31.236">  2  9  1 -1</clus>
<clus scale="   71.491">  5  6 -1 -1</clus>
<clus scale="   76.096">  1  5  2 -1</clus>
<clus scale="   91.156">  7  8 -1 -1</clus>
<clus scale="   76.096">  1  5  2 -1</clus>
</clustering>
</event>
<event>
 9    2  0.6066854E-005  0.1086841E+03  0.7546771E-02  0.1267919E+00
         -1   -1    0    0    0  501 -0.00000000000E+00  0.00000000000E+00  0.13215726472E+02  0.13215726472E+02  0.00000000000E+00 0.  1.
          2   -1    0    0  502    0  0.00000000000E+00 -0.00000000000E+00 -0.13320137971E+04  0.13320137971E+04  0.00000000000E+00 0. -1.
         23    2    1    2    0    0  0.44498115769E+02  0.49091525358E+02 -0.56121681297E+03  0.57296187626E+03  0.94503652446E+02 0.  0.
         24    2    1    2    0    0 -0.15958579782E+02 -0.45721353402E+02 -0.71153907078E+03  0.71799291888E+03  0.82950972803E+02 0.  0.
        -11    1    4    4    0    0 -0.24079309735E+02  0.45396397967E+01 -0.65211703633E+02  0.69663389076E+02  0.00000000000E+00 0.  1.
         12    1    4    4    0    0  0.81207299533E+01 -0.50260993199E+02 -0.64632736714E+03  0.64832952980E+03  0.00000000000E+00 0. -1.
        -11    1    3    3    0    0  0.34963503178E+02  0.77385936937E+02 -0.44023241869E+03  0.44834764665E+03  0.00000000000E+00 0.  1.
         11    1    3    3    0    0  0.95346125912E+01 -0.28294411579E+02 -0.12098439428E+03  0.12461422962E+03  0.00000000000E+00 0. -1.
         21    1    1    2  502  501 -0.28539535987E+02 -0.33701719558E+01 -0.46042186886E+02  0.54274728434E+02  0.00000000000E+00 0. -1.
<scales pt_clust_5="13000.00000" pt_clust_6="13000.00000" pt_clust_7="13000.00000" pt_clust_8="13000.00000" pt_clust_9="28.73784"></scales>
<clustering>
<clus scale="   28.738">  1  9  2 -1</clus>
<clus scale="   82.951">  5  6 -1 -1</clus>
<clus scale="   94.504">  7  8 -1 -1</clus>
<clus scale="   98.804">  2  5  1 -1</clus>
<clus scale="   98.804">  2  5  1 -1</clus>
</clustering>
</event>
<event>
 9    2  0.6066854E-005  0.1517364E+03  0.7546771E-02  0.1202126E+00
         -1   -1    0    0    0  501 -0.00000000000E+00  0.00000000000E+00  0.64625729359E+02  0.64625729359E+02  0.00000000000E+00 0.  1.
          2   -1    0    0  502    0  0.00000000000E+00 -0.00000000000E+00 -0.98699924513E+03  0.98699924513E+03  0.00000000000E+00 0. -1.
         23    2    1    2    0    0  0.13442432473E+03  0.28024442893E+02 -0.96255168551E+02  0.19681570357E+03  0.10303443705E+03 0.  0.
         24    2    1    2    0    0 -0.93600338878E+02 -0.55844887574E+02 -0.75923827800E+03  0.77166169956E+03  0.84494620488E+02 0.  0.
        -11    1    4    4    0    0 -0.51423254924E+02 -0.75160191154E+02 -0.47267936138E+03  0.48137218881E+03  0.00000000000E+00 0.  1.
         12    1    4    4    0    0 -0.42177083954E+02  0.19315303580E+02 -0.28655891661E+03  0.29028951075E+03  0.00000000000E+00 0. -1.
        -13    1    3    3    0    0  0.74719255975E+02  0.59626822097E+02 -0.85812123526E+02  0.12846028830E+03  0.00000000000E+00 0. -1.
         13    1    3    3    0    0  0.59705068757E+02 -0.31602379205E+02 -0.10443045025E+02  0.68355415265E+02  0.00000000000E+00 0.  1.
         21    1    1    2  502  501 -0.40823985854E+02  0.27820444682E+02 -0.66880069224E+02  0.83147571358E+02  0.00000000000E+00 0. -1.
<scales pt_clust_5="13000.00000" pt_clust_6="13000.00000" pt_clust_7="13000.00000" pt_clust_8="13000.00000" pt_clust_9="49.40218"></scales>
<clustering>
<clus scale="   49.402">  1  9  2 -1</clus>
<clus scale="   84.495">  5  6 -1 -1</clus>
<clus scale="  103.034">  7  8 -1 -1</clus>
<clus scale="  139.811">  2  5  1 -1</clus>
<clus scale="  139.811">  2  5  1 -1</clus>
</clustering>
</event>
<event>
 9    2  0.6066854E-005  0.1700043E+03  0.7546771E-02  0.1179239E+00
          2   -1    0    0  502    0  0.00000000000E+00  0.00000000000E+00  0.10239215664E+04  0.10239215664E+04  0.00000000000E+00 0. -1.
         -1   -1    0    0    0  501 -0.00000000000E+00 -0.00000000000E+00 -0.47903119094E+02  0.47903119094E+02  0.00000000000E+00 0.  1.
         24    2    1    2    0    0  0.12531756273E+03 -0.71857821753E+02  0.43517362744E+03  0.46560555785E+03  0.80897536483E+02 0.  0.
         23    2    1    2    0    0 -0.10045320824E+03  0.10522977542E+03  0.53775031898E+03  0.56448785222E+03  0.91142619335E+02 0.  0.
        -11    1    3    3    0    0  0.86636298272E+01 -0.38569627654E+02  0.16119798327E+03  0.16597428858E+03  0.00000000000E+00 0.  1.
         12    1    3    3    0    0  0.11665393291E+03 -0.33288194099E+02  0.27397564417E+03  0.29963126927E+03  0.00000000000E+00 0. -1.
        -13    1    4    4    0    0 -0.66166753457E+02  0.30029753579E+02  0.37477796473E+03  0.38175692293E+03  0.00000000000E+00 0. -1.
         13    1    4    4    0    0 -0.34286454787E+02  0.75200021843E+02  0.16297235425E+03  0.18273092929E+03  0.00000000000E+00 0.  1.
         21    1    1    2  502  501 -0.24864354489E+02 -0.33371953669E+02  0.30945009296E+01  0.41731275464E+02  0.00000000000E+00 0.  1.
<scales pt_clust_5="13000.00000" pt_clust_6="13000.00000" pt_clust_7="13000.00000" pt_clust_8="13000.00000" pt_clust_9="41.61638"></scales>
<clustering>
<clus scale="   41.616">  2  9  1 -1</clus>
<clus scale="   80.898">  5  6 -1 -1</clus>
<clus scale="   91.143">  7  8 -1 -1</clus>
<clus scale="  164.739">  2  5  1 -1</clus>
<clus scale="  170.004">  1  5  2 -1</clus>
</clustering>
</event>
<event>
 9    2  0.6066854E-005  0.1069653E+03  0.7546771E-02  0.1272697E+00
          2   -1    0    0  502    0  0.00000000000E+00  0.00000000000E+00  0.14511767797E+04  0.14511767797E+04  0.00000000000E+00 0. -1.
         -1   -1    0    0    0  501 -0.00000000000E+00 -0.00000000000E+00 -0.32160309296E+02  0.32160309296E+02  0.00000000000E+00 0.  1.
         23    2    1    2    0    0  0.19698201143E+02  0.77526559081E+02  0.19830417536E+03  0.23461360552E+03  0.96543313809E+02 0.  0.
         24    2    1    2    0    0 -0.12091869582E+02 -0.40966616616E+02  0.12043906745E+04  0.12079695760E+04  0.82517408647E+02 0.  0.
        -11    1    4    4    0    0  0.64481859181E+01 -0.25429757202E+02  0.10219909274E+03  0.10551258792E+03  0.00000000000E+00 0.  1.
         12    1    4    4    0    0 -0.18540055500E+02 -0.15536859415E+02  0.11021915818E+04  0.11024569881E+04  0.00000000000E+00 0. -1.
        -13    1    3    3    0    0  0.20257043334E+02  0.21057396499E+02  0.83811264661E+00  0.29231219351E+02  0.00000000000E+00 0. -1.
         13    1    3    3    0    0 -0.55884219092E+00  0.56469162581E+02  0.19746606271E+03  0.20538238617E+03  0.00000000000E+00 0.  1.
         21    1    1    2  502  501 -0.76063315609E+01 -0.36559942464E+02  0.16321620457E+02  0.40753907385E+02  0.00000000000E+00 0. -1.
<scales pt_clust_5="13000.00000" pt_clust_6="13000.00000" pt_clust_7="13000.00000" pt_clust_8="13000.00000" pt_clust_9="37.34281"></scales>
<clustering>
<clus scale="   37.343">  2  9  1 -1</clus>
<clus scale="   82.517">  5  6 -1 -1</clus>
<clus scale="   94.499">  1  5  2 -1</clus>
<clus scale="   96.543">  7  8 -1 -1</clus>
<clus scale="   94.499">  1  5  2 -1</clus>
</clustering>
</event>
<event>
 9    2  0.6066854E-005  0.1155600E+03  0.7546771E-02  0.1255170E+00
         -1   -1    0    0    0  501 -0.00000000000E+00  0.00000000000E+00  0.67894441220E+03  0.67894441220E+03  0.00000000000E+00 0.  1.
          2   -1    0    0  502    0  0.00000000000E+00 -0.00000000000E+00 -0.10954860674E+03  0.10954860674E+03  0.00000000000E+00 0. -1.
         24    2    1    2    0    0  0.37109199753E+02  0.41359189374E+02  0.37578652232E+03  0.38800390477E+03  0.79018001152E+02 0.  0.
         23    2    1    2    0    0  0.30708183200E+02 -0.67593675953E+02 -0.62883373401E+02  0.13388842292E+03  0.91977679888E+02 0.  0.
        -11    1    3    3    0    0  0.41557434050E+02  0.49727457570E+02  0.37231179135E+03  0.37790992357E+03  0.00000000000E+00 0.  1.
         12    1    3    3    0    0 -0.44482342969E+01 -0.83682681967E+01  0.34747309729E+01  0.10093981192E+02  0.00000000000E+00 0. -1.
        -11    1    4    4    0    0 -0.15300110903E+02  0.16094492882E+02 -0.16827135345E+02  0.27861776302E+02  0.00000000000E+00 0.  1.
         11    1    4    4    0    0  0.46008294103E+02 -0.83688168835E+02 -0.46056238056E+02  0.10602664662E+03  0.00000000000E+00 0. -1.
         21    1    1    2  502  501 -0.67817382953E+02  0.26234486579E+02  0.25649265654E+03  0.26660069125E+03  0.00000000000E+00 0.  1.
<scales pt_clust_5="13000.00000" pt_clust_6="13000.00000" pt_clust_7="13000.00000" pt_clust_8="13000.00000" pt_clust_9="72.71482"></scales>
<clustering>
<clus scale="   72.715">  1  9  2 -1</clus>
<clus scale="   79.018">  5  6 -1 -1</clus>
<clus scale="   91.978">  7  8 -1 -1</clus>
<clus scale="  105.537">  1  5  2 -1</clus>
<clus scale="  115.560">  2  5  1 -1</clus>
</clustering>
</event>
<event>
 9    2  0.8286757E-005  0.1418603E+03  0.7546771E-02  0.1212809E+00
          2   -1    0    0  502    0  0.00000000000E+00  0.00000000000E+00  0.38897792488E+03  0.38897792488E+03  0.00000000000E+00 0. -1.
         -1   -1    0    0    0  501 -0.00000000000E+00 -0.00000000000E+00 -0.28966855733E+03  0.28966855733E+03  0.00000000000E+00 0.  1.
         24    2    1    2    0    0 -0.10805561304E+03 -0.93133040611E+02 -0.14769003873E+03  0.22111745348E+03  0.82041464703E+02 0.  0.
         23    2    1    2    0    0  0.51611089390E+02  0.93175609099E+02  0.32917640800E+03  0.35783426622E+03  0.91339234805E+02 0.  0.
        -13    1    3    3    0    0 -0.11254302595E+03 -0.90914012857E+02 -0.10656019104E+03  0.17968406923E+03  0.00000000000E+00 0.  1.
         14    1    3    3    0    0  0.44874129044E+01 -0.22190277537E+01 -0.41129847697E+02  0.41433384249E+02  0.00000000000E+00 0. -1.
        -13    1    4    4    0    0  0.16721568073E+02 -0.16717085818E+02  0.39232479891E+02  0.45806760150E+02  0.00000000000E+00 0.  1.
         13    1    4    4    0    0  0.34889521317E+02  0.10989269492E+03  0.28994392811E+03  0.31202750607E+03  0.00000000000E+00 0. -1.
         21    1    1    2  502  501  0.56444523651E+02 -0.42568488837E-01 -0.82177001715E+02  0.99694762516E+02  0.00000000000E+00 0.  1.
<scales pt_clust_5="13000.00000" pt_clust_6="13000.00000" pt_clust_7="13000.00000" pt_clust_8="13000.00000" pt_clust_9="56.44454"></scales>
<clustering>
<clus scale="   56.445">  2  9  1 -1</clus>
<clus scale="   82.041">  5  6 -1 -1</clus>
<clus scale="   91.339">  7  8 -1 -1</clus>
<clus scale="  136.060">  2  5  1 -1</clus>
<clus scale="  141.860">  1  5  2 -1</clus>
</clustering>
</event>
<event>
 9    2  0.6066854E-005  0.1035372E+03  0.7546771E-02  0.1278842E+00
         -3   -1    0    0    0  501 -0.00000000000E+00  0.00000000000E+00  0.19415005497E+03  0.19415005497E+03  0.00000000000E+00 0.  1.
          4   -1    0    0  502    0  0.00000000000E+00 -0.00000000000E+00 -0.13847547052E+03  0.13847547052E+03  0.00000000000E+00 0. -1.
         23    2    1    2    0    0 -0.56698153759E+02  0.25206036870E+02  0.18012555486E+02  0.11288947926E+03  0.92571904150E+02 0.  0.
         24    2    1    2    0    0  0.36521244115E+02 -0.18622760052E+02 -0.67442818043E+02  0.11250976176E+03  0.80182942832E+02 0.  0.
        -13    1    4    4    0    0  0.20871380598E+02  0.23822619558E+02 -0.45288915985E+00  0.31675492723E+02  0.00000000000E+00 0.  1.
         14    1    4    4    0    0  0.15649863517E+02 -0.42445379610E+02 -0.66989928883E+02  0.80834269033E+02  0.00000000000E+00 0. -1.
        -11    1    3    3    0    0 -0.44487442968E+02  0.49616075670E+02  0.40103034790E+02  0.77776223527E+02  0.00000000000E+00 0. -1.
         11    1    3    3    0    0 -0.12210710791E+02 -0.24410038800E+02 -0.22090479304E+02  0.35113255732E+02  0.00000000000E+00 0.  1.
         21    1    1    2  502  501  0.20176909644E+02 -0.65832768186E+01  0.10510484701E+03  0.10722628447E+03  0.00000000000E+00 0.  1.
<scales pt_clust_5="13000.00000" pt_clust_6="13000.00000" pt_clust_7="13000.00000" pt_clust_8="13000.00000" pt_clust_9="21.22374"></scales>
<clustering>
<clus scale="   21.224">  1  9  2 -1</clus>
<clus scale="   80.183">  5  6 -1 -1</clus>
<clus scale="   92.572">  7  8 -1 -1</clus>
<clus scale="   92.627">  2  5  1 -1</clus>
<clus scale="   92.627">  2  5  1 -1</clus>
</clustering>
</event>
<event>
 9    2  0.6066854E-005  0.2184922E+03  0.7546771E-02  0.1135320E+00
          2   -1    0    0  502    0  0.00000000000E+00  0.00000000000E+00  0.20591864782E+03  0.20591864782E+03  0.00000000000E+00 0. -1.
         -1   -1    0    0    0  501 -0.00000000000E+00 -0.00000000000E+00 -0.53365251631E+03  0.53365251631E+03  0.00000000000E+00 0.  1.
         23    2    1    2    0    0  0.88473943667E+02 -0.19899598057E+03 -0.28917919468E+03  0.37276112971E+03  0.88877523569E+02 0.  0.
         24    2    1    2    0    0 -0.70284975739E+02  0.18276310769E+03  0.93178156359E+02  0.23284032418E+03  0.84794554041E+02 0.  0.
        -13    1    4    4    0    0 -0.16170937157E+02  0.51845077911E+02 -0.12954122363E+02  0.55832074996E+02  0.00000000000E+00 0.  1.
         14    1    4    4    0    0 -0.54114038581E+02  0.13091802977E+03  0.10613227872E+03  0.17700824918E+03  0.00000000000E+00 0. -1.
        -13    1    3    3    0    0  0.66046544981E+02 -0.14219639688E+03 -0.26328147085E+03  0.30642959107E+03  0.00000000000E+00 0.  1.
         13    1    3    3    0    0  0.22427398686E+02 -0.56799583688E+02 -0.25897723832E+02  0.66331538642E+02  0.00000000000E+00 0. -1.
         21    1    1    2  502  501 -0.18188967928E+02  0.16232872886E+02 -0.13173283017E+03  0.13396971024E+03  0.00000000000E+00 0.  1.
<scales pt_clust_5="13000.00000" pt_clust_6="13000.00000" pt_clust_7="13000.00000" pt_clust_8="13000.00000" pt_clust_9="24.37919"></scales>
<clustering>
<clus scale="   24.379">  2  9  1 -1</clus>
<clus scale="   84.795">  5  6 -1 -1</clus>
<clus scale="   88.878">  7  8 -1 -1</clus>
<clus scale="  216.863">  1  5  2 -1</clus>
<clus scale="  216.863">  1  5  2 -1</clus>
</clustering>
</event>
<event>
 9    2  0.6066854E-005  0.9078458E+02  0.7546771E-02  0.1306241E+00
         -1   -1    0    0    0  501 -0.00000000000E+00  0.00000000000E+00  0.20919436862E+03  0.20919436862E+03  0.00000000000E+00 0.  1.
          2   -1    0    0  502    0  0.00000000000E+00 -0.00000000000E+00 -0.34651353344E+03  0.34651353344E+03  0.00000000000E+00 0. -1.
         23    2    1    2    0    0  0.34586768734E+02 -0.17828882474E+02  0.99091286788E+02  0.13851661743E+03  0.88620858517E+02 0.  0.
         24    2    1    2    0    0  0.26144895690E+01  0.19757038044E+02 -0.31745711219E+03  0.32799368044E+03  0.80022873102E+02 0.  0.
        -13    1    4    4    0    0  0.31366192224E+01 -0.22060664600E+02 -0.29262598536E+02  0.36780578786E+02  0.00000000000E+00 0.  1.
         14    1    4    4    0    0 -0.52212965341E+00  0.41817702644E+02 -0.28819451366E+03  0.29121310165E+03  0.00000000000E+00 0. -1.
        -11    1    3    3    0    0  0.47638129925E+02 -0.43550327817E+02  0.50268581816E+02  0.81810468728E+02  0.00000000000E+00 0.  1.
         11    1    3    3    0    0 -0.13051361191E+02  0.25721445343E+02  0.48822704972E+02  0.56706148699E+02  0.00000000000E+00 0. -1.
         21    1    1    2  502  501 -0.37201258303E+02 -0.19281555702E+01  0.81046660582E+02  0.89197604198E+02  0.00000000000E+00 0. -1.
<scales pt_clust_5="13000.00000" pt_clust_6="13000.00000" pt_clust_7="13000.00000" pt_clust_8="13000.00000" pt_clust_9="37.25119"></scales>
<clustering>
<clus scale="   37.251">  1  9  2 -1</clus>
<clus scale="   80.023">  5  6 -1 -1</clus>
<clus scale="   82.413">  2  5  1 -1</clus>
<clus scale="   88.621">  7  8 -1 -1</clus>
<clus scale="   82.413">  2  5  1 -1</clus>
</clustering>
</event>
<event>
 9    2  0.6066854E-005  0.9892285E+02  0.7546771E-02  0.1291691E+00
         -1   -1    0    0    0  501 -0.00000000000E+00  0.00000000000E+00  0.70358237566E+02  0.70358237566E+02  0.00000000000E+00 0.  1.
          2   -1    0    0  502    0  0.00000000000E+00 -0.00000000000E+00 -0.13544494558E+04  0.13544494558E+04  0.00000000000E+00 0. -1.
         23    2    1    2    0    0  0.51374338808E+02 -0.41465579518E+02 -0.14697958372E+02  0.11799897402E+03  0.96690283463E+02 0.  0.
         24    2    1    2    0    0 -0.18793478716E+02 -0.84196990814E+01 -0.12354178313E+04  0.12382202129E+04  0.80672125013E+02 0.  0.
        -13    1    4    4    0    0  0.21375668876E+02  0.57106174538E+01 -0.12210607691E+03  0.12409441724E+03  0.00000000000E+00 0.  1.
         14    1    4    4    0    0 -0.40169147592E+02 -0.14130316535E+02 -0.11133117544E+04  0.11141257957E+04  0.00000000000E+00 0. -1.
        -13    1    3    3    0    0  0.29894008583E+02 -0.72248829973E+02 -0.14808581074E+01  0.78203184861E+02  0.00000000000E+00 0.  1.
         13    1    3    3    0    0  0.21480330225E+02  0.30783250456E+02 -0.13217100265E+02  0.39795789157E+02  0.00000000000E+00 0. -1.
         21    1    1    2  502  501 -0.32580860092E+02  0.49885278599E+02 -0.33975428631E+02  0.68588506442E+02  0.00000000000E+00 0. -1.
<scales pt_clust_5="13000.00000" pt_clust_6="13000.00000" pt_clust_7="13000.00000" pt_clust_8="13000.00000" pt_clust_9="59.58233"></scales>
<clustering>
<clus scale="   59.582">  1  9  2 -1</clus>
<clus scale="   80.672">  5  6 -1 -1</clus>
<clus scale="   83.335">  2  5  1 -1</clus>
<clus scale="   96.690">  7  8 -1 -1</clus>
<clus scale="   83.335">  2  5  1 -1</clus>
</clustering>
</event>
<event>
 9    2  0.6066854E-005  0.1960862E+03  0.7546771E-02  0.1154194E+00
         -1   -1    0    0    0  501 -0.00000000000E+00  0.00000000000E+00  0.30130439029E+03  0.30130439029E+03  0.00000000000E+00 0.  1.
          2   -1    0    0  502    0  0.00000000000E+00 -0.00000000000E+00 -0.10575798540E+04  0.10575798540E+04  0.00000000000E+00 0. -1.
         23    2    1    2    0    0  0.58454793415E+01  0.14886700389E+03  0.16033438310E+03  0.23744292313E+03  0.92067762338E+02 0.  0.
         24    2    1    2    0    0  0.22877182179E+01 -0.17422240628E+03 -0.10080625504E+04  0.10261909022E+04  0.80740211264E+02 0.  0.
        -13    1    4    4    0    0  0.19819018748E+02 -0.15324115558E+03 -0.69664658278E+03  0.71357698013E+03  0.00000000000E+00 0.  1.
         14    1    4    4    0    0 -0.17531300530E+02 -0.20981250696E+02 -0.31141596760E+03  0.31261392205E+03  0.00000000000E+00 0. -1.
        -11    1    3    3    0    0 -0.42453825179E+02  0.84937987779E+02  0.84011025280E+02  0.12678580918E+03  0.00000000000E+00 0.  1.
         11    1    3    3    0    0  0.48299304520E+02  0.63929016111E+02  0.76323357825E+02  0.11065711395E+03  0.00000000000E+00 0. -1.
         21    1    1    2  502  501 -0.81331975594E+01  0.25355402390E+02  0.91452703557E+02  0.95250419006E+02  0.00000000000E+00 0.  1.
<scales pt_clust_5="13000.00000" pt_clust_6="13000.00000" pt_clust_7="13000.00000" pt_clust_8="13000.00000" pt_clust_9="26.62791"></scales>
<clustering>
<clus scale="   26.628">  1  9  2 -1</clus>
<clus scale="   80.740">  5  6 -1 -1</clus>
<clus scale="   92.068">  7  8 -1 -1</clus>
<clus scale="  191.030">  2  5  1 -1</clus>
<clus scale="  191.030">  2  5  1 -1</clus>
</clustering>
</event>
<event>
 9    2  0.6066854E-005  0.2188394E+03  0.7546771E-02  0.1170186E+00
         -1   -1    0    0    0  501 -0.00000000000E+00  0.00000000000E+00  0.20740170028E+03  0.20740170028E+03  0.00000000000E+00 0.  1.
          2   -1    0    0  502    0  0.00000000000E+00 -0.00000000000E+00 -0.10174040781E+04  0.10174040781E+04  0.00000000000E+00 0. -1.
         23    2    1    2    0    0 -0.18588216502E+03 -0.86684360525E+02 -0.15349458330E+03  0.27157534023E+03  0.90145552780E+02 0.  0.
         24    2    1    2    0    0 -0.88080124789E+01  0.46000685164E+02 -0.73375643725E+03  0.73986038529E+03  0.82469608902E+02 0.  0.
        -11    1    4    4    0    0 -0.91328575308E+01 -0.22728182262E+02 -0.13850770342E+03  0.14065689909E+03  0.00000000000E+00 0.  1.
         12    1    4    4    0    0  0.32484505193E+00  0.68728867426E+02 -0.59524873384E+03  0.59920348620E+03  0.00000000000E+00 0. -1.
        -13    1    3    3    0    0 -0.99666671377E+02 -0.60505081852E+02 -0.13713293040E+03  0.17999930809E+03  0.00000000000E+00 0. -1.
         13    1    3    3    0    0 -0.86215493644E+02 -0.26179278673E+02 -0.16361652895E+02  0.91576032135E+02  0.00000000000E+00 0.  1.
         21    1    1    2  502  501  0.19469017750E+03  0.40683675361E+02  0.77248642725E+02  0.21337005286E+03  0.00000000000E+00 0.  1.
<scales pt_clust_5="13000.00000" pt_clust_6="13000.00000" pt_clust_7="13000.00000" pt_clust_8="13000.00000" pt_clust_9="199.41033"></scales>
<clustering>
<clus scale="   82.470">  5  6 -1 -1</clus>
<clus scale="   90.146">  7  8 -1 -1</clus>
<clus scale="   94.841">  2  5  1 -1</clus>
<clus scale="  199.410">  1  9  2 -1</clus>
<clus scale="   94.841">  2  5  1 -1</clus>
</clustering>
</event>
<event>
 9    2  0.6066854E-005  0.1371631E+03  0.7546771E-02  0.1219954E+00
          2   -1    0    0  502    0  0.00000000000E+00  0.00000000000E+00  0.12236989632E+04  0.12236989632E+04  0.00000000000E+00 0. -1.
         -1   -1    0    0    0  501 -0.00000000000E+00 -0.00000000000E+00 -0.18689561002E+03  0.18689561002E+03  0.00000000000E+00 0.  1.
         23    2    1    2    0    0 -0.67464399963E+02 -0.57554704152E+00  0.91913913242E+02  0.14478725217E+03  0.89237909132E+02 0.  0.
         24    2    1    2    0    0  0.10557386065E+03  0.31714364087E+02  0.10973782554E+04  0.11055737548E+04  0.76828710827E+02 0.  0.
        -11    1    4    4    0    0  0.32281709882E+02  0.11468939196E+02  0.10858159691E+03  0.11385784359E+03  0.00000000000E+00 0.  1.
         12    1    4    4    0    0  0.73292150771E+02  0.20245424892E+02  0.98879665851E+03  0.99171591117E+03  0.00000000000E+00 0. -1.
        -13    1    3    3    0    0 -0.53328959426E+02 -0.28230065877E+02  0.96075167406E+02  0.11345198246E+03  0.00000000000E+00 0.  1.
         13    1    3    3    0    0 -0.14135440537E+02  0.27654518835E+02 -0.41612541648E+01  0.31335269704E+02  0.00000000000E+00 0. -1.
         21    1    1    2  502  501 -0.38109460689E+02 -0.31138817046E+02 -0.15248881548E+03  0.16023356629E+03  0.00000000000E+00 0.  1.
<scales pt_clust_5="13000.00000" pt_clust_6="13000.00000" pt_clust_7="13000.00000" pt_clust_8="13000.00000" pt_clust_9="49.21338"></scales>
<clustering>
<clus scale="   49.213">  2  9  1 -1</clus>
<clus scale="   76.829">  5  6 -1 -1</clus>
<clus scale="   89.238">  7  8 -1 -1</clus>
<clus scale="  129.433">  1  5  2 -1</clus>
<clus scale="  129.433">  1  5  2 -1</clus>
</clustering>
</event>
<event>
 9    2  0.6066854E-005  0.1097934E+03  0.7546771E-02  0.1263275E+00
          2   -1    0    0  502    0  0.00000000000E+00  0.00000000000E+00  0.61825279284E+03  0.61825279284E+03  0.00000000000E+00 0. -1.
         -1   -1    0    0    0  501 -0.00000000000E+00 -0.00000000000E+00 -0.50958320501E+02  0.50958320501E+02  0.00000000000E+00 0.  1.
         23    2    1    2    0    0  0.71126348045E+01  0.29566809425E+02  0.44294101498E+02  0.10212521649E+03  0.86849332881E+02 0.  0.
         24    2    1    2    0    0 -0.70099396469E+02 -0.33777854646E+02  0.47431735641E+03  0.48736700987E+03  0.80590190908E+02 0.  0.
        -11    1    4    4    0    0 -0.18215550463E+02 -0.23526979034E+02  0.40060726661E+02  0.49901771930E+02  0.00000000000E+00 0.  1.
         12    1    4    4    0    0 -0.51883846006E+02 -0.10250875612E+02  0.43425662975E+03  0.43746523794E+03  0.00000000000E+00 0. -1.
        -11    1    3    3    0    0  0.30239721243E+02 -0.41336156073E+01 -0.11797512055E+02  0.32721687144E+02  0.00000000000E+00 0.  1.
         11    1    3    3    0    0 -0.23127086439E+02  0.33700425032E+02  0.56091613553E+02  0.69403529345E+02  0.00000000000E+00 0. -1.
         21    1    1    2  502  501  0.62986761665E+02  0.42110452215E+01  0.48683014426E+02  0.79718886975E+02  0.00000000000E+00 0.  1.
<scales pt_clust_5="13000.00000" pt_clust_6="13000.00000" pt_clust_7="13000.00000" pt_clust_8="13000.00000" pt_clust_9="63.12737"></scales>
<clustering>
<clus scale="   63.127">  2  9  1 -1</clus>
<clus scale="   80.590">  5  6 -1 -1</clus>
<clus scale="   86.849">  7  8 -1 -1</clus>
<clus scale="  104.912">  1  5  2 -1</clus>
<clus scale="  104.912">  1  5  2 -1</clus>
</clustering>
</event>
<event>
 9    2  0.6066854E-005  0.9780709E+02  0.7546771E-02  0.1290803E+00
         -1   -1    0    0    0  501 -0.00000000000E+00  0.00000000000E+00  0.21896589117E+02  0.21896589117E+02  0.00000000000E+00 0.  1.
          2   -1    0    0  502    0  0.00000000000E+00 -0.00000000000E+00 -0.53465950067E+03  0.53465950067E+03  0.00000000000E+00 0. -1.
         23    2    1    2    0    0  0.20492857305E+02 -0.74298922876E+01 -0.18304486995E+03  0.20533093943E+03  0.90444512114E+02 0.  0.
         24    2    1    2    0    0 -0.45202745237E+02  0.13955605316E+02 -0.28634411508E+03  0.30088171986E+03  0.79365042743E+02 0.  0.
        -13    1    4    4    0    0 -0.43506783499E+02  0.82112870912E+01 -0.60561808541E+02  0.75019984670E+02  0.00000000000E+00 0.  1.
         14    1    4    4    0    0 -0.16959617379E+01  0.57443182246E+01 -0.22578230654E+03  0.22586173519E+03  0.00000000000E+00 0. -1.
        -13    1    3    3    0    0  0.34732754470E+02 -0.34849336071E+02 -0.55824098322E+02  0.74412165747E+02  0.00000000000E+00 0.  1.
         13    1    3    3    0    0 -0.14239897165E+02  0.27419443783E+02 -0.12722077163E+03  0.13091877368E+03  0.00000000000E+00 0. -1.
         21    1    1    2  502  501  0.24709887932E+02 -0.65257130282E+01 -0.43373926528E+02  0.50343430501E+02  0.00000000000E+00 0. -1.
<scales pt_clust_5="13000.00000" pt_clust_6="13000.00000" pt_clust_7="13000.00000" pt_clust_8="13000.00000" pt_clust_9="25.55706"></scales>
<clustering>
<clus scale="   25.557">  1  9  2 -1</clus>
<clus scale="   79.365">  5  6 -1 -1</clus>
<clus scale="   87.663">  2  5  1 -1</clus>
<clus scale="   90.445">  7  8 -1 -1</clus>
<clus scale="   87.663">  2  5  1 -1</clus>
</clustering>
</event>
<event>
 9    2  0.6066854E-005  0.1300184E+03  0.7546771E-02  0.1230285E+00
          2   -1    0    0  502    0  0.00000000000E+00  0.00000000000E+00  0.66705043946E+03  0.66705043946E+03  0.00000000000E+00 0. -1.
         -1   -1    0    0    0  501 -0.00000000000E+00 -0.00000000000E+00 -0.89142121665E+02  0.89142121665E+02  0.00000000000E+00 0.  1.
         23    2    1    2    0    0  0.10263529369E+03  0.47905055185E+02  0.56420359703E+02  0.15588965037E+03  0.91046297452E+02 0.  0.
         24    2    1    2    0    0 -0.70263321629E+02 -0.57020950252E+02  0.54566919994E+03  0.55888097725E+03  0.80029668479E+02 0.  0.
        -11    1    4    4    0    0 -0.50384230305E+02 -0.51637279048E+02  0.20027560386E+03  0.21287389871E+03  0.00000000000E+00 0.  1.
         12    1    4    4    0    0 -0.19879091324E+02 -0.53836712037E+01  0.34539359607E+03  0.34600707854E+03  0.00000000000E+00 0. -1.
        -13    1    3    3    0    0  0.10111179991E+03  0.10353604682E+02  0.20068010139E+02  0.10360269418E+03  0.00000000000E+00 0.  1.
         13    1    3    3    0    0  0.15234937797E+01  0.37551450503E+02  0.36352349564E+02  0.52286956184E+02  0.00000000000E+00 0. -1.
         21    1    1    2  502  501 -0.32371972063E+02  0.91158950669E+01 -0.24181241846E+02  0.41421933506E+02  0.00000000000E+00 0.  1.
<scales pt_clust_5="13000.00000" pt_clust_6="13000.00000" pt_clust_7="13000.00000" pt_clust_8="13000.00000" pt_clust_9="33.63100"></scales>
<clustering>
<clus scale="   33.631">  2  9  1 -1</clus>
<clus scale="   80.030">  5  6 -1 -1</clus>
<clus scale="   91.046">  7  8 -1 -1</clus>
<clus scale="  122.557">  1  5  2 -1</clus>
<clus scale="  122.557">  1  5  2 -1</clus>
</clustering>
</event>
<event>
 9    2  0.6066854E-005  0.2357035E+03  0.7546771E-02  0.1123423E+00
         -1   -1    0    0    0  501 -0.00000000000E+00  0.00000000000E+00  0.16457594621E+03  0.16457594621E+03  0.00000000000E+00 0.  1.
          2   -1    0    0  502    0  0.00000000000E+00 -0.00000000000E+00 -0.55673854722E+03  0.55673854722E+03  0.00000000000E+00 0. -1.
         23    2    1    2    0    0 -0.22333376592E+03 -0.50848247166E+02 -0.48345609747E+02  0.25060358421E+03  0.89450227485E+02 0.  0.
         24    2    1    2    0    0  0.20287230930E+03  0.70825488210E+02 -0.36808251501E+03  0.43320654934E+03  0.77522595927E+02 0.  0.
        -11    1    4    4    0    0  0.86608868400E+02 -0.20362981058E+01 -0.10195874594E+03  0.13379397770E+03  0.00000000000E+00 0.  1.
         12    1    4    4    0    0  0.11626344090E+03  0.72861786316E+02 -0.26612376906E+03  0.29941257164E+03  0.00000000000E+00 0. -1.
        -13    1    3    3    0    0 -0.12943984690E+03 -0.58875923789E+02  0.50512970645E+01  0.14229042122E+03  0.00000000000E+00 0.  1.
         13    1    3    3    0    0 -0.93893919020E+02  0.80276766234E+01 -0.53396906811E+02  0.10831316299E+03  0.00000000000E+00 0. -1.
         21    1    1    2  502  501  0.20461456626E+02 -0.19977241044E+02  0.24265523741E+02  0.37504359872E+02  0.00000000000E+00 0.  1.
<scales pt_clust_5="13000.00000" pt_clust_6="13000.00000" pt_clust_7="13000.00000" pt_clust_8="13000.00000" pt_clust_9="28.59653"></scales>
<clustering>
<clus scale="   28.597">  1  9  2 -1</clus>
<clus scale="   77.523">  5  6 -1 -1</clus>
<clus scale="   89.450">  7  8 -1 -1</clus>
<clus scale="  231.440">  2  5  1 -1</clus>
<clus scale="  231.440">  2  5  1 -1</clus>
</clustering>
</event>
<event>
 9    2  0.6066854E-005  0.1034868E+03  0.7546771E-02  0.1277977E+00
         -1   -1    0    0    0  501 -0.00000000000E+00  0.00000000000E+00  0.96538886859E+02  0.96538886859E+02  0.00000000000E+00 0.  1.
          2   -1    0    0  502    0  0.00000000000E+00 -0.00000000000E+00 -0.21242089003E+03  0.21242089003E+03  0.00000000000E+00 0. -1.
         23    2    1    2    0    0  0.56101107913E+02  0.36160021767E+02  0.17139048843E+02  0.11406718676E+03  0.90899365322E+02 0.  0.
         24    2    1    2    0    0 -0.13942656001E+02  0.39221117189E+01 -0.95792981174E+02  0.12582854920E+03  0.80291642989E+02 0.  0.
        -13    1    4    4    0    0 -0.18226921912E+02  0.27301608339E+02 -0.65491678790E+01  0.33473722533E+02  0.00000000000E+00 0.  1.
         14    1    4    4    0    0  0.42842659108E+01 -0.23379496620E+02 -0.89243813295E+02  0.92354826663E+02  0.00000000000E+00 0. -1.
        -13    1    3    3    0    0 -0.17492740132E+02  0.16293632986E+02 -0.18200613053E+02  0.30045644422E+02  0.00000000000E+00 0. -1.
         13    1    3    3    0    0  0.73593848045E+02  0.19866388781E+02  0.35339661896E+02  0.84021542334E+02  0.00000000000E+00 0.  1.
         21    1    1    2  502  501 -0.42158451911E+02 -0.40082133486E+02 -0.37228070842E+02  0.69064040940E+02  0.00000000000E+00 0.  1.
<scales pt_clust_5="13000.00000" pt_clust_6="13000.00000" pt_clust_7="13000.00000" pt_clust_8="13000.00000" pt_clust_9="58.17141"></scales>
<clustering>
<clus scale="   58.171">  2  9  1 -1</clus>
<clus scale="   80.292">  5  6 -1 -1</clus>
<clus scale="   90.899">  7  8 -1 -1</clus>
<clus scale="   94.306">  2  5  1 -1</clus>
<clus scale="   58.171">  2  5  1 -1</clus>
</clustering>
</event>
<event>
 9    2  0.6066854E-005  0.1085764E+03  0.7546771E-02  0.1267005E+00
          2   -1    0    0  502    0  0.00000000000E+00  0.00000000000E+00  0.91370294298E+03  0.91370294298E+03  0.00000000000E+00 0. -1.
         -1   -1    0    0    0  501 -0.00000000000E+00 -0.00000000000E+00 -0.20646643773E+02  0.20646643773E+02  0.00000000000E+00 0.  1.
         23    2    1    2    0    0 -0.54372788402E+02 -0.25060257744E+02  0.35006223868E+03  0.36628086775E+03  0.89630834509E+02 0.  0.
         24    2    1    2    0    0  0.22746589841E+02  0.68484458555E+02  0.42423462329E+03  0.43772424622E+03  0.80124726015E+02 0.  0.
        -13    1    4    4    0    0  0.50730997082E+00  0.72548910496E+02  0.39005139471E+03  0.39674134180E+03  0.00000000000E+00 0.  1.
         14    1    4    4    0    0  0.22239279870E+02 -0.40644519410E+01  0.34183228582E+02  0.40982904424E+02  0.00000000000E+00 0. -1.
        -13    1    3    3    0    0 -0.19197502201E+02  0.33815745400E+02  0.14047872798E+03  0.14576118050E+03  0.00000000000E+00 0.  1.
         13    1    3    3    0    0 -0.35175286201E+02 -0.58876003145E+02  0.20958351070E+03  0.22051968725E+03  0.00000000000E+00 0. -1.
         21    1    1    2  502  501  0.31626198561E+02 -0.43424200810E+02  0.11875943724E+03  0.13034447278E+03  0.00000000000E+00 0. -1.
<scales pt_clust_5="13000.00000" pt_clust_6="13000.00000" pt_clust_7="13000.00000" pt_clust_8="13000.00000" pt_clust_9="53.72037"></scales>
<clustering>
<clus scale="   53.720">  2  9  1 -1</clus>
<clus scale="   80.125">  5  6 -1 -1</clus>
<clus scale="   89.631">  7  8 -1 -1</clus>
<clus scale="  100.872">  1  5  2 -1</clus>
<clus scale="  100.872">  1  5  2 -1</clus>
</clustering>
</event>
<event>
 9    2  0.6066854E-005  0.9657492E+02  0.7546771E-02  0.1290943E+00
          2   -1    0    0  502    0  0.00000000000E+00  0.00000000000E+00  0.39082033930E+03  0.39082033930E+03  0.00000000000E+00 0. -1.
         -1   -1    0    0    0  501 -0.00000000000E+00 -0.00000000000E+00 -0.17668827325E+03  0.17668827325E+03  0.00000000000E+00 0.  1.
         24    2    1    2    0    0  0.48890212414E+02 -0.43591708231E+02 -0.98013163093E+02  0.14319564375E+03  0.81289128134E+02 0.  0.
         23    2    1    2    0    0  0.35805939486E+02  0.25034914681E+02  0.32244832333E+03  0.33699775544E+03  0.87668430471E+02 0.  0.
        -13    1    3    3    0    0  0.66069164680E+02 -0.44196146398E+02 -0.97768370960E+02  0.12600431833E+03  0.00000000000E+00 0.  1.
         14    1    3    3    0    0 -0.17178952266E+02  0.60443816716E+00 -0.24479213382E+00  0.17191325418E+02  0.00000000000E+00 0. -1.
        -11    1    4    4    0    0  0.65112926939E+02  0.17022023680E+02  0.23336263143E+03  0.24287354795E+03  0.00000000000E+00 0. -1.
         11    1    4    4    0    0 -0.29306987453E+02  0.80128910009E+01  0.89085691894E+02  0.94124207492E+02  0.00000000000E+00 0.  1.
         21    1    1    2  502  501 -0.84696151900E+02  0.18556793549E+02 -0.10303094188E+02  0.87315213356E+02  0.00000000000E+00 0. -1.
<scales pt_clust_5="13000.00000" pt_clust_6="13000.00000" pt_clust_7="13000.00000" pt_clust_8="13000.00000" pt_clust_9="86.70521"></scales>
<clustering>
<clus scale="   81.289">  5  6 -1 -1</clus>
<clus scale="   86.705">  2  9  1 -1</clus>
<clus scale="   87.668">  7  8 -1 -1</clus>
<clus scale="   90.823">  2  5  1 -1</clus>
<clus scale="   96.575">  1  5  2 -1</clus>
</clustering>
</event>
<event>
 9    2  0.6066854E-005  0.1017119E+03  0.7546771E-02  0.1280754E+00
         -3   -1    0    0    0  501 -0.00000000000E+00  0.00000000000E+00  0.57459039143E+03  0.57459039143E+03  0.00000000000E+00 0.  1.
          4   -1    0    0  502    0  0.00000000000E+00 -0.00000000000E+00 -0.39617715500E+02  0.39617715500E+02  0.00000000000E+00 0. -1.
         24    2    1    2    0    0 -0.27243988910E+02 -0.36450666783E+02  0.34534844929E+03  0.35734934574E+03  0.79762882547E+02 0.  0.
         23    2    1    2    0    0  0.21014789586E+01  0.80845497443E+02  0.11261545351E+03  0.16448236845E+03  0.88497449076E+02 0.  0.
        -13    1    3    3    0    0 -0.49987976427E+02 -0.40627923442E+02  0.29490301283E+03  0.30185627860E+03  0.00000000000E+00 0.  1.
         14    1    3    3    0    0  0.22743987518E+02  0.41772566592E+01  0.50445436453E+02  0.55493067138E+02  0.00000000000E+00 0. -1.
        -13    1    4    4    0    0 -0.17542258010E+02  0.36418069622E+02  0.10843719860E+03  0.11572654256E+03  0.00000000000E+00 0.  1.
         13    1    4    4    0    0  0.19643736969E+02  0.44427427821E+02  0.41782549038E+01  0.48755825897E+02  0.00000000000E+00 0. -1.
         21    1    1    2  502  501  0.25142509951E+02 -0.44394830659E+02  0.77008773137E+02  0.92376392741E+02  0.00000000000E+00 0.  1.
<scales pt_clust_5="13000.00000" pt_clust_6="13000.00000" pt_clust_7="13000.00000" pt_clust_8="13000.00000" pt_clust_9="51.02006"></scales>
<clustering>
<clus scale="   51.020">  2  9  1 -1</clus>
<clus scale="   79.763">  5  6 -1 -1</clus>
<clus scale="   88.497">  7  8 -1 -1</clus>
<clus scale="   94.211">  1  5  2 -1</clus>
<clus scale="   51.020">  2  5  1 -1</clus>
</clustering>
</event>
<event>
 9    2  0.9931574E-005  0.1321273E+03  0.7546771E-02  0.1226527E+00
          2   -1    0    0  502    0  0.00000000000E+00  0.00000000000E+00  0.61115940876E+03  0.61115940876E+03  0.00000000000E+00 0. -1.
         -1   -1    0    0    0  501 -0.00000000000E+00 -0.00000000000E+00 -0.17281869338E+03  0.17281869338E+03  0.00000000000E+00 0.  1.
         23    2    1    2    0    0 -0.77963192175E+02 -0.19437796155E+02 -0.12435854079E+03  0.17402185576E+03  0.91446554668E+02 0.  0.
         24    2    1    2    0    0  0.83265414605E+02  0.48214324054E+02  0.56642362956E+03  0.58045924522E+03  0.82701009201E+02 0.  0.
        -13    1    4    4    0    0 -0.78984923851E+01  0.29823215895E+02  0.92883919378E+02  0.97873555505E+02  0.00000000000E+00 0.  1.
         14    1    4    4    0    0  0.91163906990E+02  0.18391108159E+02  0.47353971018E+03  0.48258568971E+03  0.00000000000E+00 0. -1.
        -11    1    3    3    0    0 -0.75708303568E+02 -0.49784703949E+02 -0.10078836493E+03  0.13553065513E+03  0.00000000000E+00 0.  1.
         11    1    3    3    0    0 -0.22548886061E+01  0.30346907793E+02 -0.23570175862E+02  0.38491200623E+02  0.00000000000E+00 0. -1.
         21    1    1    2  502  501 -0.53022224300E+01 -0.28776527898E+02 -0.37243733845E+01  0.29497001164E+02  0.00000000000E+00 0.  1.
<scales pt_clust_5="13000.00000" pt_clust_6="13000.00000" pt_clust_7="13000.00000" pt_clust_8="13000.00000" pt_clust_9="29.26093"></scales>
<clustering>
<clus scale="   29.261">  2  9  1 -1</clus>
<clus scale="   82.701">  5  6 -1 -1</clus>
<clus scale="   91.447">  7  8 -1 -1</clus>
<clus scale="  126.232">  1  5  2 -1</clus>
<clus scale="  126.232">  1  5  2 -1</clus>
</clustering>
</event>
<event>
 9    2  0.6066854E-005  0.9352203E+02  0.7546771E-02  0.1300584E+00
          2   -1    0    0  502    0  0.00000000000E+00  0.00000000000E+00  0.20756888803E+04  0.20756888803E+04  0.00000000000E+00 0. -1.
         -1   -1    0    0    0  501 -0.00000000000E+00 -0.00000000000E+00 -0.18517533450E+02  0.18517533450E+02  0.00000000000E+00 0.  1.
         23    2    1    2    0    0 -0.13975034884E+02  0.39706339360E+02  0.15255446193E+03  0.18247713404E+03  0.90846824973E+02 0.  0.
         24    2    1    2    0    0  0.14003201470E+02 -0.15832083471E+02  0.18528353759E+04  0.18547090591E+04  0.80622695323E+02 0.  0.
        -13    1    4    4    0    0  0.13351188258E+02 -0.16005379187E+02  0.11499978353E+03  0.11687333573E+03  0.00000000000E+00 0.  1.
         14    1    4    4    0    0  0.65201321265E+00  0.17329571513E+00  0.17378355924E+04  0.17378357233E+04  0.00000000000E+00 0. -1.
        -13    1    3    3    0    0 -0.40061099072E+02  0.45777828578E+01  0.24565380042E+02  0.47215523415E+02  0.00000000000E+00 0.  1.
         13    1    3    3    0    0  0.26086064188E+02  0.35128556503E+02  0.12798908189E+03  0.13526161062E+03  0.00000000000E+00 0. -1.
         21    1    1    2  502  501 -0.28166586649E-01 -0.23874255889E+02  0.51781508985E+02  0.57020220627E+02  0.00000000000E+00 0. -1.
<scales pt_clust_5="13000.00000" pt_clust_6="13000.00000" pt_clust_7="13000.00000" pt_clust_8="13000.00000" pt_clust_9="23.87427"></scales>
<clustering>
<clus scale="   23.874">  2  9  1 -1</clus>
<clus scale="   80.623">  5  6 -1 -1</clus>
<clus scale="   83.626">  1  5  2 -1</clus>
<clus scale="   90.847">  7  8 -1 -1</clus>
<clus scale="   83.626">  1  5  2 -1</clus>
</clustering>
</event>
<event>
 9    2  0.6066854E-005  0.1284823E+03  0.7546771E-02  0.1232362E+00
         -1   -1    0    0    0  501 -0.00000000000E+00  0.00000000000E+00  0.58206061272E+02  0.58206061272E+02  0.00000000000E+00 0.  1.
          2   -1    0    0  502    0  0.00000000000E+00 -0.00000000000E+00 -0.64608863195E+03  0.64608863195E+03  0.00000000000E+00 0. -1.
         23    2    1    2    0    0  0.90961326872E+02  0.18966315708E+02 -0.69599979061E+02  0.14800179757E+03  0.91797009108E+02 0.  0.
         24    2    1    2    0    0 -0.58934743454E+02 -0.77783250912E+02 -0.40613045833E+03  0.42566657781E+03  0.82015536162E+02 0.  0.
        -11    1    4    4    0    0 -0.14002800969E+02 -0.18875814082E+02 -0.15688970082E+02  0.28258070962E+02  0.00000000000E+00 0.  1.
         12    1    4    4    0    0 -0.44931942485E+02 -0.58907436830E+02 -0.39044148825E+03  0.39740850685E+03  0.00000000000E+00 0. -1.
        -11    1    3    3    0    0  0.87578639113E+02 -0.49291403249E+01 -0.15925406877E+02  0.89151180797E+02  0.00000000000E+00 0.  1.
         11    1    3    3    0    0  0.33826877585E+01  0.23895456033E+02 -0.53674572185E+02  0.58850616774E+02  0.00000000000E+00 0. -1.
         21    1    1    2  502  501 -0.32026583418E+02  0.58816935204E+02 -0.11215213328E+03  0.13062631784E+03  0.00000000000E+00 0.  1.
<scales pt_clust_5="13000.00000" pt_clust_6="13000.00000" pt_clust_7="13000.00000" pt_clust_8="13000.00000" pt_clust_9="66.97114"></scales>
<clustering>
<clus scale="   66.971">  2  9  1 -1</clus>
<clus scale="   82.016">  5  6 -1 -1</clus>
<clus scale="   91.797">  7  8 -1 -1</clus>
<clus scale="  121.686">  2  5  1 -1</clus>
<clus scale="   66.971">  2  5  1 -1</clus>
</clustering>
</event>
<event>
 9    2  0.6066854E-005  0.1110080E+03  0.7546771E-02  0.1261981E+00
         -1   -1    0    0    0  501 -0.00000000000E+00  0.00000000000E+00  0.50276393758E+02  0.50276393758E+02  0.00000000000E+00 0.  1.
          2   -1    0    0  502    0  0.00000000000E+00 -0.00000000000E+00 -0.55863688464E+03  0.55863688464E+03  0.00000000000E+00 0. -1.
         24    2    1    2    0    0  0.57430377558E+01  0.54200339065E+02 -0.13067271194E+03  0.16287192281E+03  0.80506188303E+02 0.  0.
         23    2    1    2    0    0 -0.18877468989E+02 -0.69504074460E+02 -0.39991155673E+03  0.41603112567E+03  0.89249476865E+02 0.  0.
        -11    1    3    3    0    0 -0.14922334668E+02  0.39544834264E+02 -0.15616305559E+02  0.45059283042E+02  0.00000000000E+00 0.  1.
         12    1    3    3    0    0  0.20665372424E+02  0.14655504801E+02 -0.11505640639E+03  0.11781263977E+03  0.00000000000E+00 0. -1.
        -13    1    4    4    0    0  0.34651436989E+02 -0.41827862116E+02 -0.19861486380E+03  0.20590812577E+03  0.00000000000E+00 0.  1.
         13    1    4    4    0    0 -0.53528905979E+02 -0.27676212344E+02 -0.20129669292E+03  0.21012299990E+03  0.00000000000E+00 0. -1.
         21    1    1    2  502  501  0.13134431234E+02  0.15303735395E+02  0.22223777786E+02  0.30010229922E+02  0.00000000000E+00 0.  1.
<scales pt_clust_5="13000.00000" pt_clust_6="13000.00000" pt_clust_7="13000.00000" pt_clust_8="13000.00000" pt_clust_9="20.16724"></scales>
<clustering>
<clus scale="   20.167">  1  9  2 -1</clus>
<clus scale="   80.506">  5  6 -1 -1</clus>
<clus scale="   89.249">  7  8 -1 -1</clus>
<clus scale="  104.108">  1  5  2 -1</clus>
<clus scale="  111.008">  2  5  1 -1</clus>
</clustering>
</event>
<event>
 9    2  0.6066854E-005  0.9586643E+02  0.7546771E-02  0.1295697E+00
          2   -1    0    0  502    0  0.00000000000E+00  0.00000000000E+00  0.28001503418E+03  0.28001503418E+03  0.00000000000E+00 0. -1.
         -1   -1    0    0    0  501 -0.00000000000E+00 -0.00000000000E+00 -0.94460249895E+02  0.94460249895E+02  0.00000000000E+00 0.  1.
         23    2    1    2    0    0 -0.12812858582E+02 -0.32411968836E+02  0.17095977099E+02  0.99515426083E+02  0.91631558573E+02 0.  0.
         24    2    1    2    0    0  0.24350374790E+02  0.13989907146E+02  0.21085058742E+03  0.22732006717E+03  0.80173464856E+02 0.  0.
        -13    1    4    4    0    0  0.35515995719E+02  0.15077298866E+02  0.21250581728E+03  0.21598016870E+03  0.00000000000E+00 0.  1.
         14    1    4    4    0    0 -0.11165620928E+02 -0.10873917203E+01 -0.16552298568E+01  0.11339898472E+02  0.00000000000E+00 0. -1.
        -11    1    3    3    0    0 -0.10414485492E+01 -0.64017359985E+02  0.75843282225E+01  0.64473475392E+02  0.00000000000E+00 0. -1.
         11    1    3    3    0    0 -0.11771410033E+02  0.31605391149E+02  0.95116488767E+01  0.35041950690E+02  0.00000000000E+00 0.  1.
         21    1    1    2  502  501 -0.11537516208E+02  0.18422061690E+02 -0.42391780242E+02  0.47639790819E+02  0.00000000000E+00 0.  1.
<scales pt_clust_5="13000.00000" pt_clust_6="13000.00000" pt_clust_7="13000.00000" pt_clust_8="13000.00000" pt_clust_9="21.73676"></scales>
<clustering>
<clus scale="   21.737">  2  9  1 -1</clus>
<clus scale="   80.173">  5  6 -1 -1</clus>
<clus scale="   84.981">  1  5  2 -1</clus>
<clus scale="   91.632">  7  8 -1 -1</clus>
<clus scale="   84.981">  1  5  2 -1</clus>
</clustering>
</event>
<event>
 9    2  0.6066854E-005  0.1166038E+03  0.7546771E-02  0.1253012E+00
          2   -1    0    0  502    0  0.00000000000E+00  0.00000000000E+00  0.67004765085E+03  0.67004765085E+03  0.00000000000E+00 0. -1.
         -1   -1    0    0    0  501 -0.00000000000E+00 -0.00000000000E+00 -0.42344484642E+02  0.42344484642E+02  0.00000000000E+00 0.  1.
         23    2    1    2    0    0 -0.11929098831E+01 -0.64821569691E+02  0.60810141384E+02  0.12739705430E+03  0.91262682507E+02 0.  0.
         24    2    1    2    0    0 -0.23852674126E+02  0.70505367774E+02  0.52306619014E+03  0.53419765726E+03  0.78923639120E+02 0.  0.
        -13    1    4    4    0    0  0.28923695607E+02  0.30374866356E+02  0.18561176978E+03  0.19029172803E+03  0.00000000000E+00 0.  1.
         14    1    4    4    0    0 -0.52776369733E+02  0.40130501418E+02  0.33745442035E+03  0.34390592923E+03  0.00000000000E+00 0. -1.
        -13    1    3    3    0    0 -0.25392576599E+02 -0.47152789506E+02 -0.62777067152E+01  0.53921963114E+02  0.00000000000E+00 0.  1.
         13    1    3    3    0    0  0.24199666716E+02 -0.17668780186E+02  0.67087848099E+02  0.73475091187E+02  0.00000000000E+00 0. -1.
         21    1    1    2  502  501  0.25045584009E+02 -0.56837980825E+01  0.43826834687E+02  0.50797423927E+02  0.00000000000E+00 0.  1.
<scales pt_clust_5="13000.00000" pt_clust_6="13000.00000" pt_clust_7="13000.00000" pt_clust_8="13000.00000" pt_clust_9="25.68242"></scales>
<clustering>
<clus scale="   25.682">  2  9  1 -1</clus>
<clus scale="   78.924">  5  6 -1 -1</clus>
<clus scale="   91.263">  7  8 -1 -1</clus>
<clus scale="  107.222">  1  5  2 -1</clus>
<clus scale="  107.222">  1  5  2 -1</clus>
</clustering>
</event>
<event>
 9    2  0.6066854E-005  0.8983255E+02  0.7546771E-02  0.1306728E+00
         -1   -1    0    0    0  501 -0.00000000000E+00  0.00000000000E+00  0.65221067746E+03  0.65221067746E+03  0.00000000000E+00 0.  1.
          2   -1    0    0  502    0  0.00000000000E+00 -0.00000000000E+00 -0.16223078841E+03  0.16223078841E+03  0.00000000000E+00 0. -1.
         23    2    1    2    0    0  0.48758618542E+02  0.76746111548E+01  0.84100568100E+02  0.13034301116E+03  0.86487527807E+02 0.  0.
         24    2    1    2    0    0  0.33018101592E+02  0.79277742026E+01 -0.12172860061E+03  0.14996271795E+03  0.80733635680E+02 0.  0.
        -11    1    4    4    0    0  0.26955185988E+02 -0.34509427633E+02 -0.50618573133E+02  0.66930729813E+02  0.00000000000E+00 0.  1.
         12    1    4    4    0    0  0.60629156037E+01  0.42437201836E+02 -0.71110027480E+02  0.83031988134E+02  0.00000000000E+00 0. -1.
        -11    1    3    3    0    0 -0.12684080003E+02 -0.20636914308E+02  0.25091814722E+01  0.24352907615E+02  0.00000000000E+00 0.  1.
         11    1    3    3    0    0  0.61442698545E+02  0.28311525462E+02  0.81591386628E+02  0.10599010355E+03  0.00000000000E+00 0. -1.
         21    1    1    2  502  501 -0.81776720133E+02 -0.15602385357E+02  0.52760792157E+03  0.53413573676E+03  0.00000000000E+00 0.  1.
<scales pt_clust_5="13000.00000" pt_clust_6="13000.00000" pt_clust_7="13000.00000" pt_clust_8="13000.00000" pt_clust_9="83.25183"></scales>
<clustering>
<clus scale="   80.734">  5  6 -1 -1</clus>
<clus scale="   83.252">  1  9  2 -1</clus>
<clus scale="   84.307">  2  5  1 -1</clus>
<clus scale="   86.488">  7  8 -1 -1</clus>
<clus scale="   84.307">  2  5  1 -1</clus>
</clustering>
</event>
<event>
 9    2  0.6066854E-005  0.1003642E+03  0.7546771E-02  0.1284562E+00
         -1   -1    0    0    0  501 -0.00000000000E+00  0.00000000000E+00  0.17044285213E+03  0.17044285213E+03  0.00000000000E+00 0.  1.
          2   -1    0    0  502    0  0.00000000000E+00 -0.00000000000E+00 -0.19062249726E+03  0.19062249726E+03  0.00000000000E+00 0. -1.
         23    2    1    2    0    0 -0.45723207445E+02  0.23957624535E+02  0.33945682367E+02  0.11088773318E+03  0.92082574603E+02 0.  0.
         24    2    1    2    0    0  0.28019741257E+02  0.35504666007E+02 -0.12485782082E+03  0.15609115425E+03  0.82032224203E+02 0.  0.
        -11    1    4    4    0    0 -0.23553631662E+02  0.28438038813E+02 -0.28775607846E+02  0.46813793084E+02  0.00000000000E+00 0.  1.
         12    1    4    4    0    0  0.51573372919E+02  0.70666271942E+01 -0.96082212974E+02  0.10927736117E+03  0.00000000000E+00 0. -1.
        -11    1    3    3    0    0  0.25846834664E+02  0.97217349860E+01  0.25215765423E+02  0.37395264662E+02  0.00000000000E+00 0. -1.
         11    1    3    3    0    0 -0.71570042109E+02  0.14235889549E+02  0.87299169443E+01  0.73492468516E+02  0.00000000000E+00 0.  1.
         21    1    1    2  502  501  0.17703466188E+02 -0.59462290542E+02  0.70732493327E+02  0.94086461958E+02  0.00000000000E+00 0.  1.
<scales pt_clust_5="13000.00000" pt_clust_6="13000.00000" pt_clust_7="13000.00000" pt_clust_8="13000.00000" pt_clust_9="62.04173"></scales>
<clustering>
<clus scale="   62.042">  1  9  2 -1</clus>
<clus scale="   82.032">  5  6 -1 -1</clus>
<clus scale="   91.231">  2  5  1 -1</clus>
<clus scale="   92.083">  7  8 -1 -1</clus>
<clus scale="   91.231">  2  5  1 -1</clus>
</clustering>
</event>
<event>
 9    2  0.6066854E-005  0.1312136E+03  0.7546771E-02  0.1227865E+00
         -1   -1    0    0    0  501 -0.00000000000E+00  0.00000000000E+00  0.29272062455E+03  0.29272062455E+03  0.00000000000E+00 0.  1.
          2   -1    0    0  502    0  0.00000000000E+00 -0.00000000000E+00 -0.20755270141E+03  0.20755270141E+03  0.00000000000E+00 0. -1.
         23    2    1    2    0    0 -0.71256645998E+02 -0.86552119006E+02  0.18406722911E+03  0.23390443303E+03  0.90894224542E+02 0.  0.
         24    2    1    2    0    0  0.63241074156E+02  0.68015130113E+02 -0.15975313796E+03  0.20225135853E+03  0.82213475524E+02 0.  0.
        -11    1    4    4    0    0  0.40254132789E+02  0.52751029638E+02 -0.36065919805E+02  0.75523618199E+02  0.00000000000E+00 0.  1.
         12    1    4    4    0    0  0.22986941366E+02  0.15264100475E+02 -0.12368721815E+03  0.12672774034E+03  0.00000000000E+00 0. -1.
        -11    1    3    3    0    0 -0.91075429250E+02 -0.53099886961E+02  0.13623058681E+03  0.17225883022E+03  0.00000000000E+00 0.  1.
         11    1    3    3    0    0  0.19818783252E+02 -0.33452232045E+02  0.47836642306E+02  0.61645602807E+02  0.00000000000E+00 0. -1.
         21    1    1    2  502  501  0.80155718420E+01  0.18536988893E+02  0.60853831983E+02  0.64117534390E+02  0.00000000000E+00 0.  1.
<scales pt_clust_5="13000.00000" pt_clust_6="13000.00000" pt_clust_7="13000.00000" pt_clust_8="13000.00000" pt_clust_9="20.19578"></scales>
<clustering>
<clus scale="   20.196">  1  9  2 -1</clus>
<clus scale="   82.213">  5  6 -1 -1</clus>
<clus scale="   90.894">  7  8 -1 -1</clus>
<clus scale="  125.357">  2  5  1 -1</clus>
<clus scale="  125.357">  2  5  1 -1</clus>
</clustering>
</event>
<event>
 9    2  0.6066854E-005  0.9408696E+02  0.7546771E-02  0.1298350E+00
         -1   -1    0    0    0  501 -0.00000000000E+00  0.00000000000E+00  0.25907174602E+02  0.25907174602E+02  0.00000000000E+00 0.  1.
          2   -1    0    0  502    0  0.00000000000E+00 -0.00000000000E+00 -0.83879193132E+03  0.83879193132E+03  0.00000000000E+00 0. -1.
         23    2    1    2    0    0 -0.77929355614E+00 -0.47610567847E+02 -0.13671089296E+03  0.17020525895E+03  0.89513063030E+02 0.  0.
         24    2    1    2    0    0 -0.12216134614E+02  0.23688913676E+02 -0.65373323170E+03  0.65921341813E+03  0.80528217651E+02 0.  0.
        -11    1    4    4    0    0  0.26680310407E+02  0.63989426586E+00 -0.95700313980E+02  0.99351892402E+02  0.00000000000E+00 0.  1.
         12    1    4    4    0    0 -0.38896445021E+02  0.23049019410E+02 -0.55803291772E+03  0.55986152573E+03  0.00000000000E+00 0. -1.
        -13    1    3    3    0    0  0.40204598373E+02 -0.29579029832E+01 -0.46740161099E+02  0.61723590141E+02  0.00000000000E+00 0.  1.
         13    1    3    3    0    0 -0.40983891929E+02 -0.44652664864E+02 -0.89970731859E+02  0.10848166881E+03  0.00000000000E+00 0. -1.
         21    1    1    2  502  501  0.12995428170E+02  0.23921654171E+02 -0.22440632055E+02  0.35280428833E+02  0.00000000000E+00 0.  1.
<scales pt_clust_5="13000.00000" pt_clust_6="13000.00000" pt_clust_7="13000.00000" pt_clust_8="13000.00000" pt_clust_9="27.22364"></scales>
<clustering>
<clus scale="   27.224">  1  9  2 -1</clus>
<clus scale="   80.528">  5  6 -1 -1</clus>
<clus scale="   85.584">  2  5  1 -1</clus>
<clus scale="   89.513">  7  8 -1 -1</clus>
<clus scale="   85.584">  2  5  1 -1</clus>
</clustering>
</event>
<event>
 9    2  0.6066854E-005  0.9068497E+02  0.7546771E-02  0.1305021E+00
          2   -1    0    0  502    0  0.00000000000E+00  0.00000000000E+00  0.18939832178E+03  0.18939832178E+03  0.00000000000E+00 0. -1.
         -1   -1    0    0    0  501 -0.00000000000E+00 -0.00000000000E+00 -0.17877992700E+03  0.17877992700E+03  0.00000000000E+00 0.  1.
         23    2    1    2    0    0 -0.51099367552E+01 -0.76446173253E+01 -0.12633378606E+03  0.15545925442E+03  0.90126592391E+02 0.  0.
         24    2    1    2    0    0 -0.55067400222E+01 -0.10071876100E+02  0.16044179149E+03  0.18144041106E+03  0.83948123482E+02 0.  0.
        -11    1    4    4    0    0  0.14301053230E+02  0.33587654015E+02  0.62112020821E+02  0.72045497820E+02  0.00000000000E+00 0.  1.
         12    1    4    4    0    0 -0.19807793252E+02 -0.43659530115E+02  0.98329770668E+02  0.10939491324E+03  0.00000000000E+00 0. -1.
        -11    1    3    3    0    0 -0.39466817408E+02 -0.17292691275E+02 -0.29395078589E+02  0.52160689155E+02  0.00000000000E+00 0. -1.
         11    1    3    3    0    0  0.34356880653E+02  0.96480739497E+01 -0.96938707472E+02  0.10329856526E+03  0.00000000000E+00 0.  1.
         21    1    1    2  502  501  0.10616676777E+02  0.17716493425E+02 -0.23489610650E+02  0.31278583305E+02  0.00000000000E+00 0.  1.
<scales pt_clust_5="13000.00000" pt_clust_6="13000.00000" pt_clust_7="13000.00000" pt_clust_8="13000.00000" pt_clust_9="20.65401"></scales>
<clustering>
<clus scale="   20.654">  2  9  1 -1</clus>
<clus scale="   83.948">  5  6 -1 -1</clus>
<clus scale="   84.547">  1  5  2 -1</clus>
<clus scale="   90.127">  7  8 -1 -1</clus>
<clus scale="   84.547">  1  5  2 -1</clus>
</clustering>
</event>
<event>
 9    2  0.6066854E-005  0.1613749E+03  0.7546771E-02  0.1198664E+00
         -1   -1    0    0    0  501 -0.00000000000E+00  0.00000000000E+00  0.28979229501E+03  0.28979229501E+03  0.00000000000E+00 0.  1.
          2   -1    0    0  502    0  0.00000000000E+00 -0.00000000000E+00 -0.17402720602E+03  0.17402720602E+03  0.00000000000E+00 0. -1.
         23    2    1    2    0    0 -0.82525132142E+02 -0.98840565759E+02  0.98326273303E+02  0.18906719976E+03  0.97460223311E+02 0.  0.
         24    2    1    2    0    0 -0.62748623135E+02  0.72059886623E+02 -0.46837380699E+01  0.12538337502E+03  0.81049591999E+02 0.  0.
        -11    1    4    4    0    0 -0.28151921715E+02 -0.13088581939E+02  0.93187892628E+01  0.32414217664E+02  0.00000000000E+00 0.  1.
         12    1    4    4    0    0 -0.34596701420E+02  0.85148468562E+02 -0.14002527333E+02  0.92969157355E+02  0.00000000000E+00 0. -1.
        -11    1    3    3    0    0 -0.78031707606E+01 -0.84744135550E+02  0.45747306118E+02  0.96619221696E+02  0.00000000000E+00 0.  1.
         11    1    3    3    0    0 -0.74721961381E+02 -0.14096430208E+02  0.52578967185E+02  0.92447978061E+02  0.00000000000E+00 0. -1.
         21    1    1    2  502  501  0.14527375528E+03  0.26780679136E+02  0.22122553753E+02  0.14936892626E+03  0.00000000000E+00 0.  1.
<scales pt_clust_5="13000.00000" pt_clust_6="13000.00000" pt_clust_7="13000.00000" pt_clust_8="13000.00000" pt_clust_9="128.62098"></scales>
<clustering>
<clus scale="   81.050">  5  6 -1 -1</clus>
<clus scale="   97.460">  7  8 -1 -1</clus>
<clus scale="  125.296">  2  5  1 -1</clus>
<clus scale="  128.621">  2  9  1 -1</clus>
<clus scale="  125.296">  2  5  1 -1</clus>
</clustering>
</event>
<event>
 9    2  0.6066854E-005  0.1212266E+03  0.7546771E-02  0.1243991E+00
         -1   -1    0    0    0  501 -0.00000000000E+00  0.00000000000E+00  0.22280268002E+02  0.22280268002E+02  0.00000000000E+00 0.  1.
          2   -1    0    0  502    0  0.00000000000E+00 -0.00000000000E+00 -0.12623352033E+04  0.12623352033E+04  0.00000000000E+00 0. -1.
         23    2    1    2    0    0 -0.99640487610E+01  0.39852895182E+02 -0.17407933012E+03  0.20058518398E+03  0.90792440952E+02 0.  0.
         24    2    1    2    0    0  0.55799376640E+02 -0.75621343133E+02 -0.89152681175E+03  0.90014814931E+03  0.81329433026E+02 0.  0.
        -11    1    4    4    0    0  0.26426090288E+02  0.28436617093E+00 -0.73956400633E+02  0.78536413890E+02  0.00000000000E+00 0.  1.
         12    1    4    4    0    0  0.29373286353E+02 -0.75905709304E+02 -0.81757041112E+03  0.82161173542E+03  0.00000000000E+00 0. -1.
        -11    1    3    3    0    0 -0.43494948380E+02  0.48352192684E+02 -0.11578907025E+03  0.13280381719E+03  0.00000000000E+00 0.  1.
         11    1    3    3    0    0  0.33530899619E+02 -0.84992975018E+01 -0.58290259870E+02  0.67781366783E+02  0.00000000000E+00 0. -1.
         21    1    1    2  502  501 -0.45835327879E+02  0.35768447951E+02 -0.17444879344E+03  0.18388213802E+03  0.00000000000E+00 0.  1.
<scales pt_clust_5="13000.00000" pt_clust_6="13000.00000" pt_clust_7="13000.00000" pt_clust_8="13000.00000" pt_clust_9="58.14000"></scales>
<clustering>
<clus scale="   58.140">  1  9  2 -1</clus>
<clus scale="   81.329">  5  6 -1 -1</clus>
<clus scale="   90.792">  7  8 -1 -1</clus>
<clus scale="  114.311">  2  5  1 -1</clus>
<clus scale="  114.311">  2  5  1 -1</clus>
</clustering>
</event>
<event>
 9    2  0.6066854E-005  0.1168644E+03  0.7546771E-02  0.1257206E+00
         -1   -1    0    0    0  501 -0.00000000000E+00  0.00000000000E+00  0.11301572401E+02  0.11301572401E+02  0.00000000000E+00 0.  1.
          2   -1    0    0  502    0  0.00000000000E+00 -0.00000000000E+00 -0.25852371994E+04  0.25852371994E+04  0.00000000000E+00 0. -1.
         23    2    1    2    0    0 -0.71587561176E+02  0.25426891314E+02 -0.66594423505E+03  0.67814434333E+03  0.10308598585E+03 0.  0.
         24    2    1    2    0    0  0.46926105245E+02 -0.19648302986E+02 -0.18716511850E+04  0.18740978131E+04  0.81094633970E+02 0.  0.
        -11    1    4    4    0    0  0.18545290713E+02 -0.19201629034E+02 -0.16002877650E+03  0.16224006803E+03  0.00000000000E+00 0.  1.
         12    1    4    4    0    0  0.28380814532E+02 -0.44667395224E+00 -0.17116224085E+04  0.17118577451E+04  0.00000000000E+00 0. -1.
        -11    1    3    3    0    0 -0.83725801377E+01  0.56404957891E+02 -0.33189713026E+03  0.33676003986E+03  0.00000000000E+00 0.  1.
         11    1    3    3    0    0 -0.63214981038E+02 -0.30978066577E+02 -0.33404710479E+03  0.34138430346E+03  0.00000000000E+00 0. -1.
         21    1    1    2  502  501  0.24661455931E+02 -0.57785883279E+01 -0.36340207024E+02  0.44296615427E+02  0.00000000000E+00 0.  1.
<scales pt_clust_5="13000.00000" pt_clust_6="13000.00000" pt_clust_7="13000.00000" pt_clust_8="13000.00000" pt_clust_9="25.32942"></scales>
<clustering>
<clus scale="   25.329">  1  9  2 -1</clus>
<clus scale="   81.095">  5  6 -1 -1</clus>
<clus scale="   98.015">  2  5  1 -1</clus>
<clus scale="  103.086">  7  8 -1 -1</clus>
<clus scale="   98.015">  2  5  1 -1</clus>
</clustering>
</event>
<event>
 9    2  0.6066854E-005  0.9494399E+02  0.7546771E-02  0.1301149E+00
          2   -1    0    0  502    0  0.00000000000E+00  0.00000000000E+00  0.27738004611E+03  0.27738004611E+03  0.00000000000E+00 0. -1.
         -1   -1    0    0    0  501 -0.00000000000E+00 -0.00000000000E+00 -0.17034617299E+03  0.17034617299E+03  0.00000000000E+00 0.  1.
         23    2    1    2    0    0  0.15181386165E+01  0.27080826458E+02 -0.14122637802E+03  0.17030897813E+03  0.91239148808E+02 0.  0.
         24    2    1    2    0    0  0.17087892818E+02 -0.12347683759E+02  0.24012162353E+03  0.25232765830E+03  0.74608254776E+02 0.  0.
        -11    1    4    4    0    0 -0.20811680156E+02 -0.12418704117E+01  0.20697666080E+02  0.29377910991E+02  0.00000000000E+00 0.  1.
         12    1    4    4    0    0  0.37899572973E+02 -0.11105813347E+02  0.21942395745E+03  0.22294974731E+03  0.00000000000E+00 0. -1.
        -13    1    3    3    0    0  0.39916484156E+02  0.25638671329E+02 -0.11322822659E+03  0.12276521686E+03  0.00000000000E+00 0. -1.
         13    1    3    3    0    0 -0.38398345539E+02  0.14421551289E+01 -0.27998151433E+02  0.47543761265E+02  0.00000000000E+00 0.  1.
         21    1    1    2  502  501 -0.18606031434E+02 -0.14733142699E+02  0.81386276090E+01  0.25089582677E+02  0.00000000000E+00 0. -1.
<scales pt_clust_5="13000.00000" pt_clust_6="13000.00000" pt_clust_7="13000.00000" pt_clust_8="13000.00000" pt_clust_9="23.73289"></scales>
<clustering>
<clus scale="   23.733">  1  9  2 -1</clus>
<clus scale="   74.608">  5  6 -1 -1</clus>
<clus scale="   79.096">  1  5  2 -1</clus>
<clus scale="   91.239">  7  8 -1 -1</clus>
<clus scale="   23.733">  1  5  2 -1</clus>
</clustering>
</event>
<event>
 9    2  0.6066854E-005  0.1202760E+03  0.7546771E-02  0.1244584E+00
          2   -1    0    0  502    0  0.00000000000E+00  0.00000000000E+00  0.15023237007E+03  0.15023237007E+03  0.00000000000E+00 0. -1.
         -1   -1    0    0    0  501 -0.00000000000E+00 -0.00000000000E+00 -0.20953389791E+03  0.20953389791E+03  0.00000000000E+00 0.  1.
         23    2    1    2    0    0 -0.85449011311E+02 -0.92415020620E+02 -0.91716868446E+02  0.17165461289E+03  0.72189006087E+02 0.  0.
         24    2    1    2    0    0  0.49186176276E+02  0.65143294617E+02  0.66047714607E+02  0.13163266054E+03  0.79384683323E+02 0.  0.
        -11    1    4    4    0    0 -0.10755106888E+02  0.23893645578E+02 -0.84154996602E+01  0.27520887662E+02  0.00000000000E+00 0.  1.
         12    1    4    4    0    0  0.59941283164E+02  0.41249649039E+02  0.74463214267E+02  0.10411177288E+03  0.00000000000E+00 0. -1.
        -13    1    3    3    0    0 -0.63893482682E+02 -0.92771262571E+02 -0.97883438395E+02  0.14923153755E+03  0.00000000000E+00 0.  1.
         13    1    3    3    0    0 -0.21555528629E+02  0.35624195123E+00  0.61665699490E+01  0.22423075341E+02  0.00000000000E+00 0. -1.
         21    1    1    2  502  501  0.36262835035E+02  0.27271726003E+02 -0.33632374007E+02  0.56478994550E+02  0.00000000000E+00 0.  1.
<scales pt_clust_5="13000.00000" pt_clust_6="13000.00000" pt_clust_7="13000.00000" pt_clust_8="13000.00000" pt_clust_9="45.37334"></scales>
<clustering>
<clus scale="   45.373">  2  9  1 -1</clus>
<clus scale="   72.189">  7  8 -1 -1</clus>
<clus scale="   79.385">  5  6 -1 -1</clus>
<clus scale="  115.653">  2  7  1 -1</clus>
<clus scale="  120.276">  1  5  2 -1</clus>
</clustering>
</event>
<event>
 9    2  0.6066854E-005  0.4092042E+03  0.7546771E-02  0.1040763E+00
          2   -1    0    0  502    0  0.00000000000E+00  0.00000000000E+00  0.23517905606E+03  0.23517905606E+03  0.00000000000E+00 0. -1.
         -1   -1    0    0    0  501 -0.00000000000E+00 -0.00000000000E+00 -0.16590276913E+04  0.16590276913E+04  0.00000000000E+00 0.  1.
         24    2    1    2    0    0  0.71293304322E+02 -0.43030823474E+03 -0.11844055174E+04  0.12649031480E+04  0.83160279095E+02 0.  0.
         23    2    1    2    0    0 -0.91896279484E+02  0.38201270476E+03 -0.19946107073E+02  0.40361381551E+03  0.90153380982E+02 0.  0.
        -13    1    3    3    0    0  0.61849982409E+02 -0.23404958127E+03 -0.75063499533E+03  0.78870623367E+03  0.00000000000E+00 0.  1.
         14    1    3    3    0    0  0.94433219130E+01 -0.19625865347E+03 -0.43377052211E+03  0.47619691436E+03  0.00000000000E+00 0. -1.
        -13    1    4    4    0    0 -0.23317409418E+02  0.75804509455E+02  0.32050965298E+02  0.85541157416E+02  0.00000000000E+00 0.  1.
         13    1    4    4    0    0 -0.68578870066E+02  0.30620819531E+03 -0.51997072371E+02  0.31807265810E+03  0.00000000000E+00 0. -1.
         21    1    1    2  502  501  0.20602975163E+02  0.48295529979E+02 -0.21949701070E+03  0.22568978379E+03  0.00000000000E+00 0. -1.
<scales pt_clust_5="13000.00000" pt_clust_6="13000.00000" pt_clust_7="13000.00000" pt_clust_8="13000.00000" pt_clust_9="52.50658"></scales>
<clustering>
<clus scale="   52.507">  2  9  1 -1</clus>
<clus scale="   83.160">  5  6 -1 -1</clus>
<clus scale="   90.153">  7  8 -1 -1</clus>
<clus scale="  407.721">  2  5  1 -1</clus>
<clus scale="  409.204">  1  5  2 -1</clus>
</clustering>
</event>
<event>
 9    2  0.6066854E-005  0.1073178E+03  0.7546771E-02  0.1270318E+00
          2   -1    0    0  502    0  0.00000000000E+00  0.00000000000E+00  0.22731101742E+03  0.22731101742E+03  0.00000000000E+00 0. -1.
         -1   -1    0    0    0  501 -0.00000000000E+00 -0.00000000000E+00 -0.15337124344E+03  0.15337124344E+03  0.00000000000E+00 0.  1.
         23    2    1    2    0    0 -0.35955428570E+02 -0.38491707819E+02 -0.99639113147E+02  0.14519492941E+03  0.91538026217E+02 0.  0.
         24    2    1    2    0    0  0.70312807180E+02  0.46328121961E+02  0.15968295861E+03  0.19760678656E+03  0.80371693313E+02 0.  0.
        -13    1    4    4    0    0  0.54228461874E+02  0.87888036192E+01  0.32055872019E+02  0.63604623080E+02  0.00000000000E+00 0.  1.
         14    1    4    4    0    0  0.16084345306E+02  0.37539318342E+02  0.12762708659E+03  0.13400216348E+03  0.00000000000E+00 0. -1.
        -13    1    3    3    0    0 -0.57865373241E+02 -0.10137363673E+01 -0.76728959504E+02  0.96108076187E+02  0.00000000000E+00 0.  1.
         13    1    3    3    0    0  0.21909944671E+02 -0.37477971451E+02 -0.22910153643E+02  0.49086853225E+02  0.00000000000E+00 0. -1.
         21    1    1    2  502  501 -0.34357378610E+02 -0.78364141429E+01  0.13895928511E+02  0.37880544884E+02  0.00000000000E+00 0. -1.
<scales pt_clust_5="13000.00000" pt_clust_6="13000.00000" pt_clust_7="13000.00000" pt_clust_8="13000.00000" pt_clust_9="35.23973"></scales>
<clustering>
<clus scale="   35.240">  1  9  2 -1</clus>
<clus scale="   80.372">  5  6 -1 -1</clus>
<clus scale="   91.538">  7  8 -1 -1</clus>
<clus scale="   97.967">  1  5  2 -1</clus>
<clus scale="   35.240">  1  5  2 -1</clus>
</clustering>
</event>
<event>
 9    2  0.6066854E-005  0.1312098E+03  0.7546771E-02  0.1229115E+00
          2   -1    0    0  502    0  0.00000000000E+00  0.00000000000E+00  0.17080084562E+04  0.17080084562E+04  0.00000000000E+00 0. -1.
         -1   -1    0    0    0  501 -0.00000000000E+00 -0.00000000000E+00 -0.24214043601E+02  0.24214043601E+02  0.00000000000E+00 0.  1.
         23    2    1    2    0    0  0.10199933044E+03  0.76705904822E+02  0.33538212811E+03  0.37030783954E+03  0.91427922009E+02 0.  0.
         24    2    1    2    0    0 -0.53913184689E+02 -0.71030237560E+02  0.11994601759E+04  0.12052902009E+04  0.77896269061E+02 0.  0.
        -13    1    4    4    0    0 -0.77302702890E+01 -0.39142432641E+02  0.18379989812E+03  0.18808054036E+03  0.00000000000E+00 0.  1.
         14    1    4    4    0    0 -0.46182914400E+02 -0.31887804920E+02  0.10156602778E+04  0.10172096606E+04  0.00000000000E+00 0. -1.
        -11    1    3    3    0    0  0.30255347840E+02  0.78305910903E+02  0.15704638083E+03  0.17807517369E+03  0.00000000000E+00 0. -1.
         11    1    3    3    0    0  0.71743982595E+02 -0.16000060804E+01  0.17833574728E+03  0.19223266584E+03  0.00000000000E+00 0.  1.
         21    1    1    2  502  501 -0.48086145746E+02 -0.56756672619E+01  0.14895210860E+03  0.15662445935E+03  0.00000000000E+00 0. -1.
<scales pt_clust_5="13000.00000" pt_clust_6="13000.00000" pt_clust_7="13000.00000" pt_clust_8="13000.00000" pt_clust_9="48.41994"></scales>
<clustering>
<clus scale="   48.420">  2  9  1 -1</clus>
<clus scale="   77.896">  5  6 -1 -1</clus>
<clus scale="   91.428">  7  8 -1 -1</clus>
<clus scale="  122.167">  1  5  2 -1</clus>
<clus scale="  122.167">  1  5  2 -1</clus>
</clustering>
</event>
<event>
 9    2  0.6066854E-005  0.9455356E+02  0.7546771E-02  0.1293908E+00
          2   -1    0    0  502    0  0.00000000000E+00  0.00000000000E+00  0.22669246217E+03  0.22669246217E+03  0.00000000000E+00 0. -1.
         -1   -1    0    0    0  501 -0.00000000000E+00 -0.00000000000E+00 -0.70584651818E+02  0.70584651818E+02  0.00000000000E+00 0.  1.
         24    2    1    2    0    0 -0.17463001026E+02 -0.15719199681E+02  0.10455049270E+02  0.93832793163E+02  0.90239876851E+02 0.  0.
         23    2    1    2    0    0  0.84359595409E+00  0.43670049214E+02  0.66773553133E+02  0.11812501433E+03  0.87103540451E+02 0.  0.
        -13    1    3    3    0    0 -0.15980983996E+02  0.33491230500E+02 -0.12971694739E+02  0.39310548639E+02  0.00000000000E+00 0.  1.
         14    1    3    3    0    0 -0.14820170301E+01 -0.49210430181E+02  0.23426744009E+02  0.54522244524E+02  0.00000000000E+00 0. -1.
        -13    1    4    4    0    0  0.43060244513E+02  0.25734502722E+02  0.44833529691E+02  0.67279229130E+02  0.00000000000E+00 0. -1.
         13    1    4    4    0    0 -0.42216648559E+02  0.17935546493E+02  0.21940023442E+02  0.50845785196E+02  0.00000000000E+00 0.  1.
         21    1    1    2  502  501  0.16619405072E+02 -0.27950849534E+02  0.78879207953E+02  0.85319306502E+02  0.00000000000E+00 0. -1.
<scales pt_clust_5="13000.00000" pt_clust_6="13000.00000" pt_clust_7="13000.00000" pt_clust_8="13000.00000" pt_clust_9="32.51853"></scales>
<clustering>
<clus scale="   32.519">  1  9  2 -1</clus>
<clus scale="   87.104">  7  8 -1 -1</clus>
<clus scale="   90.240">  5  6 -1 -1</clus>
<clus scale="   91.565">  1  7  2 -1</clus>
<clus scale="   32.519">  1  5  2 -1</clus>
</clustering>
</event>
<event>
 9    2  0.6066854E-005  0.1240927E+03  0.7546771E-02  0.1241213E+00
          4   -1    0    0  502    0  0.00000000000E+00  0.00000000000E+00  0.12097420567E+03  0.12097420567E+03  0.00000000000E+00 0. -1.
         -3   -1    0    0    0  501 -0.00000000000E+00 -0.00000000000E+00 -0.24540591526E+03  0.24540591526E+03  0.00000000000E+00 0.  1.
         23    2    1    2    0    0 -0.25312687523E+02 -0.85872805750E+02 -0.95724984218E+02  0.16423751516E+03  0.98973824147E+02 0.  0.
         24    2    1    2    0    0  0.69401971852E+02  0.33886580533E+02  0.22961789179E+02  0.11660858913E+03  0.84293447315E+02 0.  0.
        -11    1    4    4    0    0  0.50747795883E+02  0.53959362362E+02 -0.88740744413E+01  0.74603624381E+02  0.00000000000E+00 0.  1.
         12    1    4    4    0    0  0.18654175968E+02 -0.20072781830E+02  0.31835863620E+02  0.42004964753E+02  0.00000000000E+00 0. -1.
        -13    1    3    3    0    0 -0.25961426008E+02  0.15298038875E+02 -0.35224592660E+02  0.46355124440E+02  0.00000000000E+00 0.  1.
         13    1    3    3    0    0  0.64873848549E+00 -0.10117084462E+03 -0.60500391558E+02  0.11788239072E+03  0.00000000000E+00 0. -1.
         21    1    1    2  502  501 -0.44089284329E+02  0.51986225217E+02 -0.51668514552E+02  0.85534016631E+02  0.00000000000E+00 0.  1.
<scales pt_clust_5="13000.00000" pt_clust_6="13000.00000" pt_clust_7="13000.00000" pt_clust_8="13000.00000" pt_clust_9="68.16475"></scales>
<clustering>
<clus scale="   68.165">  2  9  1 -1</clus>
<clus scale="   84.293">  5  6 -1 -1</clus>
<clus scale="   98.974">  7  8 -1 -1</clus>
<clus scale="  112.732">  1  5  2 -1</clus>
<clus scale="  112.732">  1  5  2 -1</clus>
</clustering>
</event>
<event>
 9    2  0.6066854E-005  0.9914618E+02  0.7546771E-02  0.1285658E+00
          2   -1    0    0  502    0  0.00000000000E+00  0.00000000000E+00  0.21031631212E+03  0.21031631212E+03  0.00000000000E+00 0. -1.
         -1   -1    0    0    0  501 -0.00000000000E+00 -0.00000000000E+00 -0.74302439344E+02  0.74302439344E+02  0.00000000000E+00 0.  1.
         24    2    1    2    0    0 -0.44966161787E+02 -0.25166010159E+01  0.49669207624E+02  0.11705415503E+03  0.95949757881E+02 0.  0.
         23    2    1    2    0    0  0.14541903697E+02  0.60221550106E+00  0.99408322929E+02  0.13439895899E+03  0.89270576806E+02 0.  0.
        -13    1    3    3    0    0 -0.61887034233E+02  0.30401651258E+02  0.33641243516E+02  0.76720262452E+02  0.00000000000E+00 0.  1.
         14    1    3    3    0    0  0.16920872446E+02 -0.32918252274E+02  0.16027964108E+02  0.40333892579E+02  0.00000000000E+00 0. -1.
        -13    1    4    4    0    0  0.61449562898E+01 -0.24993261173E+02  0.10394318822E+03  0.10708225796E+03  0.00000000000E+00 0. -1.
         13    1    4    4    0    0  0.83969474069E+01  0.25595476674E+02 -0.45348652939E+01  0.27316701030E+02  0.00000000000E+00 0.  1.
         21    1    1    2  502  501  0.30424258091E+02  0.19143855148E+01 -0.13063657780E+02  0.33165637441E+02  0.00000000000E+00 0.  1.
<scales pt_clust_5="13000.00000" pt_clust_6="13000.00000" pt_clust_7="13000.00000" pt_clust_8="13000.00000" pt_clust_9="30.48443"></scales>
<clustering>
<clus scale="   30.484">  2  9  1 -1</clus>
<clus scale="   89.271">  7  8 -1 -1</clus>
<clus scale="   92.698">  1  7  2 -1</clus>
<clus scale="   95.950">  5  6 -1 -1</clus>
<clus scale="   92.698">  1  5  2 -1</clus>
</clustering>
</event>
<event>
 9    2  0.6066854E-005  0.1003625E+03  0.7546771E-02  0.1283451E+00
         -1   -1    0    0    0  501 -0.00000000000E+00  0.00000000000E+00  0.23858777198E+03  0.23858777198E+03  0.00000000000E+00 0.  1.
          2   -1    0    0  502    0  0.00000000000E+00 -0.00000000000E+00 -0.53486158647E+02  0.53486158647E+02  0.00000000000E+00 0. -1.
         23    2    1    2    0    0 -0.41815613594E+02  0.20316778608E+02  0.99872417909E+02  0.14161082899E+03  0.88982076817E+02 0.  0.
         24    2    1    2    0    0  0.26061345240E+02 -0.41920117711E+02  0.52685197165E+02  0.10834406729E+03  0.80785004375E+02 0.  0.
        -13    1    4    4    0    0  0.15430302443E+02 -0.64215164371E+02  0.51262109626E+02  0.83603142597E+02  0.00000000000E+00 0.  1.
         14    1    4    4    0    0  0.10631042797E+02  0.22295046660E+02  0.14230875392E+01  0.24740924693E+02  0.00000000000E+00 0. -1.
        -13    1    3    3    0    0 -0.68883023755E+01  0.52463338208E+02  0.53742101180E+02  0.75419254868E+02  0.00000000000E+00 0. -1.
         13    1    3    3    0    0 -0.34927311218E+02 -0.32146559601E+02  0.46130316730E+02  0.66191574122E+02  0.00000000000E+00 0.  1.
         21    1    1    2  502  501  0.15754268353E+02  0.21603339104E+02  0.32543998259E+02  0.42119034349E+02  0.00000000000E+00 0. -1.
<scales pt_clust_5="13000.00000" pt_clust_6="13000.00000" pt_clust_7="13000.00000" pt_clust_8="13000.00000" pt_clust_9="26.73764"></scales>
<clustering>
<clus scale="   26.738">  1  9  2 -1</clus>
<clus scale="   80.785">  5  6 -1 -1</clus>
<clus scale="   88.982">  7  8 -1 -1</clus>
<clus scale="   93.172">  2  5  1 -1</clus>
<clus scale="   93.172">  2  5  1 -1</clus>
</clustering>
</event>
<event>
 9    2  0.6066854E-005  0.7347173E+03  0.7546771E-02  0.9660097E-01
          2   -1    0    0  502    0  0.00000000000E+00  0.00000000000E+00  0.12699763505E+04  0.12699763505E+04  0.00000000000E+00 0. -1.
         -1   -1    0    0    0  501 -0.00000000000E+00 -0.00000000000E+00 -0.11665520454E+04  0.11665520454E+04  0.00000000000E+00 0.  1.
         23    2    1    2    0    0 -0.28280511107E+03  0.40512518697E+03 -0.74095513389E+03  0.89504914260E+03  0.89405308901E+02 0.  0.
         24    2    1    2    0    0  0.59285197095E+03 -0.49538424304E+03  0.92582636932E+03  0.12084486917E+04  0.79465506317E+02 0.  0.
        -11    1    4    4    0    0  0.64563549858E+02 -0.83086371396E+02  0.15075160856E+03  0.18384190101E+03  0.00000000000E+00 0.  1.
         12    1    4    4    0    0  0.52828842109E+03 -0.41229787164E+03  0.77507476076E+03  0.10246067907E+04  0.00000000000E+00 0. -1.
        -11    1    3    3    0    0 -0.27677732091E+03  0.37782308162E+03 -0.72420799303E+03  0.86245764159E+03  0.00000000000E+00 0.  1.
         11    1    3    3    0    0 -0.60277901573E+01  0.27302105348E+02 -0.16747140865E+02  0.32591501005E+02  0.00000000000E+00 0. -1.
         21    1    1    2  502  501 -0.31004685988E+03  0.90259056070E+02 -0.81446930309E+02  0.33303056164E+03  0.00000000000E+00 0.  1.
<scales pt_clust_5="13000.00000" pt_clust_6="13000.00000" pt_clust_7="13000.00000" pt_clust_8="13000.00000" pt_clust_9="322.91756"></scales>
<clustering>
<clus scale="   79.466">  5  6 -1 -1</clus>
<clus scale="   89.405">  7  8 -1 -1</clus>
<clus scale="  322.918">  2  9  1 -1</clus>
<clus scale="  733.574">  1  5  2 -1</clus>
<clus scale="  733.574">  1  5  2 -1</clus>
</clustering>
</event>
<event>
 9    2  0.6066854E-005  0.9175662E+02  0.7546771E-02  0.1305189E+00
          2   -1    0    0  502    0  0.00000000000E+00  0.00000000000E+00  0.36285614681E+03  0.36285614681E+03  0.00000000000E+00 0. -1.
         -1   -1    0    0    0  501 -0.00000000000E+00 -0.00000000000E+00 -0.36353710469E+02  0.36353710469E+02  0.00000000000E+00 0.  1.
         23    2    1    2    0    0  0.36179714530E+01  0.35264536049E+01  0.69947084482E+02  0.11470108327E+03  0.90764631235E+02 0.  0.
         24    2    1    2    0    0 -0.48261949331E+00  0.18458409538E+02  0.24694173281E+03  0.26030988332E+03  0.80250047648E+02 0.  0.
        -11    1    4    4    0    0  0.23355599559E+02  0.73539819734E+01  0.19363142148E+02  0.31216924183E+02  0.00000000000E+00 0.  1.
         12    1    4    4    0    0 -0.23838219052E+02  0.11104427565E+02  0.22757859066E+03  0.22909295914E+03  0.00000000000E+00 0. -1.
        -11    1    3    3    0    0  0.29767178005E+02  0.12827976512E+02  0.79094253392E+02  0.85478317645E+02  0.00000000000E+00 0.  1.
         11    1    3    3    0    0 -0.26149206552E+02 -0.93015229067E+01 -0.91471689101E+01  0.29222765624E+02  0.00000000000E+00 0. -1.
         21    1    1    2  502  501 -0.31353519597E+01 -0.21984863143E+02  0.96136190493E+01  0.24198890688E+02  0.00000000000E+00 0. -1.
<scales pt_clust_5="13000.00000" pt_clust_6="13000.00000" pt_clust_7="13000.00000" pt_clust_8="13000.00000" pt_clust_9="22.20731"></scales>
<clustering>
<clus scale="   22.207">  2  9  1 -1</clus>
<clus scale="   80.250">  5  6 -1 -1</clus>
<clus scale="   81.370">  1  5  2 -1</clus>
<clus scale="   90.765">  7  8 -1 -1</clus>
<clus scale="   81.370">  1  5  2 -1</clus>
</clustering>
</event>
<event>
 9    2  0.6066854E-005  0.1162608E+03  0.7546771E-02  0.1253177E+00
          2   -1    0    0  502    0  0.00000000000E+00  0.00000000000E+00  0.85140318116E+03  0.85140318116E+03  0.00000000000E+00 0. -1.
         -1   -1    0    0    0  501 -0.00000000000E+00 -0.00000000000E+00 -0.62807699862E+02  0.62807699862E+02  0.00000000000E+00 0.  1.
         24    2    1    2    0    0  0.78657819122E+02 -0.16702431214E+02  0.20230370527E+03  0.23210781051E+03  0.80506042110E+02 0.  0.
         23    2    1    2    0    0 -0.59299943056E+02 -0.49579280612E+02  0.59988571376E+03  0.61172702465E+03  0.91501337706E+02 0.  0.
        -13    1    3    3    0    0  0.29195408926E+02 -0.45287443230E+02  0.72872110033E+02  0.90629293483E+02  0.00000000000E+00 0.  1.
         14    1    3    3    0    0  0.49462410196E+02  0.28585012016E+02  0.12943159524E+03  0.14147851703E+03  0.00000000000E+00 0. -1.
        -13    1    4    4    0    0 -0.46054763888E+02  0.18360548580E+02  0.28969711880E+03  0.29390912144E+03  0.00000000000E+00 0. -1.
         13    1    4    4    0    0 -0.13245179168E+02 -0.67939829192E+02  0.31018859495E+03  0.31781790321E+03  0.00000000000E+00 0.  1.
         21    1    1    2  502  501 -0.19357876066E+02  0.66281711827E+02 -0.13593937730E+02  0.70376045864E+02  0.00000000000E+00 0. -1.
<scales pt_clust_5="13000.00000" pt_clust_6="13000.00000" pt_clust_7="13000.00000" pt_clust_8="13000.00000" pt_clust_9="69.05065"></scales>
<clustering>
<clus scale="   69.051">  2  9  1 -1</clus>
<clus scale="   80.506">  5  6 -1 -1</clus>
<clus scale="   91.501">  7  8 -1 -1</clus>
<clus scale="  107.821">  2  5  1 -1</clus>
<clus scale="  116.261">  1  5  2 -1</clus>
</clustering>
</event>
<event>
 9    2  0.6066854E-005  0.1625441E+03  0.7546771E-02  0.1198106E+00
         -1   -1    0    0    0  501 -0.00000000000E+00  0.00000000000E+00  0.10261376927E+03  0.10261376927E+03  0.00000000000E+00 0.  1.
          2   -1    0    0  502    0  0.00000000000E+00 -0.00000000000E+00 -0.78986473944E+03  0.78986473944E+03  0.00000000000E+00 0. -1.
         23    2    1    2    0    0 -0.47917442244E+02  0.49561228484E+02  0.13506390689E+02  0.12484126914E+03  0.10320137234E+03 0.  0.
         24    2    1    2    0    0 -0.10957322287E+03  0.23169867640E+01 -0.21464572520E+03  0.25402339519E+03  0.80271030645E+02 0.  0.
        -11    1    4    4    0    0 -0.52558763848E+02  0.41125301601E+02 -0.99708703937E+02  0.11998141410E+03  0.00000000000E+00 0.  1.
         12    1    4    4    0    0 -0.57014459024E+02 -0.38808314837E+02 -0.11493702126E+03  0.13404198109E+03  0.00000000000E+00 0. -1.
        -13    1    3    3    0    0 -0.54048635354E+02  0.25214018619E+02  0.51837173368E+02  0.79019581506E+02  0.00000000000E+00 0.  1.
         13    1    3    3    0    0  0.61311931099E+01  0.24347209866E+02 -0.38330782680E+02  0.45821687638E+02  0.00000000000E+00 0. -1.
         21    1    1    2  502  501  0.15749066512E+03 -0.51878215249E+02 -0.48611163566E+03  0.51361384438E+03  0.00000000000E+00 0. -1.
<scales pt_clust_5="13000.00000" pt_clust_6="13000.00000" pt_clust_7="13000.00000" pt_clust_8="13000.00000" pt_clust_9="141.34048"></scales>
<clustering>
<clus scale="   80.271">  5  6 -1 -1</clus>
<clus scale="  103.201">  7  8 -1 -1</clus>
<clus scale="  124.109">  1  7  2 -1</clus>
<clus scale="  141.340">  2  9  1 -1</clus>
<clus scale="  141.340">  2  5  1 -1</clus>
</clustering>
</event>
<event>
 9    2  0.6066854E-005  0.9247261E+02  0.7546771E-02  0.1316846E+00
          2   -1    0    0  502    0  0.00000000000E+00  0.00000000000E+00  0.40491005115E+03  0.40491005115E+03  0.00000000000E+00 0. -1.
         -1   -1    0    0    0  501 -0.00000000000E+00 -0.00000000000E+00 -0.23916001741E+02  0.23916001741E+02  0.00000000000E+00 0.  1.
         24    2    1    2    0    0 -0.58647102416E+01 -0.33593380890E+02  0.12097613269E+03  0.13950945267E+03  0.60537200461E+02 0.  0.
         23    2    1    2    0    0  0.18040133638E+02  0.26754024731E+01  0.21141262518E+03  0.23043844901E+03  0.89855308659E+02 0.  0.
        -13    1    3    3    0    0 -0.26181857250E+02  0.42168369520E+01  0.48484527562E+02  0.55263195491E+02  0.00000000000E+00 0.  1.
         14    1    3    3    0    0  0.20317147008E+02 -0.37810217842E+02  0.72491605126E+02  0.84246257184E+02  0.00000000000E+00 0. -1.
        -13    1    4    4    0    0 -0.19144242575E+02  0.29954707850E+02  0.42829054730E+02  0.55660708540E+02  0.00000000000E+00 0.  1.
         13    1    4    4    0    0  0.37184376213E+02 -0.27279305377E+02  0.16858357045E+03  0.17477774047E+03  0.00000000000E+00 0. -1.
         21    1    1    2  502  501 -0.12175423396E+02  0.30917978417E+02  0.48605291535E+02  0.58878151206E+02  0.00000000000E+00 0.  1.
<scales pt_clust_5="13000.00000" pt_clust_6="13000.00000" pt_clust_7="13000.00000" pt_clust_8="13000.00000" pt_clust_9="33.22894"></scales>
<clustering>
<clus scale="   33.229">  2  9  1 -1</clus>
<clus scale="   60.537">  5  6 -1 -1</clus>
<clus scale="   64.358">  2  5  1 -1</clus>
<clus scale="   89.855">  7  8 -1 -1</clus>
<clus scale="   92.473">  1  5  2 -1</clus>
</clustering>
</event>
<event>
 9    2  0.6066854E-005  0.1026933E+03  0.7546771E-02  0.1279191E+00
          2   -1    0    0  502    0  0.00000000000E+00  0.00000000000E+00  0.12867766404E+04  0.12867766404E+04  0.00000000000E+00 0. -1.
         -1   -1    0    0    0  501 -0.00000000000E+00 -0.00000000000E+00 -0.12127218597E+02  0.12127218597E+02  0.00000000000E+00 0.  1.
         23    2    1    2    0    0 -0.56774910059E+02  0.40742965018E+01  0.43479374380E+03  0.44788691600E+03  0.91198133601E+02 0.  0.
         24    2    1    2    0    0  0.42622141878E+02  0.11259851653E+02  0.80546732149E+03  0.81079262186E+03  0.81631111916E+02 0.  0.
        -11    1    4    4    0    0  0.35685709222E+02  0.86011982279E+01  0.12484208048E+03  0.13012684393E+03  0.00000000000E+00 0.  1.
         12    1    4    4    0    0  0.69364326556E+01  0.26586534248E+01  0.68062524101E+03  0.68066577793E+03  0.00000000000E+00 0. -1.
        -11    1    3    3    0    0 -0.67166608440E+02  0.33105983317E+02  0.34207304837E+03  0.35017328545E+03  0.00000000000E+00 0.  1.
         11    1    3    3    0    0  0.10391698381E+02 -0.29031686815E+02  0.92720695430E+02  0.97713630551E+02  0.00000000000E+00 0. -1.
         21    1    1    2  502  501  0.14152768182E+02 -0.15334148155E+02  0.34388356465E+02  0.40224321091E+02  0.00000000000E+00 0.  1.
<scales pt_clust_5="13000.00000" pt_clust_6="13000.00000" pt_clust_7="13000.00000" pt_clust_8="13000.00000" pt_clust_9="20.86713"></scales>
<clustering>
<clus scale="   20.867">  2  9  1 -1</clus>
<clus scale="   81.631">  5  6 -1 -1</clus>
<clus scale="   91.198">  7  8 -1 -1</clus>
<clus scale="   94.300">  1  5  2 -1</clus>
<clus scale="   94.300">  1  5  2 -1</clus>
</clustering>
</event>
<event>
 9    2  0.6066854E-005  0.1238760E+03  0.7546771E-02  0.1239524E+00
          2   -1    0    0  502    0  0.00000000000E+00  0.00000000000E+00  0.33335179991E+03  0.33335179991E+03  0.00000000000E+00 0. -1.
         -1   -1    0    0    0  501 -0.00000000000E+00 -0.00000000000E+00 -0.10348099235E+03  0.10348099235E+03  0.00000000000E+00 0.  1.
         24    2    1    2    0    0 -0.74066033217E+02  0.22349931270E+02 -0.22870770473E+02  0.11436762489E+03  0.81065311800E+02 0.  0.
         23    2    1    2    0    0  0.86779991171E+02 -0.91622538117E+00  0.26615381944E+03  0.29416434240E+03  0.90350420024E+02 0.  0.
        -11    1    3    3    0    0 -0.88536578597E+02  0.22133746856E+02 -0.32622290823E+02  0.96916677399E+02  0.00000000000E+00 0.  1.
         12    1    3    3    0    0  0.14470545380E+02  0.21618441451E+00  0.97515203503E+01  0.17450947494E+02  0.00000000000E+00 0. -1.
        -11    1    4    4    0    0  0.23545951509E+02 -0.28130304971E+02  0.27687220798E+02  0.45959852978E+02  0.00000000000E+00 0.  1.
         11    1    4    4    0    0  0.63234039662E+02  0.27214079590E+02  0.23846659864E+03  0.24820448942E+03  0.00000000000E+00 0. -1.
         21    1    1    2  502  501 -0.12713957954E+02 -0.21433705889E+02 -0.13412241404E+02  0.28300824978E+02  0.00000000000E+00 0. -1.
<scales pt_clust_5="13000.00000" pt_clust_6="13000.00000" pt_clust_7="13000.00000" pt_clust_8="13000.00000" pt_clust_9="24.92084"></scales>
<clustering>
<clus scale="   24.921">  2  9  1 -1</clus>
<clus scale="   81.065">  5  6 -1 -1</clus>
<clus scale="   90.350">  7  8 -1 -1</clus>
<clus scale="  117.276">  2  5  1 -1</clus>
<clus scale="  123.876">  1  5  2 -1</clus>
</clustering>
</event>
<event>
 9    2  0.6066854E-005  0.3651078E+03  0.7546771E-02  0.1069330E+00
         -1   -1    0    0    0  501 -0.00000000000E+00  0.00000000000E+00  0.52815788506E+03  0.52815788506E+03  0.00000000000E+00 0.  1.
          2   -1    0    0  502    0  0.00000000000E+00 -0.00000000000E+00 -0.55019456751E+03  0.55019456751E+03  0.00000000000E+00 0. -1.
         24    2    1    2    0    0 -0.24171224227E+03 -0.22298181535E+02  0.94296239860E+02  0.27286143339E+03  0.81483519910E+02 0.  0.
         23    2    1    2    0    0 -0.63471212541E+02  0.28663017818E+03  0.12800707720E+03  0.33356901197E+03  0.93257815052E+02 0.  0.
        -13    1    3    3    0    0 -0.15930203273E+03 -0.41903525582E+01  0.20318655443E+02  0.16064726716E+03  0.00000000000E+00 0.  1.
         14    1    3    3    0    0 -0.82410209534E+02 -0.18107828976E+02  0.73977584417E+02  0.11221416623E+03  0.00000000000E+00 0. -1.
        -11    1    4    4    0    0 -0.57571738380E+02  0.18293284724E+03  0.36662368999E+02  0.19525127646E+03  0.00000000000E+00 0. -1.
         11    1    4    4    0    0 -0.58994741615E+01  0.10369733094E+03  0.91344708203E+02  0.13831773551E+03  0.00000000000E+00 0.  1.
         21    1    1    2  502  501  0.30518345481E+03 -0.26433199664E+03 -0.24433999951E+03  0.47192200722E+03  0.00000000000E+00 0. -1.
<scales pt_clust_5="13000.00000" pt_clust_6="13000.00000" pt_clust_7="13000.00000" pt_clust_8="13000.00000" pt_clust_9="352.99670"></scales>
<clustering>
<clus scale="   81.484">  5  6 -1 -1</clus>
<clus scale="   93.258">  7  8 -1 -1</clus>
<clus scale="  256.050">  1  5  2 -1</clus>
<clus scale="  352.997">  2  9  1 -1</clus>
<clus scale="  352.997">  2  5  1 -1</clus>
</clustering>
</event>
<event>
 9    2  0.6066854E-005  0.9548910E+02  0.7546771E-02  0.1297586E+00
          2   -1    0    0  502    0  0.00000000000E+00  0.00000000000E+00  0.56332946591E+03  0.56332946591E+03  0.00000000000E+00 0. -1.
         -1   -1    0    0    0  501 -0.00000000000E+00 -0.00000000000E+00 -0.36778303612E+02  0.36778303612E+02  0.00000000000E+00 0.  1.
         23    2    1    2    0    0  0.20921128295E+01 -0.47920083201E+01  0.54003097039E+02  0.10718236624E+03  0.92435841872E+02 0.  0.
         24    2    1    2    0    0  0.49145602790E+01 -0.27979878058E+02  0.43269555203E+03  0.44085513523E+03  0.79503352325E+02 0.  0.
        -13    1    4    4    0    0 -0.27044689276E+02 -0.41248196285E+02  0.27739867122E+03  0.28174962593E+03  0.00000000000E+00 0.  1.
         14    1    4    4    0    0  0.31959249555E+02  0.13268318227E+02  0.15529688081E+03  0.15910550930E+03  0.00000000000E+00 0. -1.
        -13    1    3    3    0    0  0.42760672636E+01  0.41059203193E+02  0.43743135935E+02  0.60146528242E+02  0.00000000000E+00 0. -1.
         13    1    3    3    0    0 -0.21839544341E+01 -0.45851211513E+02  0.10259961104E+02  0.47035837996E+02  0.00000000000E+00 0.  1.
         21    1    1    2  502  501 -0.70066731085E+01  0.32771886378E+02  0.39852513223E+02  0.52070268052E+02  0.00000000000E+00 0. -1.
<scales pt_clust_5="13000.00000" pt_clust_6="13000.00000" pt_clust_7="13000.00000" pt_clust_8="13000.00000" pt_clust_9="33.51254"></scales>
<clustering>
<clus scale="   33.513">  2  9  1 -1</clus>
<clus scale="   79.503">  5  6 -1 -1</clus>
<clus scale="   83.034">  1  5  2 -1</clus>
<clus scale="   92.436">  7  8 -1 -1</clus>
<clus scale="   83.034">  1  5  2 -1</clus>
</clustering>
</event>
<event>
 9    2  0.6066854E-005  0.1087791E+03  0.7546771E-02  0.1266911E+00
          2   -1    0    0  502    0  0.00000000000E+00  0.00000000000E+00  0.72724450520E+02  0.72724450520E+02  0.00000000000E+00 0. -1.
         -1   -1    0    0    0  501 -0.00000000000E+00 -0.00000000000E+00 -0.21797557606E+03  0.21797557606E+03  0.00000000000E+00 0.  1.
         23    2    1    2    0    0 -0.23860956012E+02 -0.72198232106E+02 -0.10048242573E+03  0.15564223069E+03  0.91355657475E+02 0.  0.
         24    2    1    2    0    0  0.82300157318E+01  0.50884950165E+02 -0.18972871559E+02  0.98125330003E+02  0.81311740977E+02 0.  0.
        -13    1    4    4    0    0 -0.35061826206E+01 -0.21140196419E+02  0.36207396760E+01  0.21732716742E+02  0.00000000000E+00 0.  1.
         14    1    4    4    0    0  0.11736198352E+02  0.72025146584E+02 -0.22593611235E+02  0.76392613261E+02  0.00000000000E+00 0. -1.
        -11    1    3    3    0    0  0.22107868570E+02 -0.36059984506E+02 -0.85329503697E+02  0.95237621434E+02  0.00000000000E+00 0.  1.
         11    1    3    3    0    0 -0.45968824582E+02 -0.36138247601E+02 -0.15152922029E+02  0.60404609254E+02  0.00000000000E+00 0. -1.
         21    1    1    2  502  501  0.15630940281E+02  0.21313281941E+02 -0.25795828254E+02  0.36932465886E+02  0.00000000000E+00 0.  1.
<scales pt_clust_5="13000.00000" pt_clust_6="13000.00000" pt_clust_7="13000.00000" pt_clust_8="13000.00000" pt_clust_9="26.43071"></scales>
<clustering>
<clus scale="   26.431">  2  9  1 -1</clus>
<clus scale="   81.312">  5  6 -1 -1</clus>
<clus scale="   91.356">  7  8 -1 -1</clus>
<clus scale="  100.492">  1  5  2 -1</clus>
<clus scale="  100.492">  1  5  2 -1</clus>
</clustering>
</event>
<event>
 9    2  0.6066854E-005  0.9729474E+02  0.7546771E-02  0.1290819E+00
          2   -1    0    0  502    0  0.00000000000E+00  0.00000000000E+00  0.21160303555E+03  0.21160303555E+03  0.00000000000E+00 0. -1.
         -1   -1    0    0    0  501 -0.00000000000E+00 -0.00000000000E+00 -0.79809949854E+02  0.79809949854E+02  0.00000000000E+00 0.  1.
         24    2    1    2    0    0 -0.26329663567E+02 -0.31191714039E+02 -0.10417783962E+02  0.91826828708E+02  0.81593272024E+02 0.  0.
         23    2    1    2    0    0 -0.15241060684E+02  0.33191869622E+02  0.10907829139E+03  0.14638941357E+03  0.90541684386E+02 0.  0.
        -11    1    3    3    0    0 -0.35216835458E+02 -0.31122636841E+02 -0.39514991108E+02  0.61402593967E+02  0.00000000000E+00 0.  1.
         12    1    3    3    0    0  0.88871718915E+01 -0.69077198266E-01  0.29097207146E+02  0.30424234741E+02  0.00000000000E+00 0. -1.
        -13    1    4    4    0    0 -0.43407874289E+02  0.48891336987E+02  0.73655678986E+02  0.98487387160E+02  0.00000000000E+00 0.  1.
         13    1    4    4    0    0  0.28166813605E+02 -0.15699467365E+02  0.35422612406E+02  0.47902026407E+02  0.00000000000E+00 0. -1.
         21    1    1    2  502  501  0.41570724251E+02 -0.20001555829E+01  0.33132578265E+02  0.53196743129E+02  0.00000000000E+00 0. -1.
<scales pt_clust_5="13000.00000" pt_clust_6="13000.00000" pt_clust_7="13000.00000" pt_clust_8="13000.00000" pt_clust_9="41.61881"></scales>
<clustering>
<clus scale="   41.619">  1  9  2 -1</clus>
<clus scale="   81.593">  5  6 -1 -1</clus>
<clus scale="   89.028">  2  5  1 -1</clus>
<clus scale="   90.542">  7  8 -1 -1</clus>
<clus scale="   41.619">  1  5  2 -1</clus>
</clustering>
</event>
<event>
 9    2  0.6066854E-005  0.9657696E+02  0.7546771E-02  0.1293637E+00
          2   -1    0    0  502    0  0.00000000000E+00  0.00000000000E+00  0.57944494940E+03  0.57944494940E+03  0.00000000000E+00 0. -1.
         -1   -1    0    0    0  501 -0.00000000000E+00 -0.00000000000E+00 -0.95920579012E+02  0.95920579012E+02  0.00000000000E+00 0.  1.
         23    2    1    2    0    0  0.24181832298E+02  0.95700089064E+01  0.28194944878E+02  0.99705877216E+02  0.92032390771E+02 0.  0.
         24    2    1    2    0    0 -0.28374821298E+02  0.10458507628E+02  0.50998371647E+03  0.51730029761E+03  0.81250821358E+02 0.  0.
        -11    1    4    4    0    0 -0.20422559560E+02 -0.33920544441E+02  0.18386964867E+03  0.18808437462E+03  0.00000000000E+00 0.  1.
         12    1    4    4    0    0 -0.79522617375E+01  0.44379052069E+02  0.32611406781E+03  0.32921592299E+03  0.00000000000E+00 0. -1.
        -11    1    3    3    0    0  0.41537728534E+02 -0.90142369705E+01 -0.18640780238E+02  0.46412477286E+02  0.00000000000E+00 0.  1.
         11    1    3    3    0    0 -0.17355896236E+02  0.18584245877E+02  0.46835725116E+02  0.53293399930E+02  0.00000000000E+00 0. -1.
         21    1    1    2  502  501  0.41929890000E+01 -0.20028516534E+02 -0.54654290961E+02  0.58359353592E+02  0.00000000000E+00 0.  1.
<scales pt_clust_5="13000.00000" pt_clust_6="13000.00000" pt_clust_7="13000.00000" pt_clust_8="13000.00000" pt_clust_9="20.46271"></scales>
<clustering>
<clus scale="   20.463">  2  9  1 -1</clus>
<clus scale="   81.251">  5  6 -1 -1</clus>
<clus scale="   86.365">  1  5  2 -1</clus>
<clus scale="   92.032">  7  8 -1 -1</clus>
<clus scale="   86.365">  1  5  2 -1</clus>
</clustering>
</event>
<event>
 9    2  0.6066854E-005  0.1035969E+03  0.7546771E-02  0.1283565E+00
          2   -1    0    0  502    0  0.00000000000E+00  0.00000000000E+00  0.13352448152E+03  0.13352448152E+03  0.00000000000E+00 0. -1.
         -1   -1    0    0    0  501 -0.00000000000E+00 -0.00000000000E+00 -0.24547857701E+03  0.24547857701E+03  0.00000000000E+00 0.  1.
         23    2    1    2    0    0  0.49669834418E+02 -0.35954750547E+02 -0.14942685453E+03  0.18778505135E+03  0.95786241788E+02 0.  0.
         24    2    1    2    0    0 -0.30244313426E+02  0.22070183527E+02  0.96418358696E+02  0.12761992713E+03  0.74756500793E+02 0.  0.
        -11    1    4    4    0    0 -0.10341274959E+02 -0.22150312625E+02  0.62390157570E+01  0.25229023659E+02  0.00000000000E+00 0.  1.
         12    1    4    4    0    0 -0.19903038467E+02  0.44220496152E+02  0.90179342939E+02  0.10239090347E+03  0.00000000000E+00 0. -1.
        -13    1    3    3    0    0  0.35944034507E+02 -0.67518866327E+02 -0.12097623228E+03  0.14312938099E+03  0.00000000000E+00 0.  1.
         13    1    3    3    0    0  0.13725799911E+02  0.31564115780E+02 -0.28450622247E+02  0.44655670350E+02  0.00000000000E+00 0. -1.
         21    1    1    2  502  501 -0.19425520992E+02  0.13884567021E+02 -0.58945599662E+02  0.63598080055E+02  0.00000000000E+00 0.  1.
<scales pt_clust_5="13000.00000" pt_clust_6="13000.00000" pt_clust_7="13000.00000" pt_clust_8="13000.00000" pt_clust_9="23.87744"></scales>
<clustering>
<clus scale="   23.877">  2  9  1 -1</clus>
<clus scale="   74.757">  5  6 -1 -1</clus>
<clus scale="   84.533">  1  5  2 -1</clus>
<clus scale="   95.786">  7  8 -1 -1</clus>
<clus scale="   84.533">  1  5  2 -1</clus>
</clustering>
</event>
<event>
 9    2  0.6066854E-005  0.2426159E+03  0.7546771E-02  0.1118976E+00
         -1   -1    0    0    0  501 -0.00000000000E+00  0.00000000000E+00  0.15465092075E+03  0.15465092075E+03  0.00000000000E+00 0.  1.
          2   -1    0    0  502    0  0.00000000000E+00 -0.00000000000E+00 -0.72445882630E+03  0.72445882630E+03  0.00000000000E+00 0. -1.
         24    2    1    2    0    0  0.20817260101E+03  0.12538587981E+03 -0.46793370690E+02  0.26006826567E+03  0.79927671063E+02 0.  0.
         23    2    1    2    0    0 -0.20858465513E+03 -0.68295359153E+02 -0.50566914516E+03  0.55937273009E+03  0.94998696607E+02 0.  0.
        -11    1    3    3    0    0  0.20526608406E+03  0.13300204955E+03 -0.37073747091E+02  0.24738264526E+03  0.00000000000E+00 0.  1.
         12    1    3    3    0    0  0.29065169535E+01 -0.76161697469E+01 -0.97196235995E+01  0.12685620416E+02  0.00000000000E+00 0. -1.
        -13    1    4    4    0    0 -0.63055921766E+02 -0.56706533179E+02 -0.11952938442E+03  0.14655699886E+03  0.00000000000E+00 0.  1.
         13    1    4    4    0    0 -0.14552873337E+03 -0.11588825974E+02 -0.38613976074E+03  0.41281573123E+03  0.00000000000E+00 0. -1.
         21    1    1    2  502  501  0.41205412167E+00 -0.57090520652E+02 -0.17345389689E+02  0.59668751289E+02  0.00000000000E+00 0.  1.
<scales pt_clust_5="13000.00000" pt_clust_6="13000.00000" pt_clust_7="13000.00000" pt_clust_8="13000.00000" pt_clust_9="57.09201"></scales>
<clustering>
<clus scale="   57.092">  1  9  2 -1</clus>
<clus scale="   79.928">  5  6 -1 -1</clus>
<clus scale="   94.999">  7  8 -1 -1</clus>
<clus scale="  237.121">  1  5  2 -1</clus>
<clus scale="  242.616">  2  5  1 -1</clus>
</clustering>
</event>
<event>
 9    2  0.6066854E-005  0.1234095E+03  0.7546771E-02  0.1239225E+00
          2   -1    0    0  502    0  0.00000000000E+00  0.00000000000E+00  0.35322878039E+03  0.35322878039E+03  0.00000000000E+00 0. -1.
         -1   -1    0    0    0  501 -0.00000000000E+00 -0.00000000000E+00 -0.19610700477E+03  0.19610700477E+03  0.00000000000E+00 0.  1.
         24    2    1    2    0    0  0.95403372939E+02 -0.57842964861E+02 -0.83087385339E+02  0.15843938415E+03  0.75841365336E+02 0.  0.
         23    2    1    2    0    0 -0.86248064510E+02  0.27367629004E+02  0.29957877666E+03  0.32353679118E+03  0.82102960197E+02 0.  0.
        -11    1    3    3    0    0  0.97467599652E+02 -0.28208132741E+02 -0.78699471112E+02  0.12841042983E+03  0.00000000000E+00 0.  1.
         12    1    3    3    0    0 -0.20642267123E+01 -0.29634832120E+02 -0.43879142264E+01  0.30028954327E+02  0.00000000000E+00 0. -1.
        -13    1    4    4    0    0  0.11647761288E+02  0.16643437536E+02  0.27546188555E+02  0.34226698058E+02  0.00000000000E+00 0.  1.
         13    1    4    4    0    0 -0.97895825798E+02  0.10724191468E+02  0.27203258811E+03  0.28931009312E+03  0.00000000000E+00 0. -1.
         21    1    1    2  502  501 -0.91553084295E+01  0.30475335857E+02 -0.59369615705E+02  0.67359609834E+02  0.00000000000E+00 0.  1.
<scales pt_clust_5="13000.00000" pt_clust_6="13000.00000" pt_clust_7="13000.00000" pt_clust_8="13000.00000" pt_clust_9="31.82084"></scales>
<clustering>
<clus scale="   31.821">  2  9  1 -1</clus>
<clus scale="   75.841">  5  6 -1 -1</clus>
<clus scale="   82.103">  7  8 -1 -1</clus>
<clus scale="  119.335">  2  5  1 -1</clus>
<clus scale="  123.410">  1  5  2 -1</clus>
</clustering>
</event>
<event>
 9    2  0.6066854E-005  0.2755020E+03  0.7546771E-02  0.1098662E+00
         -1   -1    0    0    0  501 -0.00000000000E+00  0.00000000000E+00  0.63539263968E+02  0.63539263968E+02  0.00000000000E+00 0.  1.
          2   -1    0    0  502    0  0.00000000000E+00 -0.00000000000E+00 -0.24796492115E+04  0.24796492115E+04  0.00000000000E+00 0. -1.
         23    2    1    2    0    0 -0.11997955987E+03 -0.29242880009E+03 -0.74954004154E+03  0.81852318558E+03  0.90885826927E+02 0.  0.
         24    2    1    2    0    0  0.14176549887E+03  0.19954679316E+03 -0.15621876426E+04  0.15832532987E+04  0.79651727670E+02 0.  0.
        -11    1    4    4    0    0  0.58405671820E+02  0.46692498713E+02 -0.30323337923E+03  0.31231697715E+03  0.00000000000E+00 0.  1.
         12    1    4    4    0    0  0.83359827053E+02  0.15285429445E+03 -0.12589542634E+04  0.12709363215E+04  0.00000000000E+00 0. -1.
        -13    1    3    3    0    0 -0.72316484898E+02 -0.14126310587E+03 -0.26682978845E+03  0.31045623697E+03  0.00000000000E+00 0.  1.
         13    1    3    3    0    0 -0.47663074973E+02 -0.15116569423E+03 -0.48271025309E+03  0.50806694860E+03  0.00000000000E+00 0. -1.
         21    1    1    2  502  501 -0.21785939002E+02  0.92882006937E+02 -0.10438226337E+03  0.14141199121E+03  0.00000000000E+00 0. -1.
<scales pt_clust_5="13000.00000" pt_clust_6="13000.00000" pt_clust_7="13000.00000" pt_clust_8="13000.00000" pt_clust_9="95.40280"></scales>
<clustering>
<clus scale="   79.652">  5  6 -1 -1</clus>
<clus scale="   90.886">  7  8 -1 -1</clus>
<clus scale="   95.403">  1  9  2 -1</clus>
<clus scale="  272.003">  2  5  1 -1</clus>
<clus scale="  272.003">  2  5  1 -1</clus>
</clustering>
</event>
<event>
 9    2  0.6066854E-005  0.9906893E+02  0.7546771E-02  0.1287597E+00
         -1   -1    0    0    0  501 -0.00000000000E+00  0.00000000000E+00  0.33001663778E+02  0.33001663778E+02  0.00000000000E+00 0.  1.
          2   -1    0    0  502    0  0.00000000000E+00 -0.00000000000E+00 -0.53342601037E+03  0.53342601037E+03  0.00000000000E+00 0. -1.
         23    2    1    2    0    0 -0.45292992110E+02 -0.10931426771E+02 -0.21954958426E+03  0.24222443813E+03  0.91102729112E+02 0.  0.
         24    2    1    2    0    0  0.33395919046E+02 -0.20689799368E+02 -0.27580736031E+03  0.29004008550E+03  0.80685785553E+02 0.  0.
        -11    1    4    4    0    0 -0.24318858720E+02 -0.11803792160E+02 -0.13365079391E+03  0.13635714544E+03  0.00000000000E+00 0.  1.
         12    1    4    4    0    0  0.57714777766E+02 -0.88860072077E+01 -0.14215656640E+03  0.15368294006E+03  0.00000000000E+00 0. -1.
        -13    1    3    3    0    0  0.14988923054E+02 -0.28540777138E+02 -0.36482387972E+02  0.48684786187E+02  0.00000000000E+00 0. -1.
         13    1    3    3    0    0 -0.60281915164E+02  0.17609350367E+02 -0.18306719629E+03  0.19353965194E+03  0.00000000000E+00 0.  1.
         21    1    1    2  502  501  0.11897073064E+02  0.31621226140E+02 -0.50674020226E+01  0.34163150518E+02  0.00000000000E+00 0.  1.
<scales pt_clust_5="13000.00000" pt_clust_6="13000.00000" pt_clust_7="13000.00000" pt_clust_8="13000.00000" pt_clust_9="33.78524"></scales>
<clustering>
<clus scale="   33.785">  1  9  2 -1</clus>
<clus scale="   80.686">  5  6 -1 -1</clus>
<clus scale="   89.583">  2  5  1 -1</clus>
<clus scale="   91.103">  7  8 -1 -1</clus>
<clus scale="   89.583">  2  5  1 -1</clus>
</clustering>
</event>
<event>
 9    2  0.6066854E-005  0.1139997E+03  0.7546771E-02  0.1258418E+00
          2   -1    0    0  502    0  0.00000000000E+00  0.00000000000E+00  0.74908886843E+03  0.74908886843E+03  0.00000000000E+00 0. -1.
         -1   -1    0    0    0  501 -0.00000000000E+00 -0.00000000000E+00 -0.52583386001E+02  0.52583386001E+02  0.00000000000E+00 0.  1.
         23    2    1    2    0    0  0.35390600469E+02  0.42368426337E+02  0.45950589229E+02  0.11836029823E+03  0.94075105072E+02 0.  0.
         24    2    1    2    0    0 -0.60585181920E+02 -0.26350223838E+02  0.64448364366E+03  0.65284542019E+03  0.80517558039E+02 0.  0.
        -11    1    4    4    0    0 -0.49836363435E+02  0.20822587728E+02  0.27969460405E+03  0.28486192237E+03  0.00000000000E+00 0.  1.
         12    1    4    4    0    0 -0.10748818484E+02 -0.47172811566E+02  0.36478903961E+03  0.36798349782E+03  0.00000000000E+00 0. -1.
        -11    1    3    3    0    0 -0.23085612657E+02  0.20811972129E+02  0.46622912642E+02  0.56033736970E+02  0.00000000000E+00 0. -1.
         11    1    3    3    0    0  0.58476213126E+02  0.21556454208E+02 -0.67232341229E+00  0.62326561259E+02  0.00000000000E+00 0.  1.
         21    1    1    2  502  501  0.25194581451E+02 -0.16018202499E+02  0.60712495429E+01  0.30466536016E+02  0.00000000000E+00 0.  1.
<scales pt_clust_5="13000.00000" pt_clust_6="13000.00000" pt_clust_7="13000.00000" pt_clust_8="13000.00000" pt_clust_9="29.85548"></scales>
<clustering>
<clus scale="   29.855">  2  9  1 -1</clus>
<clus scale="   80.518">  5  6 -1 -1</clus>
<clus scale="   94.075">  7  8 -1 -1</clus>
<clus scale="  103.096">  1  5  2 -1</clus>
<clus scale="  103.096">  1  5  2 -1</clus>
</clustering>
</event>
<event>
 9    2  0.6066854E-005  0.1048118E+03  0.7546771E-02  0.1273317E+00
         -1   -1    0    0    0  501 -0.00000000000E+00  0.00000000000E+00  0.19624005231E+03  0.19624005231E+03  0.00000000000E+00 0.  1.
          2   -1    0    0  502    0  0.00000000000E+00 -0.00000000000E+00 -0.67071680383E+03  0.67071680383E+03  0.00000000000E+00 0. -1.
         23    2    1    2    0    0  0.68500340114E+01 -0.76770937167E+02 -0.12643567999E+02  0.11748577019E+03  0.87763013997E+02 0.  0.
         24    2    1    2    0    0 -0.33743685046E+02  0.45404618092E+02 -0.59854599809E+03  0.60665124102E+03  0.81044437053E+02 0.  0.
        -13    1    4    4    0    0 -0.35196950937E+02  0.14717531320E+01 -0.97287434352E+02  0.10346901128E+03  0.00000000000E+00 0.  1.
         14    1    4    4    0    0  0.14532658909E+01  0.43932864960E+02 -0.50125856374E+03  0.50318222974E+03  0.00000000000E+00 0. -1.
        -13    1    3    3    0    0  0.39081079607E+02 -0.13708441188E+02 -0.20532655177E+02  0.46225989137E+02  0.00000000000E+00 0.  1.
         13    1    3    3    0    0 -0.32231045595E+02 -0.63062495978E+02  0.78890871780E+01  0.71259781053E+02  0.00000000000E+00 0. -1.
         21    1    1    2  502  501  0.26893651034E+02  0.31366319075E+02  0.13671281457E+03  0.14281984493E+03  0.00000000000E+00 0.  1.
<scales pt_clust_5="13000.00000" pt_clust_6="13000.00000" pt_clust_7="13000.00000" pt_clust_8="13000.00000" pt_clust_9="41.31724"></scales>
<clustering>
<clus scale="   41.317">  1  9  2 -1</clus>
<clus scale="   81.044">  5  6 -1 -1</clus>
<clus scale="   87.763">  7  8 -1 -1</clus>
<clus scale="   99.254">  2  5  1 -1</clus>
<clus scale="   99.254">  2  5  1 -1</clus>
</clustering>
</event>
<event>
 9    2  0.6066854E-005  0.9327747E+02  0.7546771E-02  0.1299999E+00
          4   -1    0    0  502    0  0.00000000000E+00  0.00000000000E+00  0.91928077234E+02  0.91928077234E+02  0.00000000000E+00 0. -1.
         -3   -1    0    0    0  501 -0.00000000000E+00 -0.00000000000E+00 -0.22403747102E+03  0.22403747102E+03  0.00000000000E+00 0.  1.
         23    2    1    2    0    0  0.11401824698E+01  0.86483719125E+01 -0.38659242291E+02  0.98290032652E+02  0.89946090251E+02 0.  0.
         24    2    1    2    0    0 -0.36310294042E+02  0.59755180695E+01  0.25300735785E+02  0.92965579606E+02  0.81537276694E+02 0.  0.
        -11    1    4    4    0    0 -0.28002228761E+02 -0.29739860510E+02 -0.10012442647E+02  0.42057497863E+02  0.00000000000E+00 0.  1.
         12    1    4    4    0    0 -0.83080652805E+01  0.35715378579E+02  0.35313178433E+02  0.50908081743E+02  0.00000000000E+00 0. -1.
        -13    1    3    3    0    0 -0.76517960086E+01 -0.37604118084E+02 -0.33477453415E+02  0.50925038696E+02  0.00000000000E+00 0.  1.
         13    1    3    3    0    0  0.87919784784E+01  0.46252489997E+02 -0.51817888766E+01  0.47364993956E+02  0.00000000000E+00 0. -1.
         21    1    1    2  502  501  0.35170111572E+02 -0.14623889982E+02 -0.11875088729E+03  0.12470993600E+03  0.00000000000E+00 0.  1.
<scales pt_clust_5="13000.00000" pt_clust_6="13000.00000" pt_clust_7="13000.00000" pt_clust_8="13000.00000" pt_clust_9="38.08930"></scales>
<clustering>
<clus scale="   38.089">  2  9  1 -1</clus>
<clus scale="   81.537">  5  6 -1 -1</clus>
<clus scale="   85.198">  1  5  2 -1</clus>
<clus scale="   89.946">  7  8 -1 -1</clus>
<clus scale="   85.198">  1  5  2 -1</clus>
</clustering>
</event>
<event>
 9    2  0.6066854E-005  0.2042554E+03  0.7546771E-02  0.1166461E+00
          2   -1    0    0  502    0  0.00000000000E+00  0.00000000000E+00  0.11284027412E+04  0.11284027412E+04  0.00000000000E+00 0. -1.
         -1   -1    0    0    0  501 -0.00000000000E+00 -0.00000000000E+00 -0.88200351384E+02  0.88200351384E+02  0.00000000000E+00 0.  1.
         23    2    1    2    0    0  0.22995711574E+03 -0.18144986868E+02  0.62325949493E+03  0.67199990814E+03  0.99609050243E+02 0.  0.
         24    2    1    2    0    0 -0.78905567850E+02 -0.60104902700E+02  0.32988525833E+03  0.35350465643E+03  0.79388730224E+02 0.  0.
        -11    1    4    4    0    0 -0.56777437864E+02 -0.37837714205E+02  0.97464965249E+02  0.11897390267E+03  0.00000000000E+00 0.  1.
         12    1    4    4    0    0 -0.22128129985E+02 -0.22267188495E+02  0.23242029308E+03  0.23453075375E+03  0.00000000000E+00 0. -1.
        -11    1    3    3    0    0  0.54805680798E+02  0.10436781217E+02  0.28079547162E+03  0.28628427468E+03  0.00000000000E+00 0.  1.
         11    1    3    3    0    0  0.17515143494E+03 -0.28581768084E+02  0.34246402331E+03  0.38571563346E+03  0.00000000000E+00 0. -1.
         21    1    1    2  502  501 -0.15105154789E+03  0.78249889568E+02  0.87057636601E+02  0.19109852806E+03  0.00000000000E+00 0.  1.
<scales pt_clust_5="13000.00000" pt_clust_6="13000.00000" pt_clust_7="13000.00000" pt_clust_8="13000.00000" pt_clust_9="178.32085"></scales>
<clustering>
<clus scale="   79.389">  5  6 -1 -1</clus>
<clus scale="   99.609">  7  8 -1 -1</clus>
<clus scale="  127.048">  1  5  2 -1</clus>
<clus scale="  178.321">  2  9  1 -1</clus>
<clus scale="  127.048">  1  5  2 -1</clus>
</clustering>
</event>
<event>
 9    2  0.6066854E-005  0.1007657E+03  0.7546771E-02  0.1280797E+00
         -1   -1    0    0    0  501 -0.00000000000E+00  0.00000000000E+00  0.42709575258E+02  0.42709575258E+02  0.00000000000E+00 0.  1.
          2   -1    0    0  502    0  0.00000000000E+00 -0.00000000000E+00 -0.51297748485E+03  0.51297748485E+03  0.00000000000E+00 0. -1.
         24    2    1    2    0    0 -0.35709126118E+01 -0.65465727296E+02 -0.11828044002E+03  0.15742892562E+03  0.80592129040E+02 0.  0.
         23    2    1    2    0    0  0.31891468050E+02  0.41390894225E+02 -0.34654146496E+03  0.36069072289E+03  0.85302630581E+02 0.  0.
        -13    1    3    3    0    0 -0.30602294191E+02 -0.69757283340E+02 -0.92509324543E+02  0.11983552944E+03  0.00000000000E+00 0.  1.
         14    1    3    3    0    0  0.27031381580E+02  0.42915560440E+01 -0.25771115473E+02  0.37593396177E+02  0.00000000000E+00 0. -1.
        -11    1    4    4    0    0 -0.23875487746E+02 -0.84938227542E+00 -0.42993203183E+02  0.49185118535E+02  0.00000000000E+00 0.  1.
         11    1    4    4    0    0  0.55766955796E+02  0.42240276500E+02 -0.30354826178E+03  0.31150560436E+03  0.00000000000E+00 0. -1.
         21    1    1    2  502  501 -0.28320555438E+02  0.24074833071E+02 -0.54460046094E+01  0.37567411595E+02  0.00000000000E+00 0.  1.
<scales pt_clust_5="13000.00000" pt_clust_6="13000.00000" pt_clust_7="13000.00000" pt_clust_8="13000.00000" pt_clust_9="37.17057"></scales>
<clustering>
<clus scale="   37.171">  1  9  2 -1</clus>
<clus scale="   80.592">  5  6 -1 -1</clus>
<clus scale="   85.303">  7  8 -1 -1</clus>
<clus scale="   96.811">  1  5  2 -1</clus>
<clus scale="  100.766">  2  5  1 -1</clus>
</clustering>
</event>
<event>
 9    2  0.6066854E-005  0.2456987E+03  0.7546771E-02  0.1116823E+00
         -1   -1    0    0    0  501 -0.00000000000E+00  0.00000000000E+00  0.10758102837E+03  0.10758102837E+03  0.00000000000E+00 0.  1.
          2   -1    0    0  502    0  0.00000000000E+00 -0.00000000000E+00 -0.64943899203E+03  0.64943899203E+03  0.00000000000E+00 0. -1.
         23    2    1    2    0    0  0.13757812276E+03 -0.18039157957E+03 -0.19132461648E+03  0.31082702345E+03  0.92409240871E+02 0.  0.
         24    2    1    2    0    0 -0.15614751274E+03  0.16696990694E+03 -0.34703709929E+03  0.42301569578E+03  0.79035024059E+02 0.  0.
        -13    1    4    4    0    0  0.75911324564E+01  0.20163786491E+02 -0.38622791152E+02  0.44225824741E+02  0.00000000000E+00 0.  1.
         14    1    4    4    0    0 -0.16373864520E+03  0.14680612045E+03 -0.30841430814E+03  0.37878987104E+03  0.00000000000E+00 0. -1.
        -13    1    3    3    0    0  0.52846280585E+02 -0.14014742957E+03 -0.13345111751E+03  0.20060715878E+03  0.00000000000E+00 0.  1.
         13    1    3    3    0    0  0.84731842172E+02 -0.40244149993E+02 -0.57873498969E+02  0.11021986468E+03  0.00000000000E+00 0. -1.
         21    1    1    2  502  501  0.18569389987E+02  0.13421672621E+02 -0.34962478870E+01  0.23177301174E+02  0.00000000000E+00 0. -1.
<scales pt_clust_5="13000.00000" pt_clust_6="13000.00000" pt_clust_7="13000.00000" pt_clust_8="13000.00000" pt_clust_9="22.91208"></scales>
<clustering>
<clus scale="   22.912">  1  9  2 -1</clus>
<clus scale="   79.035">  5  6 -1 -1</clus>
<clus scale="   92.409">  7  8 -1 -1</clus>
<clus scale="  240.987">  2  5  1 -1</clus>
<clus scale="  240.987">  2  5  1 -1</clus>
</clustering>
</event>
<event>
 9    2  0.6066854E-005  0.9549674E+02  0.7546771E-02  0.1297542E+00
          2   -1    0    0  502    0  0.00000000000E+00  0.00000000000E+00  0.12125530355E+03  0.12125530355E+03  0.00000000000E+00 0. -1.
         -1   -1    0    0    0  501 -0.00000000000E+00 -0.00000000000E+00 -0.49835401613E+03  0.49835401613E+03  0.00000000000E+00 0.  1.
         24    2    1    2    0    0 -0.40460201748E+01  0.42608262511E+02 -0.90677679807E+02  0.12826758409E+03  0.79989356789E+02 0.  0.
         23    2    1    2    0    0 -0.14602021184E+02  0.33951315591E+02  0.72776338753E+02  0.12360287423E+03  0.92818986113E+02 0.  0.
        -13    1    3    3    0    0 -0.32844651519E+02  0.17710451960E+02 -0.80704520771E+02  0.88913727370E+02  0.00000000000E+00 0.  1.
         14    1    3    3    0    0  0.28798631344E+02  0.24897810551E+02 -0.99731590365E+01  0.39353856720E+02  0.00000000000E+00 0. -1.
        -11    1    4    4    0    0 -0.26794543678E+02  0.16855244190E+02  0.90655926243E+02  0.96023662660E+02  0.00000000000E+00 0. -1.
         11    1    4    4    0    0  0.12192522494E+02  0.17096071401E+02 -0.17879587490E+02  0.27579211572E+02  0.00000000000E+00 0.  1.
         21    1    1    2  502  501  0.18648041359E+02 -0.76559578101E+02 -0.35919737152E+03  0.36773886136E+03  0.00000000000E+00 0.  1.
<scales pt_clust_5="13000.00000" pt_clust_6="13000.00000" pt_clust_7="13000.00000" pt_clust_8="13000.00000" pt_clust_9="78.79796"></scales>
<clustering>
<clus scale="   78.798">  2  9  1 -1</clus>
<clus scale="   79.989">  5  6 -1 -1</clus>
<clus scale="   83.082">  2  5  1 -1</clus>
<clus scale="   92.819">  7  8 -1 -1</clus>
<clus scale="   95.497">  1  5  2 -1</clus>
</clustering>
</event>
<event>
 9    2  0.6066854E-005  0.1585850E+03  0.7546771E-02  0.1194248E+00
          2   -1    0    0  502    0  0.00000000000E+00  0.00000000000E+00  0.41859586892E+03  0.41859586892E+03  0.00000000000E+00 0. -1.
         -1   -1    0    0    0  501 -0.00000000000E+00 -0.00000000000E+00 -0.22966817030E+03  0.22966817030E+03  0.00000000000E+00 0.  1.
         23    2    1    2    0    0 -0.11776774793E+03  0.32070601609E+02  0.54732675308E+02  0.16888541687E+03  0.10309632556E+03 0.  0.
         24    2    1    2    0    0  0.12115798274E+03  0.23156440485E+01  0.28739120690E+03  0.32233411194E+03  0.81369250533E+02 0.  0.
        -11    1    4    4    0    0  0.75191548333E+02  0.34716979176E+02  0.21679518315E+03  0.23207582601E+03  0.00000000000E+00 0.  1.
         12    1    4    4    0    0  0.45966434403E+02 -0.32401335127E+02  0.70596023752E+02  0.90258285932E+02  0.00000000000E+00 0. -1.
        -13    1    3    3    0    0 -0.46150829339E+02  0.10485341582E+02 -0.29864987028E+02  0.55962120108E+02  0.00000000000E+00 0.  1.
         13    1    3    3    0    0 -0.71616918596E+02  0.21585260026E+02  0.84597662336E+02  0.11292329676E+03  0.00000000000E+00 0. -1.
         21    1    1    2  502  501 -0.33902348014E+01 -0.34386245657E+02 -0.15319618358E+03  0.15704451040E+03  0.00000000000E+00 0.  1.
<scales pt_clust_5="13000.00000" pt_clust_6="13000.00000" pt_clust_7="13000.00000" pt_clust_8="13000.00000" pt_clust_9="34.55297"></scales>
<clustering>
<clus scale="   34.553">  2  9  1 -1</clus>
<clus scale="   81.369">  5  6 -1 -1</clus>
<clus scale="  103.096">  7  8 -1 -1</clus>
<clus scale="  145.400">  1  5  2 -1</clus>
<clus scale="  145.400">  1  5  2 -1</clus>
</clustering>
</event>
<event>
 9    2  0.6066854E-005  0.1350216E+03  0.7546771E-02  0.1223214E+00
         -1   -1    0    0    0  501 -0.00000000000E+00  0.00000000000E+00  0.47595439588E+02  0.47595439588E+02  0.00000000000E+00 0.  1.
          2   -1    0    0  502    0  0.00000000000E+00 -0.00000000000E+00 -0.11331730003E+04  0.11331730003E+04  0.00000000000E+00 0. -1.
         23    2    1    2    0    0 -0.73866800166E+02  0.62545131156E+01 -0.12126417773E+03  0.17070957374E+03  0.94558630836E+02 0.  0.
         24    2    1    2    0    0  0.62473656976E+02 -0.84894344971E+02 -0.89402815954E+03  0.90397380828E+03  0.82293914548E+02 0.  0.
        -13    1    4    4    0    0  0.46230811078E+02 -0.13677313419E+02 -0.18448289198E+03  0.19067851014E+03  0.00000000000E+00 0.  1.
         14    1    4    4    0    0  0.16242845897E+02 -0.71217031552E+02 -0.70954526756E+03  0.71329529814E+03  0.00000000000E+00 0. -1.
        -11    1    3    3    0    0  0.13154129273E+02  0.26038500050E+02 -0.43290046116E+02  0.52202133046E+02  0.00000000000E+00 0. -1.
         11    1    3    3    0    0 -0.87020929439E+02 -0.19783986935E+02 -0.77974131614E+02  0.11850744070E+03  0.00000000000E+00 0.  1.
         21    1    1    2  502  501  0.11393143190E+02  0.78639831855E+02 -0.70285223398E+02  0.10608505783E+03  0.00000000000E+00 0. -1.
<scales pt_clust_5="13000.00000" pt_clust_6="13000.00000" pt_clust_7="13000.00000" pt_clust_8="13000.00000" pt_clust_9="79.46085"></scales>
<clustering>
<clus scale="   79.461">  1  9  2 -1</clus>
<clus scale="   82.294">  5  6 -1 -1</clus>
<clus scale="   94.559">  7  8 -1 -1</clus>
<clus scale="  126.735">  2  5  1 -1</clus>
<clus scale="  126.735">  2  5  1 -1</clus>
</clustering>
</event>
<event>
 9    2  0.6066854E-005  0.1024630E+03  0.7546771E-02  0.1280055E+00
         -1   -1    0    0    0  501 -0.00000000000E+00  0.00000000000E+00  0.17563869714E+03  0.17563869714E+03  0.00000000000E+00 0.  1.
          2   -1    0    0  502    0  0.00000000000E+00 -0.00000000000E+00 -0.86278308165E+02  0.86278308165E+02  0.00000000000E+00 0. -1.
         23    2    1    2    0    0  0.19332722524E+02 -0.20746598356E+02  0.94544940900E+02  0.13447660061E+03  0.91329265611E+02 0.  0.
         24    2    1    2    0    0 -0.45218602551E+02  0.28068229307E+02 -0.16369095084E+02  0.98306591526E+02  0.81016610337E+02 0.  0.
        -13    1    4    4    0    0 -0.34882040334E+02 -0.22073276039E+02  0.72734027848E+01  0.41915255469E+02  0.00000000000E+00 0.  1.
         14    1    4    4    0    0 -0.10336562217E+02  0.50141505346E+02 -0.23642497869E+02  0.56391336057E+02  0.00000000000E+00 0. -1.
        -13    1    3    3    0    0 -0.14172315075E+02 -0.34988418276E+02  0.90238743603E+02  0.97816536307E+02  0.00000000000E+00 0.  1.
         13    1    3    3    0    0  0.33505037600E+02  0.14241819920E+02  0.43061972972E+01  0.36660064298E+02  0.00000000000E+00 0. -1.
         21    1    1    2  502  501  0.25885880026E+02 -0.73216309513E+01  0.11184543163E+02  0.29133813178E+02  0.00000000000E+00 0. -1.
<scales pt_clust_5="13000.00000" pt_clust_6="13000.00000" pt_clust_7="13000.00000" pt_clust_8="13000.00000" pt_clust_9="26.90140"></scales>
<clustering>
<clus scale="   26.901">  1  9  2 -1</clus>
<clus scale="   81.017">  5  6 -1 -1</clus>
<clus scale="   91.329">  7  8 -1 -1</clus>
<clus scale="   93.388">  2  5  1 -1</clus>
<clus scale="   93.388">  2  5  1 -1</clus>
</clustering>
</event>
<event>
 9    2  0.6066854E-005  0.1123871E+03  0.7546771E-02  0.1259814E+00
          2   -1    0    0  502    0  0.00000000000E+00  0.00000000000E+00  0.16382072062E+03  0.16382072062E+03  0.00000000000E+00 0. -1.
         -1   -1    0    0    0  501 -0.00000000000E+00 -0.00000000000E+00 -0.14510388969E+03  0.14510388969E+03  0.00000000000E+00 0.  1.
         23    2    1    2    0    0  0.33493905914E+02  0.12300677306E+02 -0.60371455164E+02  0.11381564701E+03  0.89644523029E+02 0.  0.
         24    2    1    2    0    0 -0.75466389377E+02 -0.15510528542E+02  0.98890894486E+02  0.14858869017E+03  0.79771156529E+02 0.  0.
        -13    1    4    4    0    0 -0.49433890812E+02  0.30044433942E+02  0.44217239966E+02  0.72811687811E+02  0.00000000000E+00 0.  1.
         14    1    4    4    0    0 -0.26032498565E+02 -0.45554962484E+02  0.54673654519E+02  0.75777002362E+02  0.00000000000E+00 0. -1.
        -11    1    3    3    0    0  0.56988479356E+02 -0.14614049781E+02 -0.48253384155E+02  0.76089725408E+02  0.00000000000E+00 0.  1.
         11    1    3    3    0    0 -0.23494573442E+02  0.26914727087E+02 -0.12118071009E+02  0.37725921597E+02  0.00000000000E+00 0. -1.
         21    1    1    2  502  501  0.41972483463E+02  0.32098512360E+01 -0.19802608390E+02  0.46520273130E+02  0.00000000000E+00 0.  1.
<scales pt_clust_5="13000.00000" pt_clust_6="13000.00000" pt_clust_7="13000.00000" pt_clust_8="13000.00000" pt_clust_9="42.09504"></scales>
<clustering>
<clus scale="   42.095">  2  9  1 -1</clus>
<clus scale="   79.771">  5  6 -1 -1</clus>
<clus scale="   89.645">  7  8 -1 -1</clus>
<clus scale="  104.681">  1  5  2 -1</clus>
<clus scale="  104.681">  1  5  2 -1</clus>
</clustering>
</event>
<event>
 9    2  0.6066854E-005  0.9612778E+02  0.7546771E-02  0.1300296E+00
          2   -1    0    0  502    0  0.00000000000E+00  0.00000000000E+00  0.69974031184E+02  0.69974031184E+02  0.00000000000E+00 0. -1.
         -1   -1    0    0    0  501 -0.00000000000E+00 -0.00000000000E+00 -0.20146796902E+03  0.20146796902E+03  0.00000000000E+00 0.  1.
         24    2    1    2    0    0  0.26137660898E+02  0.38887329551E+02 -0.83470284368E+02  0.12119086107E+03  0.74327213835E+02 0.  0.
         23    2    1    2    0    0 -0.12021929735E+02 -0.51643027666E+00 -0.10950306385E+02  0.95060443895E+02  0.93657809545E+02 0.  0.
        -11    1    3    3    0    0  0.37666100998E+01  0.40341603905E+02 -0.65160558088E+01  0.41037681959E+02  0.00000000000E+00 0.  1.
         12    1    3    3    0    0  0.22371050799E+02 -0.14542743539E+01 -0.76954228559E+02  0.80153179106E+02  0.00000000000E+00 0. -1.
        -11    1    4    4    0    0  0.27648791384E+02  0.42484760470E+01 -0.37723839411E+02  0.46963744246E+02  0.00000000000E+00 0.  1.
         11    1    4    4    0    0 -0.39670721119E+02 -0.47649063236E+01  0.26773533026E+02  0.48096699648E+02  0.00000000000E+00 0. -1.
         21    1    1    2  502  501 -0.14115731164E+02 -0.38370899275E+02 -0.37073347082E+02  0.55190695242E+02  0.00000000000E+00 0. -1.
<scales pt_clust_5="13000.00000" pt_clust_6="13000.00000" pt_clust_7="13000.00000" pt_clust_8="13000.00000" pt_clust_9="40.88496"></scales>
<clustering>
<clus scale="   40.885">  2  9  1 -1</clus>
<clus scale="   74.327">  5  6 -1 -1</clus>
<clus scale="   77.416">  2  5  1 -1</clus>
<clus scale="   93.658">  7  8 -1 -1</clus>
<clus scale="   96.128">  1  5  2 -1</clus>
</clustering>
</event>
<event>
 9    2  0.6066854E-005  0.9541804E+02  0.7546771E-02  0.1297939E+00
          2   -1    0    0  502    0  0.00000000000E+00  0.00000000000E+00  0.54108094937E+03  0.54108094937E+03  0.00000000000E+00 0. -1.
         -1   -1    0    0    0  501 -0.00000000000E+00 -0.00000000000E+00 -0.15414942363E+03  0.15414942363E+03  0.00000000000E+00 0.  1.
         23    2    1    2    0    0 -0.13898180505E+02  0.25932764259E+02  0.89671777194E+02  0.13303010987E+03  0.93756678822E+02 0.  0.
         24    2    1    2    0    0  0.17498890890E+02 -0.14223771487E+01  0.42455158068E+03  0.43252013852E+03  0.80755131279E+02 0.  0.
        -13    1    4    4    0    0 -0.31583894768E+02  0.48413050361E+01  0.13190898985E+03  0.13572384553E+03  0.00000000000E+00 0.  1.
         14    1    4    4    0    0  0.49082785658E+02 -0.62636821849E+01  0.29264259083E+03  0.29679629298E+03  0.00000000000E+00 0. -1.
        -13    1    3    3    0    0 -0.21479712870E+02  0.52538455179E+02  0.88752222430E+02  0.10535000866E+03  0.00000000000E+00 0. -1.
         13    1    3    3    0    0  0.75815323657E+01 -0.26605690920E+02  0.91955476431E+00  0.27680101215E+02  0.00000000000E+00 0.  1.
         21    1    1    2  502  501 -0.36007103852E+01 -0.24510387111E+02 -0.12729183214E+03  0.12968012461E+03  0.00000000000E+00 0.  1.
<scales pt_clust_5="13000.00000" pt_clust_6="13000.00000" pt_clust_7="13000.00000" pt_clust_8="13000.00000" pt_clust_9="24.77346"></scales>
<clustering>
<clus scale="   24.773">  2  9  1 -1</clus>
<clus scale="   80.755">  5  6 -1 -1</clus>
<clus scale="   82.678">  1  5  2 -1</clus>
<clus scale="   93.757">  7  8 -1 -1</clus>
<clus scale="   82.678">  1  5  2 -1</clus>
</clustering>
</event>
<event>
 9    2  0.6066854E-005  0.1033432E+03  0.7546771E-02  0.1279187E+00
          2   -1    0    0  502    0  0.00000000000E+00  0.00000000000E+00  0.99889423491E+03  0.99889423491E+03  0.00000000000E+00 0. -1.
         -1   -1    0    0    0  501 -0.00000000000E+00 -0.00000000000E+00 -0.20902952906E+02  0.20902952906E+02  0.00000000000E+00 0.  1.
         23    2    1    2    0    0 -0.56631432316E+01  0.10130528620E+02  0.14320739754E+03  0.16979056567E+03  0.90475293200E+02 0.  0.
         24    2    1    2    0    0 -0.12556246884E+02 -0.19027645437E+02  0.81522188111E+03  0.82183257666E+03  0.10150053198E+03 0.  0.
        -13    1    4    4    0    0  0.37328880101E+01 -0.38352447526E+02  0.11758317612E+03  0.12373620323E+03  0.00000000000E+00 0.  1.
         14    1    4    4    0    0 -0.16289134894E+02  0.19324802088E+02  0.69763870499E+03  0.69809637343E+03  0.00000000000E+00 0. -1.
        -13    1    3    3    0    0  0.33007201492E+02  0.32203053841E+02  0.82368113240E+02  0.94398189102E+02  0.00000000000E+00 0. -1.
         13    1    3    3    0    0 -0.38670344724E+02 -0.22072525221E+02  0.60839284297E+02  0.75392376568E+02  0.00000000000E+00 0.  1.
         21    1    1    2  502  501  0.18219390115E+02  0.88971168175E+01  0.19562003361E+02  0.28174045491E+02  0.00000000000E+00 0. -1.
<scales pt_clust_5="13000.00000" pt_clust_6="13000.00000" pt_clust_7="13000.00000" pt_clust_8="13000.00000" pt_clust_9="20.27572"></scales>
<clustering>
<clus scale="   20.276">  2  9  1 -1</clus>
<clus scale="   90.475">  7  8 -1 -1</clus>
<clus scale="   92.538">  2  7  1 -1</clus>
<clus scale="  101.501">  5  6 -1 -1</clus>
<clus scale="  103.343">  1  5  2 -1</clus>
</clustering>
</event>
<event>
 9    2  0.6066854E-005  0.1161703E+03  0.7546771E-02  0.1254514E+00
         -1   -1    0    0    0  501 -0.00000000000E+00  0.00000000000E+00  0.15539081826E+03  0.15539081826E+03  0.00000000000E+00 0.  1.
          2   -1    0    0  502    0  0.00000000000E+00 -0.00000000000E+00 -0.16310316029E+03  0.16310316029E+03  0.00000000000E+00 0. -1.
         23    2    1    2    0    0 -0.48870932235E+02 -0.88397320126E+01  0.48233334455E+02  0.11658333831E+03  0.93801446356E+02 0.  0.
         24    2    1    2    0    0  0.62235516162E+02  0.42294182117E+02 -0.97587504349E+02  0.14684836493E+03  0.79869042585E+02 0.  0.
        -13    1    4    4    0    0  0.17406741972E+02  0.34705624810E+02  0.39789743838E+00  0.38828254942E+02  0.00000000000E+00 0.  1.
         14    1    4    4    0    0  0.44828774191E+02  0.75885573072E+01 -0.97985401788E+02  0.10802010998E+03  0.00000000000E+00 0. -1.
        -13    1    3    3    0    0 -0.27898217284E+02  0.15079290583E+02 -0.22595207648E+02  0.38938912937E+02  0.00000000000E+00 0. -1.
         13    1    3    3    0    0 -0.20972714951E+02 -0.23919022596E+02  0.70828542103E+02  0.77644425369E+02  0.00000000000E+00 0.  1.
         21    1    1    2  502  501 -0.13364583928E+02 -0.33454450104E+02  0.41641827860E+02  0.55062275315E+02  0.00000000000E+00 0. -1.
<scales pt_clust_5="13000.00000" pt_clust_6="13000.00000" pt_clust_7="13000.00000" pt_clust_8="13000.00000" pt_clust_9="36.02516"></scales>
<clustering>
<clus scale="   36.025">  1  9  2 -1</clus>
<clus scale="   79.869">  5  6 -1 -1</clus>
<clus scale="   93.801">  7  8 -1 -1</clus>
<clus scale="  105.242">  2  5  1 -1</clus>
<clus scale="  105.242">  2  5  1 -1</clus>
</clustering>
</event>
<event>
 9    2  0.6066854E-005  0.1877393E+03  0.7546771E-02  0.1160774E+00
         -1   -1    0    0    0  501 -0.00000000000E+00  0.00000000000E+00  0.10577577216E+03  0.10577577216E+03  0.00000000000E+00 0.  1.
          2   -1    0    0  502    0  0.00000000000E+00 -0.00000000000E+00 -0.10137228391E+04  0.10137228391E+04  0.00000000000E+00 0. -1.
         24    2    1    2    0    0 -0.60327215643E+02 -0.13251131399E+03 -0.91964686726E+02  0.18995346769E+03  0.80163551563E+02 0.  0.
         23    2    1    2    0    0  0.47400163635E+02  0.16725299266E+03 -0.85459851763E+03  0.87601665606E+03  0.82741865399E+02 0.  0.
        -13    1    3    3    0    0 -0.77948650525E+02 -0.89263760524E+02 -0.56347128427E+02  0.13122122520E+03  0.00000000000E+00 0.  1.
         14    1    3    3    0    0  0.17621434882E+02 -0.43247553470E+02 -0.35617558299E+02  0.58732242488E+02  0.00000000000E+00 0. -1.
        -13    1    4    4    0    0 -0.14615770747E+02  0.38412281724E+02 -0.10225078086E+03  0.11020138987E+03  0.00000000000E+00 0.  1.
         13    1    4    4    0    0  0.62015934382E+02  0.12884071094E+03 -0.75234773677E+03  0.76581526619E+03  0.00000000000E+00 0. -1.
         21    1    1    2  502  501  0.12927052008E+02 -0.34741678669E+02  0.38616137392E+02  0.53528487532E+02  0.00000000000E+00 0. -1.
<scales pt_clust_5="13000.00000" pt_clust_6="13000.00000" pt_clust_7="13000.00000" pt_clust_8="13000.00000" pt_clust_9="37.06876"></scales>
<clustering>
<clus scale="   37.069">  1  9  2 -1</clus>
<clus scale="   80.164">  5  6 -1 -1</clus>
<clus scale="   82.742">  7  8 -1 -1</clus>
<clus scale="  186.617">  1  5  2 -1</clus>
<clus scale="  187.739">  2  5  1 -1</clus>
</clustering>
</event>
<event>
 9    2  0.6066854E-005  0.1147252E+03  0.7546771E-02  0.1258070E+00
          2   -1    0    0  502    0  0.00000000000E+00  0.00000000000E+00  0.11202552712E+04  0.11202552712E+04  0.00000000000E+00 0. -1.
         -1   -1    0    0    0  501 -0.00000000000E+00 -0.00000000000E+00 -0.43100167412E+02  0.43100167412E+02  0.00000000000E+00 0.  1.
         23    2    1    2    0    0 -0.31806955719E+02 -0.39318272649E+02  0.22447446580E+03  0.25082271988E+03  0.99828062275E+02 0.  0.
         24    2    1    2    0    0  0.12842055973E+02  0.57516053342E+02  0.87314462760E+03  0.87922203705E+03  0.84716202232E+02 0.  0.
        -11    1    4    4    0    0 -0.19006339761E+02  0.41245658520E+02  0.19844466866E+03  0.20357488012E+03  0.00000000000E+00 0.  1.
         12    1    4    4    0    0  0.31848395733E+02  0.16270394822E+02  0.67469995895E+03  0.67564715693E+03  0.00000000000E+00 0. -1.
        -13    1    3    3    0    0 -0.28012706442E+02 -0.70996045121E+02  0.12604315446E+03  0.14735001503E+03  0.00000000000E+00 0.  1.
         13    1    3    3    0    0 -0.37942492775E+01  0.31677772472E+02  0.98431311340E+02  0.10347270485E+03  0.00000000000E+00 0. -1.
         21    1    1    2  502  501  0.18964899747E+02 -0.18197780692E+02 -0.20463989602E+02  0.33310681695E+02  0.00000000000E+00 0.  1.
<scales pt_clust_5="13000.00000" pt_clust_6="13000.00000" pt_clust_7="13000.00000" pt_clust_8="13000.00000" pt_clust_9="26.28358"></scales>
<clustering>
<clus scale="   26.284">  2  9  1 -1</clus>
<clus scale="   84.716">  5  6 -1 -1</clus>
<clus scale="   99.828">  7  8 -1 -1</clus>
<clus scale="  101.848">  1  5  2 -1</clus>
<clus scale="  101.848">  1  5  2 -1</clus>
</clustering>
</event>
<event>
 9    2  0.6066854E-005  0.1022955E+03  0.7546771E-02  0.1278758E+00
         -1   -1    0    0    0  501 -0.00000000000E+00  0.00000000000E+00  0.32170227319E+03  0.32170227319E+03  0.00000000000E+00 0.  1.
          2   -1    0    0  502    0  0.00000000000E+00 -0.00000000000E+00 -0.66342544468E+02  0.66342544468E+02  0.00000000000E+00 0. -1.
         23    2    1    2    0    0  0.67412786423E+02 -0.56983847317E+01  0.20251319487E+03  0.23089952704E+03  0.87897907414E+02 0.  0.
         24    2    1    2    0    0 -0.46577254950E+02  0.16824336055E+02 -0.48292266474E+01  0.94820339649E+02  0.80716023308E+02 0.  0.
        -13    1    4    4    0    0  0.38203984319E+01  0.22796457838E+02  0.26511402132E+02  0.35172835784E+02  0.00000000000E+00 0.  1.
         14    1    4    4    0    0 -0.50397653382E+02 -0.59721217827E+01 -0.31340628779E+02  0.59647503864E+02  0.00000000000E+00 0. -1.
        -13    1    3    3    0    0  0.83963787308E+02  0.12108766003E+02  0.17286230589E+03  0.19255626863E+03  0.00000000000E+00 0.  1.
         13    1    3    3    0    0 -0.16551000886E+02 -0.17807150735E+02  0.29650888987E+02  0.38343258408E+02  0.00000000000E+00 0. -1.
         21    1    1    2  502  501 -0.20835531473E+02 -0.11125951323E+02  0.57675760500E+02  0.62324950973E+02  0.00000000000E+00 0. -1.
<scales pt_clust_5="13000.00000" pt_clust_6="13000.00000" pt_clust_7="13000.00000" pt_clust_8="13000.00000" pt_clust_9="23.62004"></scales>
<clustering>
<clus scale="   23.620">  1  9  2 -1</clus>
<clus scale="   80.716">  5  6 -1 -1</clus>
<clus scale="   87.898">  7  8 -1 -1</clus>
<clus scale="   96.195">  2  5  1 -1</clus>
<clus scale="   96.195">  2  5  1 -1</clus>
</clustering>
</event>
<event>
 9    2  0.6066854E-005  0.1150780E+03  0.7546771E-02  0.1252379E+00
          2   -1    0    0  502    0  0.00000000000E+00  0.00000000000E+00  0.14321870660E+03  0.14321870660E+03  0.00000000000E+00 0. -1.
         -1   -1    0    0    0  501 -0.00000000000E+00 -0.00000000000E+00 -0.24319159289E+03  0.24319159289E+03  0.00000000000E+00 0.  1.
         23    2    1    2    0    0 -0.58537456032E+02  0.27992582649E+02 -0.60223946242E+02  0.12669233817E+03  0.90630052460E+02 0.  0.
         24    2    1    2    0    0  0.47546972660E+02 -0.57269726006E+02  0.77190619509E+02  0.13866920074E+03  0.87921666090E+02 0.  0.
        -11    1    4    4    0    0 -0.17074508961E+02 -0.12539046603E+02 -0.81089367755E+01  0.22683064203E+02  0.00000000000E+00 0.  1.
         12    1    4    4    0    0  0.64621481621E+02 -0.44730679403E+02  0.85299556285E+02  0.11598613654E+03  0.00000000000E+00 0. -1.
        -13    1    3    3    0    0 -0.80716230338E+02  0.20595212946E+02 -0.61081438646E+02  0.10329673172E+03  0.00000000000E+00 0.  1.
         13    1    3    3    0    0  0.22178774306E+02  0.73973697029E+01  0.85749240468E+00  0.23395606457E+02  0.00000000000E+00 0. -1.
         21    1    1    2  502  501  0.10990483372E+02  0.29277143357E+02 -0.11693955956E+03  0.12104876058E+03  0.00000000000E+00 0. -1.
<scales pt_clust_5="13000.00000" pt_clust_6="13000.00000" pt_clust_7="13000.00000" pt_clust_8="13000.00000" pt_clust_9="31.27206"></scales>
<clustering>
<clus scale="   31.272">  2  9  1 -1</clus>
<clus scale="   87.922">  5  6 -1 -1</clus>
<clus scale="   90.630">  7  8 -1 -1</clus>
<clus scale="  112.957">  1  5  2 -1</clus>
<clus scale="  112.957">  1  5  2 -1</clus>
</clustering>
</event>
<event>
 9    2  0.6066854E-005  0.2126412E+03  0.7546771E-02  0.1140510E+00
         -1   -1    0    0    0  501 -0.00000000000E+00  0.00000000000E+00  0.45915564533E+03  0.45915564533E+03  0.00000000000E+00 0.  1.
          2   -1    0    0  502    0  0.00000000000E+00 -0.00000000000E+00 -0.11420704156E+04  0.11420704156E+04  0.00000000000E+00 0. -1.
         23    2    1    2    0    0 -0.15181030725E+03 -0.88059980967E+02  0.28429335669E+03  0.34607229301E+03  0.90235191013E+02 0.  0.
         24    2    1    2    0    0  0.17833411623E+03  0.74106978797E+02 -0.10997584260E+04  0.11192575557E+04  0.77291521364E+02 0.  0.
        -11    1    4    4    0    0  0.79810287575E+02  0.65339373233E+02 -0.42784302675E+03  0.44010063763E+03  0.00000000000E+00 0.  1.
         12    1    4    4    0    0  0.98523828654E+02  0.87676055644E+01 -0.67191539920E+03  0.67915691810E+03  0.00000000000E+00 0. -1.
        -11    1    3    3    0    0 -0.12427163282E+03 -0.10352880392E+03  0.20791403665E+03  0.26341962456E+03  0.00000000000E+00 0.  1.
         11    1    3    3    0    0 -0.27538674429E+02  0.15468822956E+02  0.76379320035E+02  0.82652668451E+02  0.00000000000E+00 0. -1.
         21    1    1    2  502  501 -0.26523808977E+02  0.13953002170E+02  0.13255029901E+03  0.13589621217E+03  0.00000000000E+00 0.  1.
<scales pt_clust_5="13000.00000" pt_clust_6="13000.00000" pt_clust_7="13000.00000" pt_clust_8="13000.00000" pt_clust_9="29.96996"></scales>
<clustering>
<clus scale="   29.970">  1  9  2 -1</clus>
<clus scale="   77.292">  5  6 -1 -1</clus>
<clus scale="   90.235">  7  8 -1 -1</clus>
<clus scale="  207.480">  2  5  1 -1</clus>
<clus scale="  207.480">  2  5  1 -1</clus>
</clustering>
</event>
<event>
 9    2  0.6066854E-005  0.1825942E+03  0.7546771E-02  0.1166319E+00
          2   -1    0    0  502    0  0.00000000000E+00  0.00000000000E+00  0.14004836947E+04  0.14004836947E+04  0.00000000000E+00 0. -1.
         -1   -1    0    0    0  501 -0.00000000000E+00 -0.00000000000E+00 -0.74117392232E+02  0.74117392232E+02  0.00000000000E+00 0.  1.
         24    2    1    2    0    0  0.20503925832E+02 -0.14844687122E+03  0.58551754989E+03  0.60994666438E+03  0.82141631456E+02 0.  0.
         23    2    1    2    0    0 -0.60149419913E+02  0.15733097887E+03  0.78303697329E+03  0.80608362313E+03  0.90845563001E+02 0.  0.
        -11    1    3    3    0    0  0.37836052115E+02 -0.10292945831E+03  0.28247661162E+03  0.30301662717E+03  0.00000000000E+00 0.  1.
         12    1    3    3    0    0 -0.17332126283E+02 -0.45517412904E+02  0.30304093827E+03  0.30693003722E+03  0.00000000000E+00 0. -1.
        -11    1    4    4    0    0 -0.29670634461E+01  0.12612860148E+03  0.50607403841E+03  0.52156318881E+03  0.00000000000E+00 0.  1.
         11    1    4    4    0    0 -0.57182356466E+02  0.31202377386E+02  0.27696293489E+03  0.28452043432E+03  0.00000000000E+00 0. -1.
         21    1    1    2  502  501  0.39645494080E+02 -0.88841076517E+01 -0.42188220748E+02  0.58570799376E+02  0.00000000000E+00 0.  1.
<scales pt_clust_5="13000.00000" pt_clust_6="13000.00000" pt_clust_7="13000.00000" pt_clust_8="13000.00000" pt_clust_9="40.62872"></scales>
<clustering>
<clus scale="   40.629">  2  9  1 -1</clus>
<clus scale="   82.142">  5  6 -1 -1</clus>
<clus scale="   90.846">  7  8 -1 -1</clus>
<clus scale="  178.424">  2  5  1 -1</clus>
<clus scale="  182.594">  1  5  2 -1</clus>
</clustering>
</event>
<event>
 9    2  0.6066854E-005  0.1463449E+03  0.7546771E-02  0.1206694E+00
         -1   -1    0    0    0  501 -0.00000000000E+00  0.00000000000E+00  0.22390211795E+02  0.22390211795E+02  0.00000000000E+00 0.  1.
          2   -1    0    0  502    0  0.00000000000E+00 -0.00000000000E+00 -0.15628975564E+04  0.15628975564E+04  0.00000000000E+00 0. -1.
         23    2    1    2    0    0  0.13644074757E+02 -0.95107931507E+02 -0.33058483948E+03  0.35546565280E+03  0.88531434066E+02 0.  0.
         24    2    1    2    0    0 -0.63183503897E+02  0.11052481117E+03 -0.10717495305E+04  0.10822294118E+04  0.79784426624E+02 0.  0.
        -11    1    4    4    0    0 -0.44848734808E+02  0.14110683292E+02 -0.22842344543E+03  0.23321190111E+03  0.00000000000E+00 0.  1.
         12    1    4    4    0    0 -0.18334769089E+02  0.96414127879E+02 -0.84332608504E+03  0.84901751073E+03  0.00000000000E+00 0. -1.
        -11    1    3    3    0    0  0.44306831257E+02 -0.87779195741E+02 -0.26613042952E+03  0.28371409556E+03  0.00000000000E+00 0.  1.
         11    1    3    3    0    0 -0.30662756500E+02 -0.73287357665E+01 -0.64454409957E+02  0.71751557245E+02  0.00000000000E+00 0. -1.
         21    1    1    2  502  501  0.49539429140E+02 -0.15416879664E+02 -0.13817297469E+03  0.14759270359E+03  0.00000000000E+00 0.  1.
<scales pt_clust_5="13000.00000" pt_clust_6="13000.00000" pt_clust_7="13000.00000" pt_clust_8="13000.00000" pt_clust_9="51.88290"></scales>
<clustering>
<clus scale="   51.883">  1  9  2 -1</clus>
<clus scale="   79.784">  5  6 -1 -1</clus>
<clus scale="   88.531">  7  8 -1 -1</clus>
<clus scale="  141.225">  2  5  1 -1</clus>
<clus scale="  141.225">  2  5  1 -1</clus>
</clustering>
</event>
<event>
 9    2  0.6066854E-005  0.1030613E+03  0.7546771E-02  0.1277155E+00
          2   -1    0    0  502    0  0.00000000000E+00  0.00000000000E+00  0.55392332866E+03  0.55392332866E+03  0.00000000000E+00 0. -1.
         -1   -1    0    0    0  501 -0.00000000000E+00 -0.00000000000E+00 -0.37285576244E+02  0.37285576244E+02  0.00000000000E+00 0.  1.
         23    2    1    2    0    0 -0.39210250512E+02 -0.24339870382E+02  0.10586966096E+03  0.14685372209E+03  0.90706987293E+02 0.  0.
         24    2    1    2    0    0  0.28336661146E+02  0.41929961287E+02  0.41217280054E+03  0.42362791934E+03  0.83744304406E+02 0.  0.
        -11    1    4    4    0    0  0.46501218110E+02  0.56272640384E+02  0.27540157052E+03  0.28491226437E+03  0.00000000000E+00 0.  1.
         12    1    4    4    0    0 -0.18164556964E+02 -0.14342679098E+02  0.13677123002E+03  0.13871565497E+03  0.00000000000E+00 0. -1.
        -11    1    3    3    0    0 -0.64919476509E+02 -0.26831879634E+02  0.52950494653E+02  0.87967284139E+02  0.00000000000E+00 0.  1.
         11    1    3    3    0    0  0.25709225997E+02  0.24920092519E+01  0.52919166311E+02  0.58886437951E+02  0.00000000000E+00 0. -1.
         21    1    1    2  502  501  0.10873589365E+02 -0.17590090905E+02 -0.14047090833E+01  0.20727263479E+02  0.00000000000E+00 0. -1.
<scales pt_clust_5="13000.00000" pt_clust_6="13000.00000" pt_clust_7="13000.00000" pt_clust_8="13000.00000" pt_clust_9="20.67961"></scales>
<clustering>
<clus scale="   20.680">  2  9  1 -1</clus>
<clus scale="   83.744">  5  6 -1 -1</clus>
<clus scale="   90.707">  7  8 -1 -1</clus>
<clus scale="   96.990">  1  5  2 -1</clus>
<clus scale="   96.990">  1  5  2 -1</clus>
</clustering>
</event>
<event>
 9    2  0.6066854E-005  0.1210448E+03  0.7546771E-02  0.1245292E+00
         -1   -1    0    0    0  501 -0.00000000000E+00  0.00000000000E+00  0.36654340423E+03  0.36654340423E+03  0.00000000000E+00 0.  1.
          2   -1    0    0  502    0  0.00000000000E+00 -0.00000000000E+00 -0.81805043931E+03  0.81805043931E+03  0.00000000000E+00 0. -1.
         23    2    1    2    0    0  0.55118060466E+02 -0.59896065742E+02  0.31963501117E+03  0.34129338657E+03  0.87687490980E+02 0.  0.
         24    2    1    2    0    0  0.68747479061E+02  0.30675684834E+02 -0.67394261834E+03  0.68316229372E+03  0.82733628135E+02 0.  0.
        -13    1    4    4    0    0 -0.56652878486E+00  0.38125848837E+02 -0.15824571223E+03  0.16277471162E+03  0.00000000000E+00 0.  1.
         14    1    4    4    0    0  0.69314007846E+02 -0.74501640032E+01 -0.51569690611E+03  0.52038758210E+03  0.00000000000E+00 0. -1.
        -13    1    3    3    0    0  0.65045933000E+02 -0.25199173495E+02  0.12326072802E+03  0.14163043041E+03  0.00000000000E+00 0. -1.
         13    1    3    3    0    0 -0.99278725343E+01 -0.34696892248E+02  0.19637428314E+03  0.19966295617E+03  0.00000000000E+00 0.  1.
         21    1    1    2  502  501 -0.12386553953E+03  0.29220380909E+02 -0.97199427911E+02  0.16013816325E+03  0.00000000000E+00 0.  1.
<scales pt_clust_5="13000.00000" pt_clust_6="13000.00000" pt_clust_7="13000.00000" pt_clust_8="13000.00000" pt_clust_9="83.44303"></scales>
<clustering>
<clus scale="   82.734">  5  6 -1 -1</clus>
<clus scale="   87.687">  7  8 -1 -1</clus>
<clus scale="  111.857">  2  5  1 -1</clus>
<clus scale="   83.443">  2  9  1 -1</clus>
<clus scale="  111.857">  2  5  1 -1</clus>
</clustering>
</event>
<event>
 9    2  0.6066854E-005  0.1176631E+03  0.7546771E-02  0.1251120E+00
         -1   -1    0    0    0  501 -0.00000000000E+00  0.00000000000E+00  0.35577761514E+03  0.35577761514E+03  0.00000000000E+00 0.  1.
          2   -1    0    0  502    0  0.00000000000E+00 -0.00000000000E+00 -0.93400972738E+02  0.93400972738E+02  0.00000000000E+00 0. -1.
         23    2    1    2    0    0  0.23248684309E+02 -0.53316766348E+02  0.27448939047E+03  0.29469496025E+03  0.90097254208E+02 0.  0.
         24    2    1    2    0    0 -0.44128764031E+02  0.64516126695E+02 -0.40667190552E+02  0.11737891652E+03  0.77551990544E+02 0.  0.
        -13    1    4    4    0    0 -0.45687209229E+02  0.47136684846E+01 -0.16548023970E+01  0.45959527072E+02  0.00000000000E+00 0.  1.
         14    1    4    4    0    0  0.15584451984E+01  0.59802458211E+02 -0.39012388155E+02  0.71419389447E+02  0.00000000000E+00 0. -1.
        -13    1    3    3    0    0 -0.30879939539E+02 -0.22819517200E+02  0.15882614960E+03  0.16340148967E+03  0.00000000000E+00 0. -1.
         13    1    3    3    0    0  0.54128623848E+02 -0.30497249148E+02  0.11566324088E+03  0.13129347057E+03  0.00000000000E+00 0.  1.
         21    1    1    2  502  501  0.20880079721E+02 -0.11199360347E+02  0.28554442483E+02  0.37104711114E+02  0.00000000000E+00 0. -1.
<scales pt_clust_5="13000.00000" pt_clust_6="13000.00000" pt_clust_7="13000.00000" pt_clust_8="13000.00000" pt_clust_9="23.69395"></scales>
<clustering>
<clus scale="   23.694">  1  9  2 -1</clus>
<clus scale="   77.552">  5  6 -1 -1</clus>
<clus scale="   90.097">  7  8 -1 -1</clus>
<clus scale="  108.358">  2  5  1 -1</clus>
<clus scale="  108.358">  2  5  1 -1</clus>
</clustering>
</event>
<event>
 9    2  0.6066854E-005  0.9727869E+02  0.7546771E-02  0.1295942E+00
         -1   -1    0    0    0  501 -0.00000000000E+00  0.00000000000E+00  0.16035572570E+03  0.16035572570E+03  0.00000000000E+00 0.  1.
          2   -1    0    0  502    0  0.00000000000E+00 -0.00000000000E+00 -0.13219526823E+03  0.13219526823E+03  0.00000000000E+00 0. -1.
         23    2    1    2    0    0  0.20398389861E+02 -0.67982872530E+01  0.86978440408E+02  0.12913796398E+03  0.93000288311E+02 0.  0.
         24    2    1    2    0    0 -0.25437796509E+02 -0.17123844701E+02 -0.91438788004E+02  0.12264808251E+03  0.75770658200E+02 0.  0.
        -13    1    4    4    0    0  0.26422860852E+02 -0.86330313137E+01 -0.21370284362E+02  0.35062599148E+02  0.00000000000E+00 0.  1.
         14    1    4    4    0    0 -0.51860657361E+02 -0.84908133875E+01 -0.70068503642E+02  0.87585483366E+02  0.00000000000E+00 0. -1.
        -13    1    3    3    0    0  0.26663237107E+02 -0.26112288618E+02  0.98820252702E+02  0.10563248636E+03  0.00000000000E+00 0.  1.
         13    1    3    3    0    0 -0.62648472458E+01  0.19314001365E+02 -0.11841812295E+02  0.23505477620E+02  0.00000000000E+00 0. -1.
         21    1    1    2  502  501  0.50394066476E+01  0.23922131954E+02  0.32620805063E+02  0.40764947437E+02  0.00000000000E+00 0. -1.
<scales pt_clust_5="13000.00000" pt_clust_6="13000.00000" pt_clust_7="13000.00000" pt_clust_8="13000.00000" pt_clust_9="24.44717"></scales>
<clustering>
<clus scale="   24.447">  1  9  2 -1</clus>
<clus scale="   75.771">  5  6 -1 -1</clus>
<clus scale="   80.965">  2  5  1 -1</clus>
<clus scale="   93.000">  7  8 -1 -1</clus>
<clus scale="   80.965">  2  5  1 -1</clus>
</clustering>
</event>
<event>
 9    2  0.6066854E-005  0.1069274E+03  0.7546771E-02  0.1271704E+00
          2   -1    0    0  502    0  0.00000000000E+00  0.00000000000E+00  0.39251178605E+03  0.39251178605E+03  0.00000000000E+00 0. -1.
         -1   -1    0    0    0  501 -0.00000000000E+00 -0.00000000000E+00 -0.52154712219E+02  0.52154712219E+02  0.00000000000E+00 0.  1.
         23    2    1    2    0    0  0.44815094851E+02 -0.48565537048E+02  0.53432440363E+02  0.12426789591E+03  0.90666863609E+02 0.  0.
         24    2    1    2    0    0 -0.17343120438E+02  0.52830291982E+02  0.27297054569E+03  0.28929210659E+03  0.78007567233E+02 0.  0.
        -13    1    4    4    0    0 -0.33282933678E+02  0.30624265748E+01  0.49054836765E+02  0.59359153807E+02  0.00000000000E+00 0.  1.
         14    1    4    4    0    0  0.15939813240E+02  0.49767865407E+02  0.22391570892E+03  0.22993295278E+03  0.00000000000E+00 0. -1.
        -13    1    3    3    0    0 -0.85011975772E+01 -0.50402610457E+02  0.35593928368E+01  0.51238294063E+02  0.00000000000E+00 0.  1.
         13    1    3    3    0    0  0.53316292428E+02  0.18370734095E+01  0.49873047526E+02  0.73029601851E+02  0.00000000000E+00 0. -1.
         21    1    1    2  502  501 -0.27471974413E+02 -0.42647549342E+01  0.13954087778E+02  0.31106495761E+02  0.00000000000E+00 0. -1.
<scales pt_clust_5="13000.00000" pt_clust_6="13000.00000" pt_clust_7="13000.00000" pt_clust_8="13000.00000" pt_clust_9="27.80103"></scales>
<clustering>
<clus scale="   27.801">  2  9  1 -1</clus>
<clus scale="   78.008">  5  6 -1 -1</clus>
<clus scale="   90.667">  7  8 -1 -1</clus>
<clus scale="   96.427">  1  5  2 -1</clus>
<clus scale="   96.427">  1  5  2 -1</clus>
</clustering>
</event>
<event>
 9    2  0.6066854E-005  0.9349748E+02  0.7546771E-02  0.1298633E+00
          2   -1    0    0  502    0  0.00000000000E+00  0.00000000000E+00  0.49475004185E+03  0.49475004185E+03  0.00000000000E+00 0. -1.
         -1   -1    0    0    0  501 -0.00000000000E+00 -0.00000000000E+00 -0.33674506532E+02  0.33674506532E+02  0.00000000000E+00 0.  1.
         23    2    1    2    0    0  0.48516092140E+01  0.51201582665E+01  0.10997923146E+03  0.14405724227E+03  0.92775554784E+02 0.  0.
         24    2    1    2    0    0  0.16589074902E+02  0.42290003050E+01  0.35014986962E+03  0.36095779012E+03  0.85979725524E+02 0.  0.
        -11    1    4    4    0    0 -0.14126846421E+02 -0.17589705802E+02  0.25168443493E+02  0.33799646268E+02  0.00000000000E+00 0.  1.
         12    1    4    4    0    0  0.30715921323E+02  0.21818706107E+02  0.32498142613E+03  0.32715814385E+03  0.00000000000E+00 0. -1.
        -11    1    3    3    0    0  0.26120996206E+02  0.18626161612E+02  0.11410248605E+03  0.11852686472E+03  0.00000000000E+00 0. -1.
         11    1    3    3    0    0 -0.21269386992E+02 -0.13506003345E+02 -0.41232545847E+01  0.25530377548E+02  0.00000000000E+00 0.  1.
         21    1    1    2  502  501 -0.21440684116E+02 -0.93491585715E+01  0.94643423703E+00  0.23409515995E+02  0.00000000000E+00 0.  1.
<scales pt_clust_5="13000.00000" pt_clust_6="13000.00000" pt_clust_7="13000.00000" pt_clust_8="13000.00000" pt_clust_9="23.39038"></scales>
<clustering>
<clus scale="   23.390">  2  9  1 -1</clus>
<clus scale="   85.980">  5  6 -1 -1</clus>
<clus scale="   86.758">  1  5  2 -1</clus>
<clus scale="   92.776">  7  8 -1 -1</clus>
<clus scale="   86.758">  1  5  2 -1</clus>
</clustering>
</event>
<event>
 9    2  0.1228441E-004  0.1173784E+03  0.7546771E-02  0.1250848E+00
          2   -1    0    0  502    0  0.00000000000E+00  0.00000000000E+00  0.59925450118E+03  0.59925450118E+03  0.00000000000E+00 0. -1.
         -1   -1    0    0    0  501 -0.00000000000E+00 -0.00000000000E+00 -0.79107418484E+02  0.79107418484E+02  0.00000000000E+00 0.  1.
         24    2    1    2    0    0 -0.29168234330E+02 -0.46739412385E+02 -0.16423285550E+02  0.99142215085E+02  0.80771875921E+02 0.  0.
         23    2    1    2    0    0  0.41970377906E+02  0.63866453962E+02  0.54382730603E+03  0.55663888131E+03  0.90875017705E+02 0.  0.
        -13    1    3    3    0    0 -0.19218584210E+02 -0.14524863230E+02 -0.47518663135E+02  0.53276157679E+02  0.00000000000E+00 0.  1.
         14    1    3    3    0    0 -0.99496501197E+01 -0.32214549155E+02  0.31095377586E+02  0.45866057406E+02  0.00000000000E+00 0. -1.
        -11    1    4    4    0    0 -0.61055597082E+01  0.69174952669E+02  0.28566158567E+03  0.29398128080E+03  0.00000000000E+00 0. -1.
         11    1    4    4    0    0  0.48075937615E+02 -0.53084987068E+01  0.25816572036E+03  0.26265760051E+03  0.00000000000E+00 0.  1.
         21    1    1    2  502  501 -0.12802143576E+02 -0.17127041577E+02 -0.72569377843E+01  0.22580823265E+02  0.00000000000E+00 0. -1.
<scales pt_clust_5="13000.00000" pt_clust_6="13000.00000" pt_clust_7="13000.00000" pt_clust_8="13000.00000" pt_clust_9="21.38295"></scales>
<clustering>
<clus scale="   21.383">  2  9  1 -1</clus>
<clus scale="   80.772">  5  6 -1 -1</clus>
<clus scale="   90.875">  7  8 -1 -1</clus>
<clus scale="  109.743">  2  5  1 -1</clus>
<clus scale="  117.378">  1  5  2 -1</clus>
</clustering>
</event>
<event>
 9    2  0.6066854E-005  0.1056837E+03  0.7546771E-02  0.1273829E+00
          2   -1    0    0  502    0  0.00000000000E+00  0.00000000000E+00  0.50320880314E+03  0.50320880314E+03  0.00000000000E+00 0. -1.
         -1   -1    0    0    0  501 -0.00000000000E+00 -0.00000000000E+00 -0.17745710674E+03  0.17745710674E+03  0.00000000000E+00 0.  1.
         23    2    1    2    0    0 -0.20071756126E+02 -0.58524062788E+02  0.49322053402E+02  0.12106234372E+03  0.91626878133E+02 0.  0.
         24    2    1    2    0    0  0.42769853675E+02  0.30866552899E+02  0.41013138912E+03  0.42119728596E+03  0.80108631777E+02 0.  0.
        -13    1    4    4    0    0 -0.19266436931E+02 -0.99108616278E+01  0.90230424029E+02  0.92795205644E+02  0.00000000000E+00 0.  1.
         14    1    4    4    0    0  0.62036290605E+02  0.40777414527E+02  0.31990096509E+03  0.32840208031E+03  0.00000000000E+00 0. -1.
        -13    1    3    3    0    0  0.78703755682E+01 -0.51967044624E+02 -0.11504888502E+02  0.53804079752E+02  0.00000000000E+00 0.  1.
         13    1    3    3    0    0 -0.27942131695E+02 -0.65570181639E+01  0.60826941903E+02  0.67258263969E+02  0.00000000000E+00 0. -1.
         21    1    1    2  502  501 -0.22698097548E+02  0.27657509889E+02 -0.13370174611E+03  0.13840628020E+03  0.00000000000E+00 0.  1.
<scales pt_clust_5="13000.00000" pt_clust_6="13000.00000" pt_clust_7="13000.00000" pt_clust_8="13000.00000" pt_clust_9="35.77906"></scales>
<clustering>
<clus scale="   35.779">  2  9  1 -1</clus>
<clus scale="   80.109">  5  6 -1 -1</clus>
<clus scale="   91.627">  7  8 -1 -1</clus>
<clus scale="   95.869">  1  5  2 -1</clus>
<clus scale="   95.869">  1  5  2 -1</clus>
</clustering>
</event>
<event>
 9    2  0.6066854E-005  0.1179916E+03  0.7546771E-02  0.1247376E+00
         -1   -1    0    0    0  501 -0.00000000000E+00  0.00000000000E+00  0.38957609900E+02  0.38957609900E+02  0.00000000000E+00 0.  1.
          2   -1    0    0  502    0  0.00000000000E+00 -0.00000000000E+00 -0.56358703963E+03  0.56358703963E+03  0.00000000000E+00 0. -1.
         23    2    1    2    0    0  0.32417987951E+02 -0.82976757193E+02 -0.24514478283E+03  0.27637937733E+03  0.91397633912E+02 0.  0.
         24    2    1    2    0    0 -0.38078965352E+02  0.45919503151E+02 -0.26216121302E+03  0.28486892728E+03  0.94144547091E+02 0.  0.
        -13    1    4    4    0    0 -0.67105759476E+02  0.47526179285E+02 -0.18700234460E+03  0.20428362039E+03  0.00000000000E+00 0.  1.
         14    1    4    4    0    0  0.29026794124E+02 -0.16066761341E+01 -0.75158868421E+02  0.80585306897E+02  0.00000000000E+00 0. -1.
        -11    1    3    3    0    0  0.58561252124E+02 -0.24854593221E+02 -0.13164773811E+03  0.14621319367E+03  0.00000000000E+00 0. -1.
         11    1    3    3    0    0 -0.26143264173E+02 -0.58122163972E+02 -0.11349704473E+03  0.13016618366E+03  0.00000000000E+00 0.  1.
         21    1    1    2  502  501  0.56609774010E+01  0.37057254042E+02 -0.17323433871E+02  0.41296344915E+02  0.00000000000E+00 0. -1.
<scales pt_clust_5="13000.00000" pt_clust_6="13000.00000" pt_clust_7="13000.00000" pt_clust_8="13000.00000" pt_clust_9="37.48715"></scales>
<clustering>
<clus scale="   37.487">  1  9  2 -1</clus>
<clus scale="   91.398">  7  8 -1 -1</clus>
<clus scale="   94.145">  5  6 -1 -1</clus>
<clus scale="  115.812">  1  7  2 -1</clus>
<clus scale="  117.992">  2  5  1 -1</clus>
</clustering>
</event>
<event>
 9    2  0.6066854E-005  0.9646908E+02  0.7546771E-02  0.1293061E+00
         -1   -1    0    0    0  501 -0.00000000000E+00  0.00000000000E+00  0.42103393737E+02  0.42103393737E+02  0.00000000000E+00 0.  1.
          2   -1    0    0  502    0  0.00000000000E+00 -0.00000000000E+00 -0.84628667061E+03  0.84628667061E+03  0.00000000000E+00 0. -1.
         23    2    1    2    0    0 -0.11329510403E+02  0.21839705566E+01 -0.72766212552E+02  0.11669414234E+03  0.90495710579E+02 0.  0.
         24    2    1    2    0    0  0.29192143996E+02 -0.21387527900E+02 -0.73907281422E+03  0.74437448720E+03  0.80963849140E+02 0.  0.
        -11    1    4    4    0    0 -0.30352916808E+01  0.20760366045E+02 -0.66945651846E+02  0.70156440154E+02  0.00000000000E+00 0.  1.
         12    1    4    4    0    0  0.32227435677E+02 -0.42147893945E+02 -0.67212716237E+03  0.67421804705E+03  0.00000000000E+00 0. -1.
        -13    1    3    3    0    0  0.29200227965E+02 -0.15650981316E+02 -0.63252013156E+02  0.71403247109E+02  0.00000000000E+00 0. -1.
         13    1    3    3    0    0 -0.40529738368E+02  0.17834951872E+02 -0.95141993964E+01  0.45290895229E+02  0.00000000000E+00 0.  1.
         21    1    1    2  502  501 -0.17862633593E+02  0.19203557343E+02  0.76557498934E+01  0.27321434807E+02  0.00000000000E+00 0.  1.
<scales pt_clust_5="13000.00000" pt_clust_6="13000.00000" pt_clust_7="13000.00000" pt_clust_8="13000.00000" pt_clust_9="26.22690"></scales>
<clustering>
<clus scale="   26.227">  1  9  2 -1</clus>
<clus scale="   80.964">  5  6 -1 -1</clus>
<clus scale="   87.590">  2  5  1 -1</clus>
<clus scale="   90.496">  7  8 -1 -1</clus>
<clus scale="   87.590">  2  5  1 -1</clus>
</clustering>
</event>
<event>
 9    2  0.6066854E-005  0.9843339E+02  0.7546771E-02  0.1289134E+00
          2   -1    0    0  502    0  0.00000000000E+00  0.00000000000E+00  0.21160767155E+03  0.21160767155E+03  0.00000000000E+00 0. -1.
         -1   -1    0    0    0  501 -0.00000000000E+00 -0.00000000000E+00 -0.62599570836E+02  0.62599570836E+02  0.00000000000E+00 0.  1.
         23    2    1    2    0    0 -0.25190945042E+02  0.38600730015E+02  0.51605101362E+02  0.11463599110E+03  0.91398708411E+02 0.  0.
         24    2    1    2    0    0  0.30630124491E+02 -0.14219446294E+02  0.10168018669E+03  0.13422710008E+03  0.80855778082E+02 0.  0.
        -13    1    4    4    0    0  0.46644706973E+02  0.18844538943E+02  0.51052658532E+02  0.71674397659E+02  0.00000000000E+00 0.  1.
         14    1    4    4    0    0 -0.16014582483E+02 -0.33063985236E+02  0.50627528162E+02  0.62552702417E+02  0.00000000000E+00 0. -1.
        -13    1    3    3    0    0  0.25547261149E+02 -0.13906372643E+02  0.11065913881E+02  0.31120800155E+02  0.00000000000E+00 0. -1.
         13    1    3    3    0    0 -0.50738206191E+02  0.52507102658E+02  0.40539187481E+02  0.83515190945E+02  0.00000000000E+00 0.  1.
         21    1    1    2  502  501 -0.54391794486E+01 -0.24381283721E+02 -0.42771873417E+01  0.25344151209E+02  0.00000000000E+00 0. -1.
<scales pt_clust_5="13000.00000" pt_clust_6="13000.00000" pt_clust_7="13000.00000" pt_clust_8="13000.00000" pt_clust_9="24.98063"></scales>
<clustering>
<clus scale="   24.981">  2  9  1 -1</clus>
<clus scale="   80.856">  5  6 -1 -1</clus>
<clus scale="   88.730">  1  5  2 -1</clus>
<clus scale="   91.399">  7  8 -1 -1</clus>
<clus scale="   88.730">  1  5  2 -1</clus>
</clustering>
</event>
<event>
 9    2  0.6066854E-005  0.1085585E+03  0.7546771E-02  0.1265065E+00
          2   -1    0    0  502    0  0.00000000000E+00  0.00000000000E+00  0.35093838922E+03  0.35093838922E+03  0.00000000000E+00 0. -1.
         -1   -1    0    0    0  501 -0.00000000000E+00 -0.00000000000E+00 -0.71744935066E+02  0.71744935066E+02  0.00000000000E+00 0.  1.
         24    2    1    2    0    0  0.67018689832E+02 -0.42496475844E+02  0.64220276988E+02  0.12894027358E+03  0.78764807675E+02 0.  0.
         23    2    1    2    0    0 -0.46138509104E+02  0.47311311116E+02  0.23890231695E+03  0.26162190010E+03  0.83693365248E+02 0.  0.
        -11    1    3    3    0    0  0.63393014785E+02 -0.16177834952E+02  0.69312709783E+01  0.65790874630E+02  0.00000000000E+00 0.  1.
         12    1    3    3    0    0  0.36256750475E+01 -0.26318640892E+02  0.57289006010E+02  0.63149398949E+02  0.00000000000E+00 0. -1.
        -11    1    4    4    0    0  0.18474991396E+02  0.11396370552E+02  0.16531328479E+02  0.27285296225E+02  0.00000000000E+00 0.  1.
         11    1    4    4    0    0 -0.64613500500E+02  0.35914940565E+02  0.22237098847E+03  0.23433660387E+03  0.00000000000E+00 0. -1.
         21    1    1    2  502  501 -0.20880180728E+02 -0.48148352724E+01 -0.23929139779E+02  0.32121150610E+02  0.00000000000E+00 0. -1.
<scales pt_clust_5="13000.00000" pt_clust_6="13000.00000" pt_clust_7="13000.00000" pt_clust_8="13000.00000" pt_clust_9="21.42813"></scales>
<clustering>
<clus scale="   21.428">  2  9  1 -1</clus>
<clus scale="   78.765">  5  6 -1 -1</clus>
<clus scale="   83.693">  7  8 -1 -1</clus>
<clus scale="  104.806">  2  5  1 -1</clus>
<clus scale="  108.559">  1  5  2 -1</clus>
</clustering>
</event>
<event>
 9    2  0.6066854E-005  0.1021387E+03  0.7546771E-02  0.1281032E+00
          2   -1    0    0  502    0  0.00000000000E+00  0.00000000000E+00  0.10162975831E+03  0.10162975831E+03  0.00000000000E+00 0. -1.
         -1   -1    0    0    0  501 -0.00000000000E+00 -0.00000000000E+00 -0.15751772042E+03  0.15751772042E+03  0.00000000000E+00 0.  1.
         23    2    1    2    0    0  0.18676430338E+02 -0.17827478434E+02 -0.67364038364E+02  0.11642801773E+03  0.91383486526E+02 0.  0.
         24    2    1    2    0    0 -0.52247557166E+02  0.14058481313E+02  0.33227185611E+02  0.10254065249E+03  0.80517646650E+02 0.  0.
        -11    1    4    4    0    0 -0.66697042318E+02 -0.10524162716E+02  0.16602315116E+02  0.69533375598E+02  0.00000000000E+00 0.  1.
         12    1    4    4    0    0  0.14449485152E+02  0.24582644029E+02  0.16624870495E+02  0.33007276888E+02  0.00000000000E+00 0. -1.
        -13    1    3    3    0    0 -0.17324066688E+02 -0.25283131271E+02 -0.73056905324E+02  0.79225446853E+02  0.00000000000E+00 0.  1.
         13    1    3    3    0    0  0.36000497027E+02  0.74556528374E+01  0.56928669607E+01  0.37202570874E+02  0.00000000000E+00 0. -1.
         21    1    1    2  502  501  0.33571126827E+02  0.37689971208E+01 -0.21751109354E+02  0.40178808517E+02  0.00000000000E+00 0. -1.
<scales pt_clust_5="13000.00000" pt_clust_6="13000.00000" pt_clust_7="13000.00000" pt_clust_8="13000.00000" pt_clust_9="33.78204"></scales>
<clustering>
<clus scale="   33.782">  2  9  1 -1</clus>
<clus scale="   80.518">  5  6 -1 -1</clus>
<clus scale="   91.383">  7  8 -1 -1</clus>
<clus scale="   92.544">  1  5  2 -1</clus>
<clus scale="   92.544">  1  5  2 -1</clus>
</clustering>
</event>
<event>
 9    2  0.6066854E-005  0.1392621E+03  0.7546771E-02  0.1215422E+00
          2   -1    0    0  502    0  0.00000000000E+00  0.00000000000E+00  0.57250100890E+03  0.57250100890E+03  0.00000000000E+00 0. -1.
         -1   -1    0    0    0  501 -0.00000000000E+00 -0.00000000000E+00 -0.12406558245E+03  0.12406558245E+03  0.00000000000E+00 0.  1.
         23    2    1    2    0    0  0.99120585209E+02 -0.22230091871E+02 -0.21834938431E+02  0.13817522985E+03  0.91085466522E+02 0.  0.
         24    2    1    2    0    0 -0.21230574341E+02 -0.10803028684E+03  0.30518136515E+03  0.33413927592E+03  0.79950671786E+02 0.  0.
        -13    1    4    4    0    0  0.97083717593E+01 -0.86516128830E+02  0.14118430405E+03  0.16586832350E+03  0.00000000000E+00 0.  1.
         14    1    4    4    0    0 -0.30938946100E+02 -0.21514158006E+02  0.16399706110E+03  0.16827095243E+03  0.00000000000E+00 0. -1.
        -11    1    3    3    0    0  0.78961420794E+02 -0.47391026033E+02 -0.40849874443E+02  0.10074486371E+03  0.00000000000E+00 0.  1.
         11    1    3    3    0    0  0.20159164414E+02  0.25160934162E+02  0.19014936013E+02  0.37430366140E+02  0.00000000000E+00 0. -1.
         21    1    1    2  502  501 -0.77890010867E+02  0.13026037871E+03  0.16508899973E+03  0.22425208558E+03  0.00000000000E+00 0. -1.
<scales pt_clust_5="13000.00000" pt_clust_6="13000.00000" pt_clust_7="13000.00000" pt_clust_8="13000.00000" pt_clust_9="105.34408"></scales>
<clustering>
<clus scale="   79.951">  5  6 -1 -1</clus>
<clus scale="   91.085">  7  8 -1 -1</clus>
<clus scale="  136.064">  1  5  2 -1</clus>
<clus scale="  105.344">  1  9  2 -1</clus>
<clus scale="  136.064">  1  5  2 -1</clus>
</clustering>
</event>
<event>
 9    2  0.6066854E-005  0.9394958E+02  0.7546771E-02  0.1305414E+00
         -1   -1    0    0    0  501 -0.00000000000E+00  0.00000000000E+00  0.10597382337E+03  0.10597382337E+03  0.00000000000E+00 0.  1.
          2   -1    0    0  502    0  0.00000000000E+00 -0.00000000000E+00 -0.83221750235E+03  0.83221750235E+03  0.00000000000E+00 0. -1.
         23    2    1    2    0    0 -0.22293426132E+02  0.21611920860E+02 -0.73547146831E+02  0.12215087845E+03  0.92453135847E+02 0.  0.
         24    2    1    2    0    0 -0.19846057213E+02  0.27739909484E+00 -0.72529457220E+03  0.72929165013E+03  0.73621678514E+02 0.  0.
        -11    1    4    4    0    0  0.88187437275E+01 -0.20049722718E+02 -0.77255879543E+02  0.80300887579E+02  0.00000000000E+00 0.  1.
         12    1    4    4    0    0 -0.28664800940E+02  0.20327121812E+02 -0.64803869266E+03  0.64899076255E+03  0.00000000000E+00 0. -1.
        -11    1    3    3    0    0 -0.18010878030E+02 -0.26258335783E+02 -0.66295024341E+02  0.73545374959E+02  0.00000000000E+00 0. -1.
         11    1    3    3    0    0 -0.42825481020E+01  0.47870256643E+02 -0.72521224894E+01  0.48605503494E+02  0.00000000000E+00 0.  1.
         21    1    1    2  502  501  0.42139483344E+02 -0.21889319954E+02  0.72598040054E+02  0.86748797134E+02  0.00000000000E+00 0.  1.
<scales pt_clust_5="13000.00000" pt_clust_6="13000.00000" pt_clust_7="13000.00000" pt_clust_8="13000.00000" pt_clust_9="47.48556"></scales>
<clustering>
<clus scale="   47.486">  1  9  2 -1</clus>
<clus scale="   73.622">  5  6 -1 -1</clus>
<clus scale="   75.492">  2  5  1 -1</clus>
<clus scale="   92.453">  7  8 -1 -1</clus>
<clus scale="   75.492">  2  5  1 -1</clus>
</clustering>
</event>
<event>
 9    2  0.6066854E-005  0.9330419E+02  0.7546771E-02  0.1299738E+00
          2   -1    0    0  502    0  0.00000000000E+00  0.00000000000E+00  0.36500000834E+03  0.36500000834E+03  0.00000000000E+00 0. -1.
         -1   -1    0    0    0  501 -0.00000000000E+00 -0.00000000000E+00 -0.16756212443E+03  0.16756212443E+03  0.00000000000E+00 0.  1.
         23    2    1    2    0    0  0.12495052706E+02 -0.20175557241E+02 -0.12108646365E+03  0.15251510858E+03  0.89642329358E+02 0.  0.
         24    2    1    2    0    0 -0.25819857632E+02  0.47850871620E+01  0.33990203616E+03  0.35052715690E+03  0.81525035619E+02 0.  0.
        -13    1    4    4    0    0  0.17473548620E+01 -0.25161090678E+02  0.36260332464E+02  0.44169508074E+02  0.00000000000E+00 0.  1.
         14    1    4    4    0    0 -0.27567212494E+02  0.29946177840E+02  0.30364170369E+03  0.30635764882E+03  0.00000000000E+00 0. -1.
        -13    1    3    3    0    0  0.34753495896E+02  0.30698546644E+01 -0.11445625187E+03  0.11965560194E+03  0.00000000000E+00 0.  1.
         13    1    3    3    0    0 -0.22258443190E+02 -0.23245411905E+02 -0.66302117811E+01  0.32859506633E+02  0.00000000000E+00 0. -1.
         21    1    1    2  502  501  0.13324804926E+02  0.15390470079E+02 -0.21377688597E+02  0.29519867299E+02  0.00000000000E+00 0.  1.
<scales pt_clust_5="13000.00000" pt_clust_6="13000.00000" pt_clust_7="13000.00000" pt_clust_8="13000.00000" pt_clust_9="20.35723"></scales>
<clustering>
<clus scale="   20.357">  2  9  1 -1</clus>
<clus scale="   81.525">  5  6 -1 -1</clus>
<clus scale="   85.535">  1  5  2 -1</clus>
<clus scale="   89.642">  7  8 -1 -1</clus>
<clus scale="   85.535">  1  5  2 -1</clus>
</clustering>
</event>
<event>
 9    2  0.6066854E-005  0.1202424E+03  0.7546771E-02  0.1246507E+00
         -1   -1    0    0    0  501 -0.00000000000E+00  0.00000000000E+00  0.11102269290E+03  0.11102269290E+03  0.00000000000E+00 0.  1.
          2   -1    0    0  502    0  0.00000000000E+00 -0.00000000000E+00 -0.63946824255E+03  0.63946824255E+03  0.00000000000E+00 0. -1.
         23    2    1    2    0    0 -0.37326256671E+02 -0.66860377433E+02  0.47630130931E+02  0.12872742448E+03  0.91861640160E+02 0.  0.
         24    2    1    2    0    0  0.16136004909E+02  0.76149439875E+02 -0.58604972778E+03  0.59656837120E+03  0.79877595298E+02 0.  0.
        -13    1    4    4    0    0 -0.26081013863E+02  0.55147536036E+01 -0.94909759677E+02  0.98582423754E+02  0.00000000000E+00 0.  1.
         14    1    4    4    0    0  0.42217018773E+02  0.70634686271E+02 -0.49113996811E+03  0.49798594744E+03  0.00000000000E+00 0. -1.
        -11    1    3    3    0    0 -0.52578931971E+02 -0.33299722341E+02 -0.72054081670E+01  0.62652482011E+02  0.00000000000E+00 0. -1.
         11    1    3    3    0    0  0.15252675300E+02 -0.33560655091E+02  0.54835539098E+02  0.66074942468E+02  0.00000000000E+00 0.  1.
         21    1    1    2  502  501  0.21190251762E+02 -0.92890624420E+01  0.99740472039E+01  0.25195139777E+02  0.00000000000E+00 0. -1.
<scales pt_clust_5="13000.00000" pt_clust_6="13000.00000" pt_clust_7="13000.00000" pt_clust_8="13000.00000" pt_clust_9="23.13684"></scales>
<clustering>
<clus scale="   23.137">  1  9  2 -1</clus>
<clus scale="   79.878">  5  6 -1 -1</clus>
<clus scale="   91.862">  7  8 -1 -1</clus>
<clus scale="  111.356">  2  5  1 -1</clus>
<clus scale="  111.356">  2  5  1 -1</clus>
</clustering>
</event>
<event>
 9    2  0.6066854E-005  0.1180836E+03  0.7546771E-02  0.1248770E+00
          2   -1    0    0  502    0  0.00000000000E+00  0.00000000000E+00  0.52911119262E+03  0.52911119262E+03  0.00000000000E+00 0. -1.
         -1   -1    0    0    0  501 -0.00000000000E+00 -0.00000000000E+00 -0.54241221030E+02  0.54241221030E+02  0.00000000000E+00 0.  1.
         23    2    1    2    0    0  0.51569595837E+02  0.80590028084E+02  0.97695978970E+02  0.16291702996E+03  0.88562286015E+02 0.  0.
         24    2    1    2    0    0 -0.43756075874E+02 -0.59670222844E+02  0.38216404167E+03  0.39755329605E+03  0.80772141119E+02 0.  0.
        -11    1    4    4    0    0 -0.27113573585E+02  0.14845825457E+02  0.76776072583E+02  0.82765389671E+02  0.00000000000E+00 0.  1.
         12    1    4    4    0    0 -0.16642502288E+02 -0.74516048301E+02  0.30538796909E+03  0.31478790637E+03  0.00000000000E+00 0. -1.
        -11    1    3    3    0    0  0.70613833452E+02  0.58819672483E+02  0.43924939059E+02  0.10186003935E+03  0.00000000000E+00 0.  1.
         11    1    3    3    0    0 -0.19044237616E+02  0.21770355601E+02  0.53771039911E+02  0.61056990610E+02  0.00000000000E+00 0. -1.
         21    1    1    2  502  501 -0.78135199631E+01 -0.20919805240E+02 -0.49900490443E+01  0.22882087644E+02  0.00000000000E+00 0.  1.
<scales pt_clust_5="13000.00000" pt_clust_6="13000.00000" pt_clust_7="13000.00000" pt_clust_8="13000.00000" pt_clust_9="22.33135"></scales>
<clustering>
<clus scale="   22.331">  2  9  1 -1</clus>
<clus scale="   80.772">  5  6 -1 -1</clus>
<clus scale="   88.562">  7  8 -1 -1</clus>
<clus scale="  112.359">  1  5  2 -1</clus>
<clus scale="  112.359">  1  5  2 -1</clus>
</clustering>
</event>
<event>
 9    2  0.6066854E-005  0.9610070E+02  0.7546771E-02  0.1296841E+00
         -1   -1    0    0    0  501 -0.00000000000E+00  0.00000000000E+00  0.28137483840E+02  0.28137483840E+02  0.00000000000E+00 0.  1.
          2   -1    0    0  502    0  0.00000000000E+00 -0.00000000000E+00 -0.52166584925E+03  0.52166584925E+03  0.00000000000E+00 0. -1.
         24    2    1    2    0    0 -0.36144861659E+01 -0.46222267095E+01 -0.99649503360E+02  0.12592662510E+03  0.76766281008E+02 0.  0.
         23    2    1    2    0    0 -0.18844713850E+02  0.42442097015E+02 -0.33571564470E+03  0.35095402216E+03  0.91144263326E+02 0.  0.
        -13    1    3    3    0    0 -0.34235685503E+02 -0.22432215912E+02 -0.61414618156E+02  0.73804077095E+02  0.00000000000E+00 0.  1.
         14    1    3    3    0    0  0.30621199337E+02  0.17809989202E+02 -0.38234885204E+02  0.52122548008E+02  0.00000000000E+00 0. -1.
        -11    1    4    4    0    0 -0.39729869575E+02  0.60637525253E+02 -0.20806171579E+03  0.22032941153E+03  0.00000000000E+00 0.  1.
         11    1    4    4    0    0  0.20885155725E+02 -0.18195428238E+02 -0.12765392891E+03  0.13062461063E+03  0.00000000000E+00 0. -1.
         21    1    1    2  502  501  0.22459200016E+02 -0.37819870306E+02 -0.58163217352E+02  0.72922685826E+02  0.00000000000E+00 0.  1.
<scales pt_clust_5="13000.00000" pt_clust_6="13000.00000" pt_clust_7="13000.00000" pt_clust_8="13000.00000" pt_clust_9="43.98589"></scales>
<clustering>
<clus scale="   43.986">  1  9  2 -1</clus>
<clus scale="   76.766">  5  6 -1 -1</clus>
<clus scale="   82.590">  1  5  2 -1</clus>
<clus scale="   91.144">  7  8 -1 -1</clus>
<clus scale="   96.101">  2  5  1 -1</clus>
</clustering>
</event>
<event>
 9    2  0.6307441E-005  0.9202004E+02  0.7546771E-02  0.1303537E+00
          2   -1    0    0  502    0  0.00000000000E+00  0.00000000000E+00  0.32718316131E+03  0.32718316131E+03  0.00000000000E+00 0. -1.
         -1   -1    0    0    0  501 -0.00000000000E+00 -0.00000000000E+00 -0.41354754473E+02  0.41354754473E+02  0.00000000000E+00 0.  1.
         24    2    1    2    0    0  0.10309915774E+02  0.29802856907E+02  0.41496684055E+02  0.96812340448E+02  0.81585230479E+02 0.  0.
         23    2    1    2    0    0 -0.21977510148E+01 -0.10959280119E+02  0.22768355333E+03  0.24530495556E+03  0.90607862985E+02 0.  0.
        -11    1    3    3    0    0  0.12429705227E+02  0.57800140104E+02  0.31636712229E+02  0.67053973251E+02  0.00000000000E+00 0.  1.
         12    1    3    3    0    0 -0.21197894531E+01 -0.27997283198E+02  0.98599718265E+01  0.29758367196E+02  0.00000000000E+00 0. -1.
        -13    1    4    4    0    0 -0.19647057208E+02  0.35785587101E+02  0.88925314577E+02  0.97848488357E+02  0.00000000000E+00 0.  1.
         13    1    4    4    0    0  0.17449306193E+02 -0.46744867220E+02  0.13875823875E+03  0.14745646720E+03  0.00000000000E+00 0. -1.
         21    1    1    2  502  501 -0.81121647589E+01 -0.18843576788E+02  0.16648169452E+02  0.26420619776E+02  0.00000000000E+00 0. -1.
<scales pt_clust_5="13000.00000" pt_clust_6="13000.00000" pt_clust_7="13000.00000" pt_clust_8="13000.00000" pt_clust_9="20.51555"></scales>
<clustering>
<clus scale="   20.516">  2  9  1 -1</clus>
<clus scale="   81.585">  5  6 -1 -1</clus>
<clus scale="   83.151">  2  5  1 -1</clus>
<clus scale="   90.608">  7  8 -1 -1</clus>
<clus scale="   92.020">  1  5  2 -1</clus>
</clustering>
</event>
<event>
 9    2  0.6066854E-005  0.1784787E+03  0.7546771E-02  0.1171217E+00
         -1   -1    0    0    0  501 -0.00000000000E+00  0.00000000000E+00  0.37339784982E+02  0.37339784982E+02  0.00000000000E+00 0.  1.
          2   -1    0    0  502    0  0.00000000000E+00 -0.00000000000E+00 -0.16459840211E+04  0.16459840211E+04  0.00000000000E+00 0. -1.
         23    2    1    2    0    0 -0.11986449763E+03 -0.72449297983E+02 -0.47615730740E+03  0.50454971817E+03  0.90709636473E+02 0.  0.
         24    2    1    2    0    0  0.14281318167E+03  0.72971466873E+02 -0.11407577037E+04  0.11543748977E+04  0.74382969544E+02 0.  0.
        -13    1    4    4    0    0  0.91090697493E+00  0.27701548965E+02 -0.16396439973E+03  0.16629049866E+03  0.00000000000E+00 0.  1.
         14    1    4    4    0    0  0.14190227470E+03  0.45269917907E+02 -0.97679330396E+03  0.98808439907E+03  0.00000000000E+00 0. -1.
        -13    1    3    3    0    0 -0.41071456782E+02  0.18451115975E+02 -0.16224812715E+03  0.16837981769E+03  0.00000000000E+00 0.  1.
         13    1    3    3    0    0 -0.78793040847E+02 -0.90900413958E+02 -0.31390918025E+03  0.33616990048E+03  0.00000000000E+00 0. -1.
         21    1    1    2  502  501 -0.22948684042E+02 -0.52216888938E+00  0.82707750150E+01  0.24399190129E+02  0.00000000000E+00 0.  1.
<scales pt_clust_5="13000.00000" pt_clust_6="13000.00000" pt_clust_7="13000.00000" pt_clust_8="13000.00000" pt_clust_9="22.95462"></scales>
<clustering>
<clus scale="   22.955">  1  9  2 -1</clus>
<clus scale="   74.383">  5  6 -1 -1</clus>
<clus scale="   90.710">  7  8 -1 -1</clus>
<clus scale="  170.761">  2  5  1 -1</clus>
<clus scale="  170.761">  2  5  1 -1</clus>
</clustering>
</event>
<event>
 9    2  0.6066854E-005  0.1878601E+03  0.7546771E-02  0.1161727E+00
         -1   -1    0    0    0  501 -0.00000000000E+00  0.00000000000E+00  0.17230142974E+03  0.17230142974E+03  0.00000000000E+00 0.  1.
          2   -1    0    0  502    0  0.00000000000E+00 -0.00000000000E+00 -0.39784388847E+03  0.39784388847E+03  0.00000000000E+00 0. -1.
         23    2    1    2    0    0  0.17876154505E+03  0.25825838879E+02  0.54722892005E+02  0.21128226964E+03  0.94989149982E+02 0.  0.
         24    2    1    2    0    0 -0.15667616205E+03 -0.23841211465E+02 -0.28466049585E+03  0.33625729291E+03  0.83195829352E+02 0.  0.
        -11    1    4    4    0    0 -0.45570200277E+02  0.52233045008E+01 -0.16137930412E+03  0.16777129034E+03  0.00000000000E+00 0.  1.
         12    1    4    4    0    0 -0.11110596177E+03 -0.29064515965E+02 -0.12328119173E+03  0.16848600257E+03  0.00000000000E+00 0. -1.
        -13    1    3    3    0    0  0.12840287861E+03 -0.18291488456E+02  0.62334217008E+02  0.14390077274E+03  0.00000000000E+00 0. -1.
         13    1    3    3    0    0  0.50358666439E+02  0.44117327335E+02 -0.76113250033E+01  0.67381496904E+02  0.00000000000E+00 0.  1.
         21    1    1    2  502  501 -0.22085382999E+02 -0.19846274141E+01  0.43951451110E+01  0.22605755655E+02  0.00000000000E+00 0.  1.
<scales pt_clust_5="13000.00000" pt_clust_6="13000.00000" pt_clust_7="13000.00000" pt_clust_8="13000.00000" pt_clust_9="22.17437"></scales>
<clustering>
<clus scale="   22.174">  1  9  2 -1</clus>
<clus scale="   83.196">  5  6 -1 -1</clus>
<clus scale="   94.989">  7  8 -1 -1</clus>
<clus scale="  182.181">  2  5  1 -1</clus>
<clus scale="  182.181">  2  5  1 -1</clus>
</clustering>
</event>
<event>
 9    2  0.6066854E-005  0.9992593E+02  0.7546771E-02  0.1286360E+00
         -1   -1    0    0    0  501 -0.00000000000E+00  0.00000000000E+00  0.48922296584E+02  0.48922296584E+02  0.00000000000E+00 0.  1.
          2   -1    0    0  502    0  0.00000000000E+00 -0.00000000000E+00 -0.24805094388E+03  0.24805094388E+03  0.00000000000E+00 0. -1.
         23    2    1    2    0    0 -0.34347055602E+02 -0.26239454592E+01 -0.83973268715E+02  0.13033756681E+03  0.93540184651E+02 0.  0.
         24    2    1    2    0    0  0.32524024751E+02 -0.21182683649E+02 -0.10914743218E+03  0.14201506337E+03  0.82149850874E+02 0.  0.
        -13    1    4    4    0    0  0.44141252135E+02 -0.34896324729E+02 -0.11048917569E+03  0.12399218348E+03  0.00000000000E+00 0.  1.
         14    1    4    4    0    0 -0.11617227384E+02  0.13713641080E+02  0.13417435080E+01  0.18022879886E+02  0.00000000000E+00 0. -1.
        -11    1    3    3    0    0 -0.23695205857E+02 -0.44723046270E+02 -0.66402087090E+02  0.83491621245E+02  0.00000000000E+00 0.  1.
         11    1    3    3    0    0 -0.10651849745E+02  0.42099100810E+02 -0.17571181625E+02  0.46845945563E+02  0.00000000000E+00 0. -1.
         21    1    1    2  502  501  0.18230308512E+01  0.23806629109E+02 -0.60079463993E+01  0.24620610288E+02  0.00000000000E+00 0. -1.
<scales pt_clust_5="13000.00000" pt_clust_6="13000.00000" pt_clust_7="13000.00000" pt_clust_8="13000.00000" pt_clust_9="23.87633"></scales>
<clustering>
<clus scale="   23.876">  1  9  2 -1</clus>
<clus scale="   82.150">  5  6 -1 -1</clus>
<clus scale="   89.353">  2  5  1 -1</clus>
<clus scale="   93.540">  7  8 -1 -1</clus>
<clus scale="   89.353">  2  5  1 -1</clus>
</clustering>
</event>
<event>
 9    2  0.6066854E-005  0.2308530E+03  0.7546771E-02  0.1126041E+00
         -1   -1    0    0    0  501 -0.00000000000E+00  0.00000000000E+00  0.10897416393E+03  0.10897416393E+03  0.00000000000E+00 0.  1.
          2   -1    0    0  502    0  0.00000000000E+00 -0.00000000000E+00 -0.32002939996E+03  0.32002939996E+03  0.00000000000E+00 0. -1.
         24    2    1    2    0    0  0.37078058446E+02 -0.10398987814E+03 -0.75518395011E+02  0.15060270733E+03  0.69205999009E+02 0.  0.
         23    2    1    2    0    0  0.22061975468E+02 -0.25756978018E+02 -0.58488033172E+02  0.11632584589E+03  0.94660972527E+02 0.  0.
        -13    1    3    3    0    0  0.47142531625E+02 -0.71915933401E+02 -0.24334924300E+02  0.89367266410E+02  0.00000000000E+00 0.  1.
         14    1    3    3    0    0 -0.10064473179E+02 -0.32073944734E+02 -0.51183470712E+02  0.61235440925E+02  0.00000000000E+00 0. -1.
        -11    1    4    4    0    0 -0.22478409523E+02  0.17475017232E+02  0.33987177019E+01  0.28674141731E+02  0.00000000000E+00 0. -1.
         11    1    4    4    0    0  0.44540384991E+02 -0.43231995250E+02 -0.61886750874E+02  0.87651704160E+02  0.00000000000E+00 0.  1.
         21    1    1    2  502  501 -0.59140033914E+02  0.12974685615E+03 -0.77048807843E+02  0.16207501067E+03  0.00000000000E+00 0. -1.
<scales pt_clust_5="13000.00000" pt_clust_6="13000.00000" pt_clust_7="13000.00000" pt_clust_8="13000.00000" pt_clust_9="142.58959"></scales>
<clustering>
<clus scale="   69.206">  5  6 -1 -1</clus>
<clus scale="   94.661">  7  8 -1 -1</clus>
<clus scale="   95.466">  5  7 -1 -1</clus>
<clus scale="  142.590">  1  9  2 -1</clus>
<clus scale="  230.853">  2  5  1 -1</clus>
</clustering>
</event>
<event>
 9    2  0.6066854E-005  0.1010590E+03  0.7546771E-02  0.1282963E+00
         -1   -1    0    0    0  501 -0.00000000000E+00  0.00000000000E+00  0.58845937302E+02  0.58845937302E+02  0.00000000000E+00 0.  1.
          2   -1    0    0  502    0  0.00000000000E+00 -0.00000000000E+00 -0.36462975322E+03  0.36462975322E+03  0.00000000000E+00 0. -1.
         23    2    1    2    0    0 -0.15245172784E+02 -0.75577746713E+01 -0.30958621009E+02  0.97680917897E+02  0.91069150953E+02 0.  0.
         24    2    1    2    0    0  0.40545849410E+02  0.29756235945E+02 -0.27610828229E+03  0.29211180610E+03  0.81019283079E+02 0.  0.
        -11    1    4    4    0    0 -0.15446019700E+02 -0.14845019511E+02 -0.94644406391E+02  0.97038743758E+02  0.00000000000E+00 0.  1.
         12    1    4    4    0    0  0.55991869111E+02  0.44601255456E+02 -0.18146387590E+03  0.19507306234E+03  0.00000000000E+00 0. -1.
        -13    1    3    3    0    0  0.10924783368E+02  0.31534037584E+02 -0.37483962887E+02  0.50187587028E+02  0.00000000000E+00 0. -1.
         13    1    3    3    0    0 -0.26169956152E+02 -0.39091812255E+02  0.65253418780E+01  0.47493330869E+02  0.00000000000E+00 0.  1.
         21    1    1    2  502  501 -0.25300676626E+02 -0.22198461274E+02  0.12830873830E+01  0.33682966525E+02  0.00000000000E+00 0. -1.
<scales pt_clust_5="13000.00000" pt_clust_6="13000.00000" pt_clust_7="13000.00000" pt_clust_8="13000.00000" pt_clust_9="33.65852"></scales>
<clustering>
<clus scale="   33.659">  1  9  2 -1</clus>
<clus scale="   81.019">  5  6 -1 -1</clus>
<clus scale="   91.069">  7  8 -1 -1</clus>
<clus scale="   92.106">  2  5  1 -1</clus>
<clus scale="   92.106">  2  5  1 -1</clus>
</clustering>
</event>
<event>
 9    2  0.6066854E-005  0.9482402E+02  0.7546771E-02  0.1295692E+00
         -1   -1    0    0    0  501 -0.00000000000E+00  0.00000000000E+00  0.21705499708E+02  0.21705499708E+02  0.00000000000E+00 0.  1.
          2   -1    0    0  502    0  0.00000000000E+00 -0.00000000000E+00 -0.11168813678E+04  0.11168813678E+04  0.00000000000E+00 0. -1.
         23    2    1    2    0    0  0.55026993450E+02 -0.10568142232E+01 -0.18839996159E+03  0.21722959309E+03  0.93086324043E+02 0.  0.
         24    2    1    2    0    0 -0.12184927165E+02 -0.82643388158E+00 -0.81981098258E+03  0.82439394496E+03  0.85942852406E+02 0.  0.
        -13    1    4    4    0    0 -0.16741414489E+02 -0.12987671046E+02 -0.47940037782E+02  0.52413755645E+02  0.00000000000E+00 0.  1.
         14    1    4    4    0    0  0.45564873247E+01  0.12161237165E+02 -0.77187094480E+03  0.77198018932E+03  0.00000000000E+00 0. -1.
        -11    1    3    3    0    0  0.72353552205E+02 -0.26628755447E+02 -0.12918647958E+03  0.15044358956E+03  0.00000000000E+00 0. -1.
         11    1    3    3    0    0 -0.17326558754E+02  0.25571941224E+02 -0.59213482006E+02  0.66786003530E+02  0.00000000000E+00 0.  1.
         21    1    1    2  502  501 -0.42842066286E+02  0.18832481048E+01 -0.86964923923E+02  0.96963329460E+02  0.00000000000E+00 0.  1.
<scales pt_clust_5="13000.00000" pt_clust_6="13000.00000" pt_clust_7="13000.00000" pt_clust_8="13000.00000" pt_clust_9="42.88344"></scales>
<clustering>
<clus scale="   42.883">  1  9  2 -1</clus>
<clus scale="   85.943">  5  6 -1 -1</clus>
<clus scale="   87.822">  2  5  1 -1</clus>
<clus scale="   93.086">  7  8 -1 -1</clus>
<clus scale="   87.822">  2  5  1 -1</clus>
</clustering>
</event>
<event>
 9    2  0.6066854E-005  0.1174998E+03  0.7546771E-02  0.1251452E+00
          2   -1    0    0  502    0  0.00000000000E+00  0.00000000000E+00  0.21773951882E+03  0.21773951882E+03  0.00000000000E+00 0. -1.
         -1   -1    0    0    0  501 -0.00000000000E+00 -0.00000000000E+00 -0.11565145623E+03  0.11565145623E+03  0.00000000000E+00 0.  1.
         24    2    1    2    0    0  0.50997107870E+02  0.18632802257E+02 -0.33792027349E+02  0.10113478040E+03  0.78348301597E+02 0.  0.
         23    2    1    2    0    0 -0.72067302112E+02 -0.36567265189E+02  0.15617300063E+03  0.19794292798E+03  0.90887489201E+02 0.  0.
        -13    1    3    3    0    0 -0.17812546145E+02  0.16156885882E+02  0.83669419883E+00  0.24063079993E+02  0.00000000000E+00 0.  1.
         14    1    3    3    0    0  0.68809654015E+02  0.24759163752E+01 -0.34628721547E+02  0.77071700407E+02  0.00000000000E+00 0. -1.
        -11    1    4    4    0    0  0.21853239452E+02 -0.60014505149E+01  0.33593297765E+02  0.40522723719E+02  0.00000000000E+00 0. -1.
         11    1    4    4    0    0 -0.93920541564E+02 -0.30565814674E+02  0.12257970286E+03  0.15742020426E+03  0.00000000000E+00 0.  1.
         21    1    1    2  502  501  0.21070194241E+02  0.17934462931E+02 -0.20292910685E+02  0.34313266678E+02  0.00000000000E+00 0.  1.
<scales pt_clust_5="13000.00000" pt_clust_6="13000.00000" pt_clust_7="13000.00000" pt_clust_8="13000.00000" pt_clust_9="27.66944"></scales>
<clustering>
<clus scale="   27.669">  2  9  1 -1</clus>
<clus scale="   78.348">  5  6 -1 -1</clus>
<clus scale="   90.887">  7  8 -1 -1</clus>
<clus scale="  108.093">  2  5  1 -1</clus>
<clus scale="  117.500">  1  5  2 -1</clus>
</clustering>
</event>
<event>
 9    2  0.6066854E-005  0.1186811E+03  0.7546771E-02  0.1248260E+00
          2   -1    0    0  502    0  0.00000000000E+00  0.00000000000E+00  0.90569798578E+03  0.90569798578E+03  0.00000000000E+00 0. -1.
         -1   -1    0    0    0  501 -0.00000000000E+00 -0.00000000000E+00 -0.19880309060E+02  0.19880309060E+02  0.00000000000E+00 0.  1.
         23    2    1    2    0    0  0.51803209242E+02 -0.71523901041E+02  0.49642531420E+03  0.51217562096E+03  0.89925153464E+02 0.  0.
         24    2    1    2    0    0 -0.34022463137E+02  0.58254694356E+02  0.36746634632E+03  0.38221009520E+03  0.80634383365E+02 0.  0.
        -13    1    4    4    0    0  0.11576314199E+02  0.55621751740E+02  0.24506794388E+03  0.25156726224E+03  0.00000000000E+00 0.  1.
         14    1    4    4    0    0 -0.45598777337E+02  0.26329426157E+01  0.12239840245E+03  0.13064283296E+03  0.00000000000E+00 0. -1.
        -11    1    3    3    0    0  0.40320964687E+02  0.90995172339E+01  0.22620234134E+03  0.22994799550E+03  0.00000000000E+00 0. -1.
         11    1    3    3    0    0  0.11482244555E+02 -0.80623418275E+02  0.27022297286E+03  0.28222762546E+03  0.00000000000E+00 0.  1.
         21    1    1    2  502  501 -0.17780746104E+02  0.13269206685E+02  0.21926016197E+02  0.31192578674E+02  0.00000000000E+00 0.  1.
<scales pt_clust_5="13000.00000" pt_clust_6="13000.00000" pt_clust_7="13000.00000" pt_clust_8="13000.00000" pt_clust_9="22.18618"></scales>
<clustering>
<clus scale="   22.186">  2  9  1 -1</clus>
<clus scale="   80.634">  5  6 -1 -1</clus>
<clus scale="   89.925">  7  8 -1 -1</clus>
<clus scale="  111.806">  1  5  2 -1</clus>
<clus scale="  111.806">  1  5  2 -1</clus>
</clustering>
</event>
<event>
 9    2  0.6066854E-005  0.2070268E+03  0.7546771E-02  0.1183677E+00
          2   -1    0    0  502    0  0.00000000000E+00  0.00000000000E+00  0.13144346097E+03  0.13144346097E+03  0.00000000000E+00 0. -1.
         -1   -1    0    0    0  501 -0.00000000000E+00 -0.00000000000E+00 -0.50081029330E+03  0.50081029330E+03  0.00000000000E+00 0.  1.
         23    2    1    2    0    0  0.44814523623E+02 -0.20458520543E+03 -0.19897125951E+03  0.30302225606E+03  0.91484849817E+02 0.  0.
         24    2    1    2    0    0 -0.12551219645E+02  0.37490033795E+02  0.76488207021E+01  0.82935896890E+02  0.72503950142E+02 0.  0.
        -13    1    4    4    0    0  0.17935814370E+02  0.35602925484E+02 -0.17337867820E+02  0.43472559169E+02  0.00000000000E+00 0.  1.
         14    1    4    4    0    0 -0.30487034015E+02  0.18871083107E+01  0.24986688522E+02  0.39463337721E+02  0.00000000000E+00 0. -1.
        -11    1    3    3    0    0  0.34665847728E+02 -0.13698232862E+02 -0.28988468293E+02  0.47219634436E+02  0.00000000000E+00 0. -1.
         11    1    3    3    0    0  0.10148675895E+02 -0.19088697256E+03 -0.16998279122E+03  0.25580262162E+03  0.00000000000E+00 0.  1.
         21    1    1    2  502  501 -0.32263303978E+02  0.16709517163E+03 -0.17804439352E+03  0.24629560132E+03  0.00000000000E+00 0.  1.
<scales pt_clust_5="13000.00000" pt_clust_6="13000.00000" pt_clust_7="13000.00000" pt_clust_8="13000.00000" pt_clust_9="185.71646"></scales>
<clustering>
<clus scale="   72.504">  5  6 -1 -1</clus>
<clus scale="   82.582">  1  5  2 -1</clus>
<clus scale="   91.485">  7  8 -1 -1</clus>
<clus scale="  185.716">  2  9  1 -1</clus>
<clus scale="   82.582">  1  5  2 -1</clus>
</clustering>
</event>
<event>
 9    2  0.6066854E-005  0.1374567E+03  0.7546771E-02  0.1219384E+00
         -1   -1    0    0    0  501 -0.00000000000E+00  0.00000000000E+00  0.11972462434E+03  0.11972462434E+03  0.00000000000E+00 0.  1.
          2   -1    0    0  502    0  0.00000000000E+00 -0.00000000000E+00 -0.25862306723E+03  0.25862306723E+03  0.00000000000E+00 0. -1.
         23    2    1    2    0    0 -0.44777784036E+02  0.12654872479E+03 -0.47046950089E+02  0.16973207649E+03  0.92606331257E+02 0.  0.
         24    2    1    2    0    0  0.20667810683E+02 -0.84880708646E+02 -0.10469564978E+03  0.15879105535E+03  0.81372766182E+02 0.  0.
        -13    1    4    4    0    0  0.23437714823E+02 -0.95735100017E+02 -0.10885030339E+03  0.14684319664E+03  0.00000000000E+00 0.  1.
         14    1    4    4    0    0 -0.27699041404E+01  0.10854391371E+02  0.41546536110E+01  0.11947858704E+02  0.00000000000E+00 0. -1.
        -13    1    3    3    0    0 -0.44585468763E+02  0.16766378364E+02  0.56305988703E+01  0.47965394941E+02  0.00000000000E+00 0.  1.
         13    1    3    3    0    0 -0.19231527352E+00  0.10978234642E+03 -0.52677548959E+02  0.12176668155E+03  0.00000000000E+00 0. -1.
         21    1    1    2  502  501  0.24109973353E+02 -0.41668016142E+02  0.12844156984E+02  0.49824559737E+02  0.00000000000E+00 0.  1.
<scales pt_clust_5="13000.00000" pt_clust_6="13000.00000" pt_clust_7="13000.00000" pt_clust_8="13000.00000" pt_clust_9="48.14057"></scales>
<clustering>
<clus scale="   48.141">  1  9  2 -1</clus>
<clus scale="   81.373">  5  6 -1 -1</clus>
<clus scale="   92.606">  7  8 -1 -1</clus>
<clus scale="  130.154">  2  5  1 -1</clus>
<clus scale="  130.154">  2  5  1 -1</clus>
</clustering>
</event>
<event>
 9    2  0.6066854E-005  0.1069211E+03  0.7546771E-02  0.1271455E+00
          2   -1    0    0  502    0  0.00000000000E+00  0.00000000000E+00  0.19694582734E+03  0.19694582734E+03  0.00000000000E+00 0. -1.
         -1   -1    0    0    0  501 -0.00000000000E+00 -0.00000000000E+00 -0.11335066977E+03  0.11335066977E+03  0.00000000000E+00 0.  1.
         23    2    1    2    0    0 -0.22429468814E+02 -0.30820518975E+02 -0.40082921431E+02  0.10776543318E+03  0.92486553274E+02 0.  0.
         24    2    1    2    0    0  0.58269171444E+02  0.11565791847E+02  0.12692638222E+03  0.16171709236E+03  0.80703454559E+02 0.  0.
        -11    1    4    4    0    0 -0.11581260917E+02  0.26260629647E+02  0.40194371620E+02  0.49389612104E+02  0.00000000000E+00 0.  1.
         12    1    4    4    0    0  0.69850432361E+02 -0.14694837800E+02  0.86732010600E+02  0.11232748026E+03  0.00000000000E+00 0. -1.
        -13    1    3    3    0    0 -0.37496020799E+02 -0.11113411128E+02 -0.62896281120E+02  0.74063497496E+02  0.00000000000E+00 0.  1.
         13    1    3    3    0    0  0.15066551984E+02 -0.19707107847E+02  0.22813359690E+02  0.33701935682E+02  0.00000000000E+00 0. -1.
         21    1    1    2  502  501 -0.35839702630E+02  0.19254727129E+02 -0.32483032246E+01  0.40813971569E+02  0.00000000000E+00 0. -1.
<scales pt_clust_5="13000.00000" pt_clust_6="13000.00000" pt_clust_7="13000.00000" pt_clust_8="13000.00000" pt_clust_9="40.68450"></scales>
<clustering>
<clus scale="   40.685">  2  9  1 -1</clus>
<clus scale="   80.703">  5  6 -1 -1</clus>
<clus scale="   92.487">  7  8 -1 -1</clus>
<clus scale="   96.909">  1  5  2 -1</clus>
<clus scale="   96.909">  1  5  2 -1</clus>
</clustering>
</event>
<event>
 9    2  0.6066854E-005  0.1076228E+03  0.7546771E-02  0.1269570E+00
          2   -1    0    0  502    0  0.00000000000E+00  0.00000000000E+00  0.19730292642E+03  0.19730292642E+03  0.00000000000E+00 0. -1.
         -1   -1    0    0    0  501 -0.00000000000E+00 -0.00000000000E+00 -0.17270127001E+03  0.17270127001E+03  0.00000000000E+00 0.  1.
         23    2    1    2    0    0  0.23060730273E+02 -0.69740315560E+02 -0.78617458002E+02  0.14106101919E+03  0.91224983072E+02 0.  0.
         24    2    1    2    0    0 -0.23896345604E+02  0.49559905106E+02  0.14952289346E+03  0.17842598042E+03  0.80321325262E+02 0.  0.
        -11    1    4    4    0    0  0.27714789645E+02  0.60329666529E+01  0.59341228338E+02  0.65771480388E+02  0.00000000000E+00 0.  1.
         12    1    4    4    0    0 -0.51611135249E+02  0.43526938453E+02  0.90181665126E+02  0.11265450003E+03  0.00000000000E+00 0. -1.
        -13    1    3    3    0    0 -0.55081118171E+00 -0.36426424181E+02 -0.91303272597E+02  0.98302977364E+02  0.00000000000E+00 0.  1.
         13    1    3    3    0    0  0.23611541455E+02 -0.33313891379E+02  0.12685814596E+02  0.42758041824E+02  0.00000000000E+00 0. -1.
         21    1    1    2  502  501  0.83561533152E+00  0.20180410454E+02 -0.46303779056E+02  0.50517196814E+02  0.00000000000E+00 0. -1.
<scales pt_clust_5="13000.00000" pt_clust_6="13000.00000" pt_clust_7="13000.00000" pt_clust_8="13000.00000" pt_clust_9="20.19770"></scales>
<clustering>
<clus scale="   20.198">  2  9  1 -1</clus>
<clus scale="   80.321">  5  6 -1 -1</clus>
<clus scale="   91.225">  7  8 -1 -1</clus>
<clus scale="   98.550">  1  5  2 -1</clus>
<clus scale="   98.550">  1  5  2 -1</clus>
</clustering>
</event>
<event>
 9    2  0.6066854E-005  0.1678186E+03  0.7546771E-02  0.1183206E+00
         -1   -1    0    0    0  501 -0.00000000000E+00  0.00000000000E+00  0.12588241072E+03  0.12588241072E+03  0.00000000000E+00 0.  1.
          2   -1    0    0  502    0  0.00000000000E+00 -0.00000000000E+00 -0.50490358467E+03  0.50490358467E+03  0.00000000000E+00 0. -1.
         23    2    1    2    0    0 -0.24181398581E+02 -0.14655581636E+03 -0.12176968056E+03  0.21272445507E+03  0.91435722424E+02 0.  0.
         24    2    1    2    0    0  0.10122633153E+01  0.11854813034E+03 -0.31263763863E+03  0.35181303551E+03  0.10943233061E+03 0.  0.
        -11    1    4    4    0    0  0.19849646499E+02  0.13486170690E+03 -0.25960162490E+03  0.29321441320E+03  0.00000000000E+00 0.  1.
         12    1    4    4    0    0 -0.18837383184E+02 -0.16313576557E+02 -0.53036013725E+02  0.58598622315E+02  0.00000000000E+00 0. -1.
        -11    1    3    3    0    0  0.22538204293E+02 -0.44460984628E+02 -0.77264587444E+02  0.91948715487E+02  0.00000000000E+00 0.  1.
         11    1    3    3    0    0 -0.46719602873E+02 -0.10209483173E+03 -0.44505093118E+02  0.12077573958E+03  0.00000000000E+00 0. -1.
         21    1    1    2  502  501  0.23169135265E+02  0.28007686017E+02  0.55386145243E+02  0.66248504812E+02  0.00000000000E+00 0. -1.
<scales pt_clust_5="13000.00000" pt_clust_6="13000.00000" pt_clust_7="13000.00000" pt_clust_8="13000.00000" pt_clust_9="36.34886"></scales>
<clustering>
<clus scale="   36.349">  1  9  2 -1</clus>
<clus scale="   91.436">  7  8 -1 -1</clus>
<clus scale="  109.432">  5  6 -1 -1</clus>
<clus scale="  156.679">  1  7  2 -1</clus>
<clus scale="  167.819">  2  5  1 -1</clus>
</clustering>
</event>
<event>
 9    2  0.6066854E-005  0.1476720E+03  0.7546771E-02  0.1206117E+00
         -1   -1    0    0    0  501 -0.00000000000E+00  0.00000000000E+00  0.11923878298E+03  0.11923878298E+03  0.00000000000E+00 0.  1.
          2   -1    0    0  502    0  0.00000000000E+00 -0.00000000000E+00 -0.16548169822E+04  0.16548169822E+04  0.00000000000E+00 0. -1.
         23    2    1    2    0    0 -0.14418838613E+02  0.11014820511E+03 -0.20444472412E+02  0.14630334432E+03  0.92984741278E+02 0.  0.
         24    2    1    2    0    0  0.46526895000E+02 -0.10529094827E+03 -0.15633827780E+04  0.15695932327E+04  0.78779881599E+02 0.  0.
        -11    1    4    4    0    0 -0.14938084654E+02 -0.26937759995E+02 -0.17880200845E+03  0.18143579446E+03  0.00000000000E+00 0.  1.
         12    1    4    4    0    0  0.61464979654E+02 -0.78353188276E+02 -0.13845807696E+04  0.13881574382E+04  0.00000000000E+00 0. -1.
        -11    1    3    3    0    0  0.19551679822E+02  0.40807545538E+02 -0.46430639039E+02  0.64833079506E+02  0.00000000000E+00 0. -1.
         11    1    3    3    0    0 -0.33970518435E+02  0.69340659572E+02  0.25986166627E+02  0.81470264812E+02  0.00000000000E+00 0.  1.
         21    1    1    2  502  501 -0.32108056387E+02 -0.48572568397E+01  0.48249051202E+02  0.58159188190E+02  0.00000000000E+00 0. -1.
<scales pt_clust_5="13000.00000" pt_clust_6="13000.00000" pt_clust_7="13000.00000" pt_clust_8="13000.00000" pt_clust_9="32.47338"></scales>
<clustering>
<clus scale="   32.473">  1  9  2 -1</clus>
<clus scale="   78.780">  5  6 -1 -1</clus>
<clus scale="   92.985">  7  8 -1 -1</clus>
<clus scale="  139.166">  2  5  1 -1</clus>
<clus scale="  139.166">  2  5  1 -1</clus>
</clustering>
</event>
<event>
 9    2  0.6066854E-005  0.1781397E+03  0.7546771E-02  0.1171009E+00
         -1   -1    0    0    0  501 -0.00000000000E+00  0.00000000000E+00  0.55569219734E+03  0.55569219734E+03  0.00000000000E+00 0.  1.
          2   -1    0    0  502    0  0.00000000000E+00 -0.00000000000E+00 -0.21602305347E+03  0.21602305347E+03  0.00000000000E+00 0. -1.
         23    2    1    2    0    0  0.91697246348E+02 -0.56746206906E+02  0.29258044508E+03  0.32521971044E+03  0.92390617652E+02 0.  0.
         24    2    1    2    0    0 -0.10765441382E+03  0.10630065494E+03 -0.15388935642E+03  0.23888423723E+03  0.10244238734E+03 0.  0.
        -11    1    4    4    0    0 -0.17680507009E+02  0.89387773202E+02 -0.74174810626E+02  0.11749330559E+03  0.00000000000E+00 0.  1.
         12    1    4    4    0    0 -0.89973906807E+02  0.16912881736E+02 -0.79714545799E+02  0.12139093165E+03  0.00000000000E+00 0. -1.
        -11    1    3    3    0    0  0.64359216609E+02 -0.47297945282E+01  0.23205485554E+03  0.24086082225E+03  0.00000000000E+00 0.  1.
         11    1    3    3    0    0  0.27338029740E+02 -0.52016412378E+02  0.60525589548E+02  0.84358888191E+02  0.00000000000E+00 0. -1.
         21    1    1    2  502  501  0.15957167467E+02 -0.49554448031E+02  0.20097805521E+03  0.20761130313E+03  0.00000000000E+00 0.  1.
<scales pt_clust_5="13000.00000" pt_clust_6="13000.00000" pt_clust_7="13000.00000" pt_clust_8="13000.00000" pt_clust_9="52.06030"></scales>
<clustering>
<clus scale="   52.060">  1  9  2 -1</clus>
<clus scale="   92.391">  7  8 -1 -1</clus>
<clus scale="  102.442">  5  6 -1 -1</clus>
<clus scale="  172.555">  1  7  2 -1</clus>
<clus scale="  178.140">  2  5  1 -1</clus>
</clustering>
</event>
<event>
 9    2  0.6066854E-005  0.1513836E+03  0.7546771E-02  0.1199344E+00
          2   -1    0    0  502    0  0.00000000000E+00  0.00000000000E+00  0.67922463333E+03  0.67922463333E+03  0.00000000000E+00 0. -1.
         -1   -1    0    0    0  501 -0.00000000000E+00 -0.00000000000E+00 -0.40330219867E+02  0.40330219867E+02  0.00000000000E+00 0.  1.
         24    2    1    2    0    0 -0.11447873103E+03  0.33784021109E+02  0.27879876678E+03  0.31588944056E+03  0.88377861262E+02 0.  0.
         23    2    1    2    0    0  0.12174739931E+03 -0.14193507620E+02  0.34647074358E+03  0.37872027800E+03  0.91450466982E+02 0.  0.
        -11    1    3    3    0    0 -0.48378099511E+02  0.59435547224E+02  0.16282886788E+03  0.17996184318E+03  0.00000000000E+00 0.  1.
         12    1    3    3    0    0 -0.66100631523E+02 -0.25651526115E+02  0.11596989890E+03  0.13592759738E+03  0.00000000000E+00 0. -1.
        -13    1    4    4    0    0  0.86841016393E+02  0.12330600272E+02  0.30848558970E+03  0.32071290103E+03  0.00000000000E+00 0. -1.
         13    1    4    4    0    0  0.34906382918E+02 -0.26524107891E+02  0.37985153880E+02  0.58007376971E+02  0.00000000000E+00 0.  1.
         21    1    1    2  502  501 -0.72686682777E+01 -0.19590513490E+02  0.13624903100E+02  0.24945134632E+02  0.00000000000E+00 0.  1.
<scales pt_clust_5="13000.00000" pt_clust_6="13000.00000" pt_clust_7="13000.00000" pt_clust_8="13000.00000" pt_clust_9="20.89550"></scales>
<clustering>
<clus scale="   20.895">  2  9  1 -1</clus>
<clus scale="   88.378">  5  6 -1 -1</clus>
<clus scale="   91.450">  7  8 -1 -1</clus>
<clus scale="  149.548">  2  5  1 -1</clus>
<clus scale="  151.384">  1  5  2 -1</clus>
</clustering>
</event>
<event>
 9    2  0.6066854E-005  0.1234470E+03  0.7546771E-02  0.1242659E+00
          2   -1    0    0  502    0  0.00000000000E+00  0.00000000000E+00  0.24364565346E+03  0.24364565346E+03  0.00000000000E+00 0. -1.
         -1   -1    0    0    0  501 -0.00000000000E+00 -0.00000000000E+00 -0.82218183310E+02  0.82218183310E+02  0.00000000000E+00 0.  1.
         24    2    1    2    0    0  0.10204182404E+02  0.93086140629E+02  0.71005845185E+02  0.14151535803E+03  0.78839150118E+02 0.  0.
         23    2    1    2    0    0 -0.35630046824E+02 -0.57461946666E+02  0.66707653305E+02  0.13456986658E+03  0.95329756269E+02 0.  0.
        -11    1    3    3    0    0 -0.17568792877E+02  0.35954307801E+02 -0.73055467828E+01  0.40678566179E+02  0.00000000000E+00 0.  1.
         12    1    3    3    0    0  0.27772975281E+02  0.57131832828E+02  0.78311391968E+02  0.10083679185E+03  0.00000000000E+00 0. -1.
        -11    1    4    4    0    0 -0.96156026846E+01 -0.75660723688E+02  0.21342975896E+02  0.79199290048E+02  0.00000000000E+00 0.  1.
         11    1    4    4    0    0 -0.26014444139E+02  0.18198777022E+02  0.45364677409E+02  0.55370576531E+02  0.00000000000E+00 0. -1.
         21    1    1    2  502  501  0.25425864420E+02 -0.35624193963E+02  0.23713971659E+02  0.49778612163E+02  0.00000000000E+00 0. -1.
<scales pt_clust_5="13000.00000" pt_clust_6="13000.00000" pt_clust_7="13000.00000" pt_clust_8="13000.00000" pt_clust_9="43.76709"></scales>
<clustering>
<clus scale="   43.767">  2  9  1 -1</clus>
<clus scale="   78.839">  5  6 -1 -1</clus>
<clus scale="   95.330">  7  8 -1 -1</clus>
<clus scale="  111.207">  2  5  1 -1</clus>
<clus scale="  123.447">  1  5  2 -1</clus>
</clustering>
</event>
<event>
 9    2  0.6066854E-005  0.1814648E+03  0.7546771E-02  0.1192596E+00
          2   -1    0    0  502    0  0.00000000000E+00  0.00000000000E+00  0.31867870515E+03  0.31867870515E+03  0.00000000000E+00 0. -1.
         -1   -1    0    0    0  501 -0.00000000000E+00 -0.00000000000E+00 -0.42615140071E+03  0.42615140071E+03  0.00000000000E+00 0.  1.
         24    2    1    2    0    0  0.47083878358E+01 -0.56654958492E+02 -0.10737413429E+03  0.14715931548E+03  0.83034367468E+02 0.  0.
         23    2    1    2    0    0  0.28492438668E+02  0.15867557053E+03  0.25798434083E+03  0.31817609540E+03  0.93222056565E+02 0.  0.
        -13    1    3    3    0    0  0.43596678064E+01 -0.77047190810E+02 -0.97934900891E+02  0.12468568935E+03  0.00000000000E+00 0.  1.
         14    1    3    3    0    0  0.34872002939E+00  0.20392232318E+02 -0.94392333994E+01  0.22473626137E+02  0.00000000000E+00 0. -1.
        -13    1    4    4    0    0  0.31086138406E+02  0.53115865869E+02  0.33436194860E+02  0.70040148020E+02  0.00000000000E+00 0.  1.
         13    1    4    4    0    0 -0.25936997382E+01  0.10555970466E+03  0.22454814597E+03  0.24813594738E+03  0.00000000000E+00 0. -1.
         21    1    1    2  502  501 -0.33200826504E+02 -0.10202061204E+03 -0.25808290210E+03  0.27949469497E+03  0.00000000000E+00 0.  1.
<scales pt_clust_5="13000.00000" pt_clust_6="13000.00000" pt_clust_7="13000.00000" pt_clust_8="13000.00000" pt_clust_9="155.68916"></scales>
<clustering>
<clus scale="   83.034">  5  6 -1 -1</clus>
<clus scale="   93.222">  7  8 -1 -1</clus>
<clus scale="  100.631">  2  5  1 -1</clus>
<clus scale="  155.689">  2  9  1 -1</clus>
<clus scale="  181.465">  1  5  2 -1</clus>
</clustering>
</event>
<event>
 9    2  0.6066854E-005  0.9868795E+02  0.7546771E-02  0.1289330E+00
         -1   -1    0    0    0  501 -0.00000000000E+00  0.00000000000E+00  0.13370956265E+03  0.13370956265E+03  0.00000000000E+00 0.  1.
          2   -1    0    0  502    0  0.00000000000E+00 -0.00000000000E+00 -0.23266444426E+03  0.23266444426E+03  0.00000000000E+00 0. -1.
         23    2    1    2    0    0 -0.26306070848E+02 -0.25038862352E+02  0.18073977134E+02  0.10092386781E+03  0.92412144512E+02 0.  0.
         24    2    1    2    0    0  0.35830204027E+02 -0.91911883294E+01 -0.17572717041E+03  0.19683602047E+03  0.80598381304E+02 0.  0.
        -11    1    4    4    0    0  0.17522948946E+02  0.14345507656E+02 -0.45722775681E+01  0.23103096152E+02  0.00000000000E+00 0.  1.
         12    1    4    4    0    0  0.18307255081E+02 -0.23536695985E+02 -0.17115489284E+03  0.17373292431E+03  0.00000000000E+00 0. -1.
        -13    1    3    3    0    0  0.66802291147E+01  0.23842887335E+02  0.31872567361E+02  0.40360491668E+02  0.00000000000E+00 0.  1.
         13    1    3    3    0    0 -0.32986299963E+02 -0.48881749687E+02 -0.13798590227E+02  0.60563376144E+02  0.00000000000E+00 0. -1.
         21    1    1    2  502  501 -0.95241331789E+01  0.34230050681E+02  0.58698311666E+02  0.68614118627E+02  0.00000000000E+00 0.  1.
<scales pt_clust_5="13000.00000" pt_clust_6="13000.00000" pt_clust_7="13000.00000" pt_clust_8="13000.00000" pt_clust_9="35.53035"></scales>
<clustering>
<clus scale="   35.530">  1  9  2 -1</clus>
<clus scale="   80.598">  5  6 -1 -1</clus>
<clus scale="   87.723">  2  5  1 -1</clus>
<clus scale="   92.412">  7  8 -1 -1</clus>
<clus scale="   87.723">  2  5  1 -1</clus>
</clustering>
</event>
<event>
 9    2  0.6066854E-005  0.9015086E+02  0.7546771E-02  0.1309500E+00
         -1   -1    0    0    0  501 -0.00000000000E+00  0.00000000000E+00  0.15612129391E+02  0.15612129391E+02  0.00000000000E+00 0.  1.
          2   -1    0    0  502    0  0.00000000000E+00 -0.00000000000E+00 -0.72419445473E+03  0.72419445473E+03  0.00000000000E+00 0. -1.
         23    2    1    2    0    0  0.22447085386E+01 -0.36564434456E+01 -0.18148162868E+03  0.20259308475E+03  0.89944250207E+02 0.  0.
         24    2    1    2    0    0 -0.13063178571E+02 -0.15590771707E+02 -0.41851565065E+03  0.42640642919E+03  0.79078279064E+02 0.  0.
        -13    1    4    4    0    0  0.24966889602E+02 -0.18883583606E+02 -0.82668798711E+02  0.88397203500E+02  0.00000000000E+00 0.  1.
         14    1    4    4    0    0 -0.38030068173E+02  0.32928118990E+01 -0.33584685194E+03  0.33800922569E+03  0.00000000000E+00 0. -1.
        -13    1    3    3    0    0 -0.15196856031E+02  0.32922110138E+02 -0.13993196224E+03  0.14455367109E+03  0.00000000000E+00 0.  1.
         13    1    3    3    0    0  0.17441564569E+02 -0.36578553584E+02 -0.41549666443E+02  0.58039413664E+02  0.00000000000E+00 0. -1.
         21    1    1    2  502  501  0.10818470032E+02  0.19247215152E+02 -0.10858504600E+03  0.11080707017E+03  0.00000000000E+00 0. -1.
<scales pt_clust_5="13000.00000" pt_clust_6="13000.00000" pt_clust_7="13000.00000" pt_clust_8="13000.00000" pt_clust_9="22.07928"></scales>
<clustering>
<clus scale="   22.079">  2  9  1 -1</clus>
<clus scale="   79.078">  5  6 -1 -1</clus>
<clus scale="   79.313">  2  5  1 -1</clus>
<clus scale="   89.944">  7  8 -1 -1</clus>
<clus scale="   22.079">  2  5  1 -1</clus>
</clustering>
</event>
<event>
 9    2  0.6066854E-005  0.2027470E+03  0.7546771E-02  0.1148954E+00
          2   -1    0    0  502    0  0.00000000000E+00  0.00000000000E+00  0.12772026845E+04  0.12772026845E+04  0.00000000000E+00 0. -1.
         -1   -1    0    0    0  501 -0.00000000000E+00 -0.00000000000E+00 -0.16913387564E+03  0.16913387564E+03  0.00000000000E+00 0.  1.
         23    2    1    2    0    0  0.15818179103E+03 -0.64658065821E+02 -0.91814187963E+02  0.21680383559E+03  0.96808643862E+02 0.  0.
         24    2    1    2    0    0 -0.17479224973E+03  0.36994989804E+02  0.11673913923E+04  0.11837412682E+04  0.80745075908E+02 0.  0.
        -13    1    4    4    0    0 -0.12244745024E+03  0.22654517867E+02  0.54770109423E+03  0.56167881736E+03  0.00000000000E+00 0.  1.
         14    1    4    4    0    0 -0.52344799499E+02  0.14340471938E+02  0.61969029812E+03  0.62206245084E+03  0.00000000000E+00 0. -1.
        -11    1    3    3    0    0 -0.29641939233E+01 -0.31803372215E+02 -0.15106452008E+02  0.35333352829E+02  0.00000000000E+00 0. -1.
         11    1    3    3    0    0  0.16114598495E+03 -0.32854693606E+02 -0.76707735956E+02  0.18147048276E+03  0.00000000000E+00 0.  1.
         21    1    1    2  502  501  0.16610458706E+02  0.27663076017E+02  0.32491604512E+02  0.45791456375E+02  0.00000000000E+00 0. -1.
<scales pt_clust_5="13000.00000" pt_clust_6="13000.00000" pt_clust_7="13000.00000" pt_clust_8="13000.00000" pt_clust_9="32.26690"></scales>
<clustering>
<clus scale="   32.267">  2  9  1 -1</clus>
<clus scale="   80.745">  5  6 -1 -1</clus>
<clus scale="   96.809">  7  8 -1 -1</clus>
<clus scale="  195.587">  1  5  2 -1</clus>
<clus scale="  195.587">  1  5  2 -1</clus>
</clustering>
</event>
<event>
 9    2  0.6066854E-005  0.1070420E+03  0.7546771E-02  0.1276157E+00
         -1   -1    0    0    0  501 -0.00000000000E+00  0.00000000000E+00  0.38259941959E+02  0.38259941959E+02  0.00000000000E+00 0.  1.
          2   -1    0    0  502    0  0.00000000000E+00 -0.00000000000E+00 -0.66614108806E+03  0.66614108806E+03  0.00000000000E+00 0. -1.
         23    2    1    2    0    0 -0.41531078803E+01  0.21058919292E+02 -0.18328430815E+03  0.21022519563E+03  0.10070138468E+03 0.  0.
         24    2    1    2    0    0  0.19696603055E+02 -0.36441363567E+02 -0.45910445814E+03  0.46793291386E+03  0.80426234744E+02 0.  0.
        -13    1    4    4    0    0 -0.17395737702E+02 -0.47650524499E+02 -0.29385256204E+03  0.29819878000E+03  0.00000000000E+00 0.  1.
         14    1    4    4    0    0  0.37092340757E+02  0.11209160931E+02 -0.16525189611E+03  0.16973413386E+03  0.00000000000E+00 0. -1.
        -13    1    3    3    0    0  0.20431208224E+02  0.42632054366E+02 -0.36186051670E+02  0.59534499783E+02  0.00000000000E+00 0.  1.
         13    1    3    3    0    0 -0.24584316104E+02 -0.21573135074E+02 -0.14709825648E+03  0.15069069585E+03  0.00000000000E+00 0. -1.
         21    1    1    2  502  501 -0.15543495175E+02  0.15382444275E+02  0.14507620195E+02  0.26242920528E+02  0.00000000000E+00 0.  1.
<scales pt_clust_5="13000.00000" pt_clust_6="13000.00000" pt_clust_7="13000.00000" pt_clust_8="13000.00000" pt_clust_9="21.86824"></scales>
<clustering>
<clus scale="   21.868">  1  9  2 -1</clus>
<clus scale="   80.426">  5  6 -1 -1</clus>
<clus scale="   88.236">  2  5  1 -1</clus>
<clus scale="  100.701">  7  8 -1 -1</clus>
<clus scale="   88.236">  2  5  1 -1</clus>
</clustering>
</event>
<event>
 9    2  0.6066854E-005  0.9708512E+02  0.7546771E-02  0.1292298E+00
         -1   -1    0    0    0  501 -0.00000000000E+00  0.00000000000E+00  0.20487268793E+03  0.20487268793E+03  0.00000000000E+00 0.  1.
          2   -1    0    0  502    0  0.00000000000E+00 -0.00000000000E+00 -0.41588443481E+03  0.41588443481E+03  0.00000000000E+00 0. -1.
         23    2    1    2    0    0  0.83199262869E+01 -0.48577860538E+02 -0.86817138001E+01  0.10418866355E+03  0.91383126182E+02 0.  0.
         24    2    1    2    0    0  0.75571673747E+01  0.30438068930E+02 -0.35325788264E+03  0.36372752908E+03  0.80765072547E+02 0.  0.
        -13    1    4    4    0    0 -0.21397398056E+02 -0.12063811278E+02 -0.45545285438E+02  0.51747050271E+02  0.00000000000E+00 0.  1.
         14    1    4    4    0    0  0.28954565431E+02  0.42501880208E+02 -0.30771259720E+03  0.31198047881E+03  0.00000000000E+00 0. -1.
        -11    1    3    3    0    0 -0.37535461482E+02 -0.20139023152E+02  0.15138039077E+02  0.45206762208E+02  0.00000000000E+00 0.  1.
         11    1    3    3    0    0  0.45855387769E+02 -0.28438837385E+02 -0.23819752877E+02  0.58981901346E+02  0.00000000000E+00 0. -1.
         21    1    1    2  502  501 -0.15877093662E+02  0.18139791607E+02  0.15092784956E+03  0.15284093011E+03  0.00000000000E+00 0.  1.
<scales pt_clust_5="13000.00000" pt_clust_6="13000.00000" pt_clust_7="13000.00000" pt_clust_8="13000.00000" pt_clust_9="24.10672"></scales>
<clustering>
<clus scale="   24.107">  1  9  2 -1</clus>
<clus scale="   80.765">  5  6 -1 -1</clus>
<clus scale="   87.164">  2  5  1 -1</clus>
<clus scale="   91.383">  7  8 -1 -1</clus>
<clus scale="   87.164">  2  5  1 -1</clus>
</clustering>
</event>
<event>
 9    2  0.6066854E-005  0.2887288E+03  0.7546771E-02  0.1122814E+00
          2   -1    0    0  502    0  0.00000000000E+00  0.00000000000E+00  0.16926536408E+04  0.16926536408E+04  0.00000000000E+00 0. -1.
         -1   -1    0    0    0  501 -0.00000000000E+00 -0.00000000000E+00 -0.78983755019E+02  0.78983755019E+02  0.00000000000E+00 0.  1.
         24    2    1    2    0    0  0.71991496991E+02 -0.67995217583E+02  0.19400844438E+03  0.23233636177E+03  0.80838006275E+02 0.  0.
         23    2    1    2    0    0  0.21729763995E+03  0.44128593437E+02  0.33804295303E+03  0.41940980054E+03  0.11165099913E+03 0.  0.
        -13    1    3    3    0    0 -0.42174358429E+01 -0.37612742474E+02  0.27730688800E+02  0.46920105103E+02  0.00000000000E+00 0.  1.
         14    1    3    3    0    0  0.76208932834E+02 -0.30382475109E+02  0.16627775558E+03  0.18541625667E+03  0.00000000000E+00 0. -1.
        -11    1    4    4    0    0  0.98027595138E+02 -0.26439182392E+02  0.91947614669E+02  0.13697738360E+03  0.00000000000E+00 0. -1.
         11    1    4    4    0    0  0.11927004481E+03  0.70567775829E+02  0.24609533836E+03  0.28243241694E+03  0.00000000000E+00 0.  1.
         21    1    1    2  502  501 -0.28928913694E+03  0.23866624146E+02  0.10816184884E+04  0.11198912335E+04  0.00000000000E+00 0. -1.
<scales pt_clust_5="13000.00000" pt_clust_6="13000.00000" pt_clust_7="13000.00000" pt_clust_8="13000.00000" pt_clust_9="266.26743"></scales>
<clustering>
<clus scale="   80.838">  5  6 -1 -1</clus>
<clus scale="  111.651">  7  8 -1 -1</clus>
<clus scale="  127.832">  2  5  1 -1</clus>
<clus scale="  266.267">  1  9  2 -1</clus>
<clus scale="  266.267">  1  5  2 -1</clus>
</clustering>
</event>
<event>
 9    2  0.6066854E-005  0.9293558E+02  0.7546771E-02  0.1303778E+00
         -1   -1    0    0    0  501 -0.00000000000E+00  0.00000000000E+00  0.17680140747E+02  0.17680140747E+02  0.00000000000E+00 0.  1.
          2   -1    0    0  502    0  0.00000000000E+00 -0.00000000000E+00 -0.80851137569E+03  0.80851137569E+03  0.00000000000E+00 0. -1.
         23    2    1    2    0    0 -0.13334203802E+02  0.22332907837E+02 -0.20626787103E+03  0.22663565221E+03  0.90225963373E+02 0.  0.
         24    2    1    2    0    0 -0.24583972115E+02 -0.14360665787E+02 -0.49749186977E+03  0.50425219274E+03  0.77210834653E+02 0.  0.
        -13    1    4    4    0    0  0.22300409559E+02  0.98795726923E+01 -0.86090743450E+02  0.89479217312E+02  0.00000000000E+00 0.  1.
         14    1    4    4    0    0 -0.46884381674E+02 -0.24240238479E+02 -0.41140112632E+03  0.41477297543E+03  0.00000000000E+00 0. -1.
        -11    1    3    3    0    0  0.24941343259E+02  0.22969512602E+02 -0.27049392369E+02  0.43374401901E+02  0.00000000000E+00 0.  1.
         11    1    3    3    0    0 -0.38275547061E+02 -0.63660476476E+00 -0.17921847866E+03  0.18326125030E+03  0.00000000000E+00 0. -1.
         21    1    1    2  502  501  0.37918175916E+02 -0.79722420504E+01 -0.87071494132E+02  0.95303671485E+02  0.00000000000E+00 0.  1.
<scales pt_clust_5="13000.00000" pt_clust_6="13000.00000" pt_clust_7="13000.00000" pt_clust_8="13000.00000" pt_clust_9="38.74719"></scales>
<clustering>
<clus scale="   38.747">  1  9  2 -1</clus>
<clus scale="   77.211">  5  6 -1 -1</clus>
<clus scale="   80.360">  2  5  1 -1</clus>
<clus scale="   90.226">  7  8 -1 -1</clus>
<clus scale="   80.360">  2  5  1 -1</clus>
</clustering>
</event>
<event>
 9    2  0.6066854E-005  0.1972283E+03  0.7546771E-02  0.1153183E+00
          2   -1    0    0  502    0  0.00000000000E+00  0.00000000000E+00  0.14874793003E+04  0.14874793003E+04  0.00000000000E+00 0. -1.
         -1   -1    0    0    0  501 -0.00000000000E+00 -0.00000000000E+00 -0.15085128494E+03  0.15085128494E+03  0.00000000000E+00 0.  1.
         23    2    1    2    0    0  0.10570711171E+03  0.11249129219E+03 -0.75251011908E+02  0.19484326901E+03  0.92048359025E+02 0.  0.
         24    2    1    2    0    0 -0.10261096675E+03 -0.14235281431E+03  0.13964145452E+04  0.14097168140E+04  0.80836744994E+02 0.  0.
        -13    1    4    4    0    0 -0.42089199891E+02 -0.96356911830E+02  0.55479503749E+03  0.56467131043E+03  0.00000000000E+00 0.  1.
         14    1    4    4    0    0 -0.60521766856E+02 -0.45995902481E+02  0.84161950772E+03  0.84504550356E+03  0.00000000000E+00 0. -1.
        -11    1    3    3    0    0  0.29001279355E+02 -0.13064991505E+02 -0.20558455771E+02  0.37873715304E+02  0.00000000000E+00 0. -1.
         11    1    3    3    0    0  0.76705832358E+02  0.12555628370E+03 -0.54692556138E+02  0.15696955371E+03  0.00000000000E+00 0.  1.
         21    1    1    2  502  501 -0.30961449667E+01  0.29861522119E+02  0.15464482090E+02  0.33770502265E+02  0.00000000000E+00 0. -1.
<scales pt_clust_5="13000.00000" pt_clust_6="13000.00000" pt_clust_7="13000.00000" pt_clust_8="13000.00000" pt_clust_9="30.02160"></scales>
<clustering>
<clus scale="   30.022">  2  9  1 -1</clus>
<clus scale="   80.837">  5  6 -1 -1</clus>
<clus scale="   92.048">  7  8 -1 -1</clus>
<clus scale="  192.252">  1  5  2 -1</clus>
<clus scale="  192.252">  1  5  2 -1</clus>
</clustering>
</event>
<event>
 9    2  0.6066854E-005  0.1078870E+03  0.7546771E-02  0.1268704E+00
         -1   -1    0    0    0  501 -0.00000000000E+00  0.00000000000E+00  0.46470221367E+02  0.46470221367E+02  0.00000000000E+00 0.  1.
          2   -1    0    0  502    0  0.00000000000E+00 -0.00000000000E+00 -0.43953634952E+03  0.43953634952E+03  0.00000000000E+00 0. -1.
         23    2    1    2    0    0 -0.28073916613E+02  0.60607160568E+02 -0.54280545008E+02  0.12474130323E+03  0.90291984468E+02 0.  0.
         24    2    1    2    0    0  0.15857403802E+02 -0.29813568777E+02 -0.28633114081E+03  0.29922530472E+03  0.80062192370E+02 0.  0.
        -11    1    4    4    0    0 -0.49136700122E+01  0.20703397329E+02 -0.27917245916E+02  0.35101957687E+02  0.00000000000E+00 0.  1.
         12    1    4    4    0    0  0.20771073814E+02 -0.50516966106E+02 -0.25841389490E+03  0.26412334703E+03  0.00000000000E+00 0. -1.
        -13    1    3    3    0    0 -0.20982438946E+02  0.41871296511E+02  0.17667720081E+02  0.50056133975E+02  0.00000000000E+00 0.  1.
         13    1    3    3    0    0 -0.70914776671E+01  0.18735864057E+02 -0.71948265089E+02  0.74685169255E+02  0.00000000000E+00 0. -1.
         21    1    1    2  502  501  0.12216512811E+02 -0.30793591791E+02 -0.52454442329E+02  0.62039962933E+02  0.00000000000E+00 0. -1.
<scales pt_clust_5="13000.00000" pt_clust_6="13000.00000" pt_clust_7="13000.00000" pt_clust_8="13000.00000" pt_clust_9="33.12836"></scales>
<clustering>
<clus scale="   33.128">  2  9  1 -1</clus>
<clus scale="   80.062">  5  6 -1 -1</clus>
<clus scale="   90.292">  7  8 -1 -1</clus>
<clus scale="   99.483">  2  5  1 -1</clus>
<clus scale="   33.128">  2  5  1 -1</clus>
</clustering>
</event>
<event>
 9    2  0.6066854E-005  0.1526139E+03  0.7546771E-02  0.1199238E+00
          2   -1    0    0  502    0  0.00000000000E+00  0.00000000000E+00  0.22692403360E+03  0.22692403360E+03  0.00000000000E+00 0. -1.
         -1   -1    0    0    0  501 -0.00000000000E+00 -0.00000000000E+00 -0.14198774281E+03  0.14198774281E+03  0.00000000000E+00 0.  1.
         23    2    1    2    0    0 -0.80348981773E+02  0.74805980552E+02  0.10857258598E+02  0.14368106236E+03  0.92056906411E+02 0.  0.
         24    2    1    2    0    0  0.11151337312E+03 -0.67077572724E+02  0.10074396008E+03  0.18349384840E+03  0.81154259044E+02 0.  0.
        -13    1    4    4    0    0  0.37357546071E+02 -0.49662574903E+01 -0.73945129331E+01  0.38404801567E+02  0.00000000000E+00 0.  1.
         14    1    4    4    0    0  0.74155827047E+02 -0.62111315234E+02  0.10813847301E+03  0.14508904683E+03  0.00000000000E+00 0. -1.
        -11    1    3    3    0    0  0.44392686197E+00  0.59631028041E+02  0.14586868918E+02  0.61390824405E+02  0.00000000000E+00 0.  1.
         11    1    3    3    0    0 -0.80792908635E+02  0.15174952511E+02 -0.37296103202E+01  0.82290237954E+02  0.00000000000E+00 0. -1.
         21    1    1    2  502  501 -0.31164391345E+02 -0.77284078283E+01 -0.26664927883E+02  0.41736865652E+02  0.00000000000E+00 0.  1.
<scales pt_clust_5="13000.00000" pt_clust_6="13000.00000" pt_clust_7="13000.00000" pt_clust_8="13000.00000" pt_clust_9="32.10837"></scales>
<clustering>
<clus scale="   32.108">  2  9  1 -1</clus>
<clus scale="   81.154">  5  6 -1 -1</clus>
<clus scale="   92.057">  7  8 -1 -1</clus>
<clus scale="  146.296">  1  5  2 -1</clus>
<clus scale="  146.296">  1  5  2 -1</clus>
</clustering>
</event>
<event>
 9    2  0.6066854E-005  0.1212091E+03  0.7546771E-02  0.1243355E+00
         -1   -1    0    0    0  501 -0.00000000000E+00  0.00000000000E+00  0.58221607720E+03  0.58221607720E+03  0.00000000000E+00 0.  1.
          2   -1    0    0  502    0  0.00000000000E+00 -0.00000000000E+00 -0.97985256938E+02  0.97985256938E+02  0.00000000000E+00 0. -1.
         23    2    1    2    0    0 -0.43716597612E+02  0.51459271522E+02  0.48062168907E+03  0.49402049475E+03  0.92194596917E+02 0.  0.
         24    2    1    2    0    0  0.68281413789E+02 -0.41357032472E+02 -0.49586375464E+02  0.12672289327E+03  0.85012513450E+02 0.  0.
        -13    1    4    4    0    0  0.30438573087E+02 -0.64178107899E+02 -0.20916765906E+02  0.74046251498E+02  0.00000000000E+00 0.  1.
         14    1    4    4    0    0  0.37842840702E+02  0.22821075427E+02 -0.28669609559E+02  0.52676641771E+02  0.00000000000E+00 0. -1.
        -13    1    3    3    0    0 -0.71679793090E+02  0.46834915666E+02  0.34473454778E+03  0.35520896736E+03  0.00000000000E+00 0.  1.
         13    1    3    3    0    0  0.27963195478E+02  0.46243558558E+01  0.13588714129E+03  0.13881152739E+03  0.00000000000E+00 0. -1.
         21    1    1    2  502  501 -0.24564816177E+02 -0.10102239050E+02  0.53195506661E+02  0.59457946118E+02  0.00000000000E+00 0. -1.
<scales pt_clust_5="13000.00000" pt_clust_6="13000.00000" pt_clust_7="13000.00000" pt_clust_8="13000.00000" pt_clust_9="26.56098"></scales>
<clustering>
<clus scale="   26.561">  1  9  2 -1</clus>
<clus scale="   85.013">  5  6 -1 -1</clus>
<clus scale="   92.195">  7  8 -1 -1</clus>
<clus scale="  115.840">  2  5  1 -1</clus>
<clus scale="  115.840">  2  5  1 -1</clus>
</clustering>
</event>
<event>
 9    2  0.6066854E-005  0.1101187E+03  0.7546771E-02  0.1264789E+00
         -1   -1    0    0    0  501 -0.00000000000E+00  0.00000000000E+00  0.37175205684E+02  0.37175205684E+02  0.00000000000E+00 0.  1.
          2   -1    0    0  502    0  0.00000000000E+00 -0.00000000000E+00 -0.54686107982E+03  0.54686107982E+03  0.00000000000E+00 0. -1.
         23    2    1    2    0    0  0.33889561032E+02  0.23068883951E+02 -0.68508969730E+02  0.12112332057E+03  0.91086245394E+02 0.  0.
         24    2    1    2    0    0 -0.55955577773E+02 -0.37062776029E+02 -0.40553451140E+03  0.41871886703E+03  0.79765742109E+02 0.  0.
        -13    1    4    4    0    0 -0.15188666379E+02  0.19838327471E+02 -0.45174987184E+02  0.51623970113E+02  0.00000000000E+00 0.  1.
         14    1    4    4    0    0 -0.40766911394E+02 -0.56901103500E+02 -0.36035952422E+03  0.36709489691E+03  0.00000000000E+00 0. -1.
        -11    1    3    3    0    0 -0.26540499355E+02 -0.11215922082E+02 -0.10684836674E+02  0.30730453119E+02  0.00000000000E+00 0. -1.
         11    1    3    3    0    0  0.60430060387E+02  0.34284806033E+02 -0.57824133056E+02  0.90392867455E+02  0.00000000000E+00 0.  1.
         21    1    1    2  502  501  0.22066016741E+02  0.13993892078E+02 -0.35642392998E+02  0.44194097897E+02  0.00000000000E+00 0.  1.
<scales pt_clust_5="13000.00000" pt_clust_6="13000.00000" pt_clust_7="13000.00000" pt_clust_8="13000.00000" pt_clust_9="26.12926"></scales>
<clustering>
<clus scale="   26.129">  1  9  2 -1</clus>
<clus scale="   79.766">  5  6 -1 -1</clus>
<clus scale="   91.086">  7  8 -1 -1</clus>
<clus scale="  100.955">  2  5  1 -1</clus>
<clus scale="  100.955">  2  5  1 -1</clus>
</clustering>
</event>
<event>
 9    2  0.6066854E-005  0.2414606E+03  0.7546771E-02  0.1148398E+00
         -3   -1    0    0    0  501 -0.00000000000E+00  0.00000000000E+00  0.16156801311E+03  0.16156801311E+03  0.00000000000E+00 0.  1.
          4   -1    0    0  502    0  0.00000000000E+00 -0.00000000000E+00 -0.98514675487E+03  0.98514675487E+03  0.00000000000E+00 0. -1.
         23    2    1    2    0    0 -0.54940680217E+02  0.57325812115E+02 -0.28127354286E+02  0.12065178344E+03  0.86376951271E+02 0.  0.
         24    2    1    2    0    0  0.23307972421E+03  0.11520276909E+02 -0.79700157091E+03  0.83507684358E+03  0.87652473061E+02 0.  0.
        -13    1    4    4    0    0  0.10665355727E+03 -0.35123358101E+02 -0.30730513692E+03  0.32717744229E+03  0.00000000000E+00 0.  1.
         14    1    4    4    0    0  0.12642616694E+03  0.46643635010E+02 -0.48969643399E+03  0.50789940129E+03  0.00000000000E+00 0. -1.
        -13    1    3    3    0    0 -0.42652140427E+02  0.40397778040E+02 -0.59065143301E+02  0.83305922398E+02  0.00000000000E+00 0.  1.
         13    1    3    3    0    0 -0.12288539790E+02  0.16928034075E+02  0.30937789015E+02  0.37345861042E+02  0.00000000000E+00 0. -1.
         21    1    1    2  502  501 -0.17813904399E+03 -0.68846089024E+02  0.15501834328E+01  0.19098614096E+03  0.00000000000E+00 0.  1.
<scales pt_clust_5="13000.00000" pt_clust_6="13000.00000" pt_clust_7="13000.00000" pt_clust_8="13000.00000" pt_clust_9="224.98950"></scales>
<clustering>
<clus scale="   86.377">  7  8 -1 -1</clus>
<clus scale="   87.652">  5  6 -1 -1</clus>
<clus scale="  117.327">  1  7  2 -1</clus>
<clus scale="  224.990">  1  9  2 -1</clus>
<clus scale="  241.461">  2  5  1 -1</clus>
</clustering>
</event>
<event>
 9    2  0.6066854E-005  0.9411105E+02  0.7546771E-02  0.1300372E+00
         -1   -1    0    0    0  501 -0.00000000000E+00  0.00000000000E+00  0.27374601987E+03  0.27374601987E+03  0.00000000000E+00 0.  1.
          2   -1    0    0  502    0  0.00000000000E+00 -0.00000000000E+00 -0.63575766648E+02  0.63575766648E+02  0.00000000000E+00 0. -1.
         24    2    1    2    0    0 -0.22284499203E+02  0.26152697787E+02  0.44115012818E+02  0.97406269008E+02  0.79757660321E+02 0.  0.
         23    2    1    2    0    0 -0.14419347001E+02 -0.15151374294E+02  0.30406767064E+02  0.98959106645E+02  0.91819668883E+02 0.  0.
        -13    1    3    3    0    0  0.29208634711E+02  0.17177247766E+01  0.20422255371E+02  0.35681415815E+02  0.00000000000E+00 0.  1.
         14    1    3    3    0    0 -0.51493133914E+02  0.24434973010E+02  0.23692757447E+02  0.61724853193E+02  0.00000000000E+00 0. -1.
        -13    1    4    4    0    0  0.16972062620E+02 -0.40436373373E+02  0.37898327144E+02  0.57960628029E+02  0.00000000000E+00 0.  1.
         13    1    4    4    0    0 -0.31391409621E+02  0.25284999079E+02 -0.74915600799E+01  0.40998478616E+02  0.00000000000E+00 0. -1.
         21    1    1    2  502  501  0.36703846204E+02 -0.11001323493E+02  0.13564847334E+03  0.14095641087E+03  0.00000000000E+00 0.  1.
<scales pt_clust_5="13000.00000" pt_clust_6="13000.00000" pt_clust_7="13000.00000" pt_clust_8="13000.00000" pt_clust_9="38.31712"></scales>
<clustering>
<clus scale="   38.317">  1  9  2 -1</clus>
<clus scale="   79.758">  5  6 -1 -1</clus>
<clus scale="   82.385">  1  5  2 -1</clus>
<clus scale="   91.820">  7  8 -1 -1</clus>
<clus scale="   94.111">  2  5  1 -1</clus>
</clustering>
</event>
<event>
 9    2  0.6066854E-005  0.1224419E+03  0.7546771E-02  0.1241143E+00
         -1   -1    0    0    0  501 -0.00000000000E+00  0.00000000000E+00  0.12906134126E+03  0.12906134126E+03  0.00000000000E+00 0.  1.
          2   -1    0    0  502    0  0.00000000000E+00 -0.00000000000E+00 -0.48466307854E+03  0.48466307854E+03  0.00000000000E+00 0. -1.
         23    2    1    2    0    0  0.13218725072E+03 -0.39941684774E+02  0.38405521236E+02  0.16805876549E+03  0.87749399777E+02 0.  0.
         24    2    1    2    0    0 -0.77754396679E+02  0.22378248943E+02 -0.36307198928E+03  0.38063949988E+03  0.80738016111E+02 0.  0.
        -13    1    4    4    0    0 -0.24015280249E+02 -0.24522174072E+02 -0.58487680012E+02  0.67815038302E+02  0.00000000000E+00 0.  1.
         14    1    4    4    0    0 -0.53739116429E+02  0.46900423015E+02 -0.30458430927E+03  0.31282446158E+03  0.00000000000E+00 0. -1.
        -13    1    3    3    0    0  0.58139354145E+02  0.26589089686E+02  0.11700669978E+02  0.64992844750E+02  0.00000000000E+00 0. -1.
         13    1    3    3    0    0  0.74047896572E+02 -0.66530774460E+02  0.26704851259E+02  0.10306592074E+03  0.00000000000E+00 0.  1.
         21    1    1    2  502  501 -0.54432854039E+02  0.17563435831E+02 -0.30935269233E+02  0.65026154427E+02  0.00000000000E+00 0. -1.
<scales pt_clust_5="13000.00000" pt_clust_6="13000.00000" pt_clust_7="13000.00000" pt_clust_8="13000.00000" pt_clust_9="57.19624"></scales>
<clustering>
<clus scale="   57.196">  1  9  2 -1</clus>
<clus scale="   80.738">  5  6 -1 -1</clus>
<clus scale="   87.749">  7  8 -1 -1</clus>
<clus scale="  117.519">  2  5  1 -1</clus>
<clus scale="  117.519">  2  5  1 -1</clus>
</clustering>
</event>
<event>
 9    2  0.6066854E-005  0.8899417E+02  0.7546771E-02  0.1305665E+00
          2   -1    0    0  502    0  0.00000000000E+00  0.00000000000E+00  0.49418569684E+03  0.49418569684E+03  0.00000000000E+00 0. -1.
         -1   -1    0    0    0  501 -0.00000000000E+00 -0.00000000000E+00 -0.29091510177E+02  0.29091510177E+02  0.00000000000E+00 0.  1.
         23    2    1    2    0    0  0.30955731273E+02  0.50890339248E+01  0.85897632730E+02  0.12680491332E+03  0.87846042412E+02 0.  0.
         24    2    1    2    0    0 -0.96182148961E+01  0.29534995017E+01  0.33964293083E+03  0.35081639540E+03  0.87255885770E+02 0.  0.
        -13    1    4    4    0    0  0.10387322502E+02  0.42352771744E+02  0.16349312121E+03  0.16920890764E+03  0.00000000000E+00 0.  1.
         14    1    4    4    0    0 -0.20005537399E+02 -0.39399272242E+02  0.17614980962E+03  0.18160748776E+03  0.00000000000E+00 0. -1.
        -11    1    3    3    0    0  0.59902622738E+02  0.60359036970E+00  0.38905038753E+02  0.71430319701E+02  0.00000000000E+00 0.  1.
         11    1    3    3    0    0 -0.28946891464E+02  0.44854435551E+01  0.46992593976E+02  0.55374593614E+02  0.00000000000E+00 0. -1.
         21    1    1    2  502  501 -0.21337516377E+02 -0.80425334264E+01  0.39553623103E+02  0.45655898301E+02  0.00000000000E+00 0.  1.
<scales pt_clust_5="13000.00000" pt_clust_6="13000.00000" pt_clust_7="13000.00000" pt_clust_8="13000.00000" pt_clust_9="22.80289"></scales>
<clustering>
<clus scale="   22.803">  2  9  1 -1</clus>
<clus scale="   87.256">  5  6 -1 -1</clus>
<clus scale="   87.846">  7  8 -1 -1</clus>
<clus scale="   88.412">  1  5  2 -1</clus>
<clus scale="   88.412">  1  5  2 -1</clus>
</clustering>
</event>
<event>
 9    2  0.6066854E-005  0.9220456E+02  0.7546771E-02  0.1303860E+00
         -1   -1    0    0    0  501 -0.00000000000E+00  0.00000000000E+00  0.15253955693E+02  0.15253955693E+02  0.00000000000E+00 0.  1.
          2   -1    0    0  502    0  0.00000000000E+00 -0.00000000000E+00 -0.74529121906E+03  0.74529121906E+03  0.00000000000E+00 0. -1.
         23    2    1    2    0    0 -0.94877634485E+01 -0.66397678629E+01 -0.30426211199E+03  0.31776813902E+03  0.90923337010E+02 0.  0.
         24    2    1    2    0    0 -0.96654403413E+01  0.20733975632E+02 -0.39538218161E+03  0.40418656386E+03  0.80724162340E+02 0.  0.
        -13    1    4    4    0    0 -0.36574987245E+02  0.19715776852E+02 -0.11082490089E+03  0.11835793258E+03  0.00000000000E+00 0.  1.
         14    1    4    4    0    0  0.26909546904E+02  0.10181987800E+01 -0.28455728072E+03  0.28582863127E+03  0.00000000000E+00 0. -1.
        -13    1    3    3    0    0 -0.30973786245E+01  0.41990680348E+02 -0.15726957702E+03  0.16280826406E+03  0.00000000000E+00 0.  1.
         13    1    3    3    0    0 -0.63903848240E+01 -0.48630448211E+02 -0.14699253497E+03  0.15495987496E+03  0.00000000000E+00 0. -1.
         21    1    1    2  502  501  0.19153203790E+02 -0.14094207769E+02 -0.30392969765E+02  0.38590471870E+02  0.00000000000E+00 0. -1.
<scales pt_clust_5="13000.00000" pt_clust_6="13000.00000" pt_clust_7="13000.00000" pt_clust_8="13000.00000" pt_clust_9="23.78007"></scales>
<clustering>
<clus scale="   23.780">  1  9  2 -1</clus>
<clus scale="   80.724">  5  6 -1 -1</clus>
<clus scale="   82.165">  2  5  1 -1</clus>
<clus scale="   90.923">  7  8 -1 -1</clus>
<clus scale="   82.165">  2  5  1 -1</clus>
</clustering>
</event>
<event>
 9    2  0.6066854E-005  0.4513963E+03  0.7546771E-02  0.1043403E+00
          2   -1    0    0  502    0  0.00000000000E+00  0.00000000000E+00  0.34285844873E+04  0.34285844873E+04  0.00000000000E+00 0. -1.
         -1   -1    0    0    0  501 -0.00000000000E+00 -0.00000000000E+00 -0.25381554480E+03  0.25381554480E+03  0.00000000000E+00 0.  1.
         23    2    1    2    0    0  0.19219953788E+03 -0.18345452453E+03  0.12607941765E+03  0.30833759282E+03  0.92627353724E+02 0.  0.
         24    2    1    2    0    0 -0.42120205260E+03 -0.17433574854E+03  0.28801357446E+04  0.29170433936E+04  0.78461014316E+02 0.  0.
        -11    1    4    4    0    0 -0.21711942155E+02 -0.10423579837E+02  0.72495274669E+02  0.76391257995E+02  0.00000000000E+00 0.  1.
         12    1    4    4    0    0 -0.39949011045E+03 -0.16391216870E+03  0.28076404699E+04  0.28406521356E+04  0.00000000000E+00 0. -1.
        -13    1    3    3    0    0  0.10759015985E+02 -0.57273079602E+02  0.11502394695E+02  0.59399218478E+02  0.00000000000E+00 0.  1.
         13    1    3    3    0    0  0.18144052190E+03 -0.12618144493E+03  0.11457702296E+03  0.24893837434E+03  0.00000000000E+00 0. -1.
         21    1    1    2  502  501  0.22900251472E+03  0.35779027307E+03  0.16855378028E+03  0.45701904566E+03  0.00000000000E+00 0.  1.
<scales pt_clust_5="13000.00000" pt_clust_6="13000.00000" pt_clust_7="13000.00000" pt_clust_8="13000.00000" pt_clust_9="444.52499"></scales>
<clustering>
<clus scale="   78.461">  5  6 -1 -1</clus>
<clus scale="   92.627">  7  8 -1 -1</clus>
<clus scale="  281.382">  2  7  1 -1</clus>
<clus scale="  444.525">  2  9  1 -1</clus>
<clus scale="  451.396">  1  5  2 -1</clus>
</clustering>
</event>
<event>
 9    2  0.6066854E-005  0.9999591E+02  0.7546771E-02  0.1285792E+00
          4   -1    0    0  502    0  0.00000000000E+00  0.00000000000E+00  0.13342588976E+04  0.13342588976E+04  0.00000000000E+00 0. -1.
         -3   -1    0    0    0  501 -0.00000000000E+00 -0.00000000000E+00 -0.42196058484E+02  0.42196058484E+02  0.00000000000E+00 0.  1.
         23    2    1    2    0    0 -0.25640872718E+02  0.10239221520E+02  0.56364440113E+02  0.11068055347E+03  0.91164350470E+02 0.  0.
         24    2    1    2    0    0  0.41682194717E+02  0.61105549817E+01  0.12392829576E+04  0.12425906095E+04  0.80214897701E+02 0.  0.
        -11    1    4    4    0    0 -0.21585202253E+01  0.22735303983E+02  0.11055088967E+03  0.11288512950E+03  0.00000000000E+00 0.  1.
         12    1    4    4    0    0  0.43840714942E+02 -0.16624749001E+02  0.11287320679E+04  0.11297054800E+04  0.00000000000E+00 0. -1.
        -13    1    3    3    0    0 -0.26888007651E+02 -0.30353227482E+02 -0.80124189319E+00  0.40557679453E+02  0.00000000000E+00 0. -1.
         13    1    3    3    0    0  0.12471349333E+01  0.40592449002E+02  0.57165682007E+02  0.70122874020E+02  0.00000000000E+00 0.  1.
         21    1    1    2  502  501 -0.16041321999E+02 -0.16349776501E+02 -0.35845585085E+01  0.23183793107E+02  0.00000000000E+00 0.  1.
<scales pt_clust_5="13000.00000" pt_clust_6="13000.00000" pt_clust_7="13000.00000" pt_clust_8="13000.00000" pt_clust_9="22.90500"></scales>
<clustering>
<clus scale="   22.905">  2  9  1 -1</clus>
<clus scale="   80.215">  5  6 -1 -1</clus>
<clus scale="   90.126">  1  5  2 -1</clus>
<clus scale="   91.164">  7  8 -1 -1</clus>
<clus scale="   90.126">  1  5  2 -1</clus>
</clustering>
</event>
<event>
 9    2  0.6066854E-005  0.2282988E+03  0.7546771E-02  0.1129656E+00
          2   -1    0    0  502    0  0.00000000000E+00  0.00000000000E+00  0.19100170673E+04  0.19100170673E+04  0.00000000000E+00 0. -1.
         -1   -1    0    0    0  501 -0.00000000000E+00 -0.00000000000E+00 -0.82849324811E+02  0.82849324811E+02  0.00000000000E+00 0.  1.
         23    2    1    2    0    0  0.19453410138E+03  0.89723246065E+02  0.13417621311E+03  0.27347480344E+03  0.10436203556E+03 0.  0.
         24    2    1    2    0    0 -0.17461093861E+03 -0.10158457892E+03  0.16774575418E+04  0.16914822999E+04  0.80250605439E+02 0.  0.
        -13    1    4    4    0    0 -0.21576258097E+02 -0.41365596673E+01  0.60259997100E+02  0.64139794900E+02  0.00000000000E+00 0.  1.
         14    1    4    4    0    0 -0.15303468052E+03 -0.97448019255E+02  0.16171975447E+04  0.16273425050E+04  0.00000000000E+00 0. -1.
        -13    1    3    3    0    0  0.14386295318E+03  0.82889824285E+02  0.14588696209E+03  0.22102098990E+03  0.00000000000E+00 0. -1.
         13    1    3    3    0    0  0.50671148202E+02  0.68334217796E+01 -0.11710748979E+02  0.52453813541E+02  0.00000000000E+00 0.  1.
         21    1    1    2  502  501 -0.19923162765E+02  0.11861332857E+02  0.15533987582E+02  0.27909288810E+02  0.00000000000E+00 0. -1.
<scales pt_clust_5="13000.00000" pt_clust_6="13000.00000" pt_clust_7="13000.00000" pt_clust_8="13000.00000" pt_clust_9="23.18671"></scales>
<clustering>
<clus scale="   23.187">  2  9  1 -1</clus>
<clus scale="   80.251">  5  6 -1 -1</clus>
<clus scale="  104.362">  7  8 -1 -1</clus>
<clus scale="  218.332">  1  5  2 -1</clus>
<clus scale="  218.332">  1  5  2 -1</clus>
</clustering>
</event>
<event>
 9    2  0.6066854E-005  0.9720507E+02  0.7546771E-02  0.1292720E+00
          2   -1    0    0  502    0  0.00000000000E+00  0.00000000000E+00  0.18668911239E+03  0.18668911239E+03  0.00000000000E+00 0. -1.
         -1   -1    0    0    0  501 -0.00000000000E+00 -0.00000000000E+00 -0.84093352997E+02  0.84093352997E+02  0.00000000000E+00 0.  1.
         24    2    1    2    0    0 -0.17210818353E+01 -0.18646032035E+02 -0.25788040459E+02  0.86567138618E+02  0.80487327105E+02 0.  0.
         23    2    1    2    0    0  0.27607813528E+02  0.23090372585E+02  0.12214366793E+03  0.15721876612E+03  0.92213383676E+02 0.  0.
        -13    1    3    3    0    0  0.19612254631E+02  0.26235324663E+02 -0.74038119179E+01  0.33581977649E+02  0.00000000000E+00 0.  1.
         14    1    3    3    0    0 -0.21333336466E+02 -0.44881356698E+02 -0.18384228542E+02  0.52985160969E+02  0.00000000000E+00 0. -1.
        -13    1    4    4    0    0  0.22637205670E+02  0.56942922824E+02  0.97094099916E+02  0.11481377870E+03  0.00000000000E+00 0.  1.
         13    1    4    4    0    0  0.49706078585E+01 -0.33852550239E+02  0.25049568017E+02  0.42404987419E+02  0.00000000000E+00 0. -1.
         21    1    1    2  502  501 -0.25886731693E+02 -0.44443405501E+01  0.62401319193E+01  0.26996560652E+02  0.00000000000E+00 0. -1.
<scales pt_clust_5="13000.00000" pt_clust_6="13000.00000" pt_clust_7="13000.00000" pt_clust_8="13000.00000" pt_clust_9="26.26547"></scales>
<clustering>
<clus scale="   26.265">  2  9  1 -1</clus>
<clus scale="   80.487">  5  6 -1 -1</clus>
<clus scale="   86.161">  2  5  1 -1</clus>
<clus scale="   92.213">  7  8 -1 -1</clus>
<clus scale="   97.205">  1  5  2 -1</clus>
</clustering>
</event>
<event>
 9    2  0.6066854E-005  0.1225489E+03  0.7546771E-02  0.1242077E+00
         -1   -1    0    0    0  501 -0.00000000000E+00  0.00000000000E+00  0.70224780231E+03  0.70224780231E+03  0.00000000000E+00 0.  1.
          2   -1    0    0  502    0  0.00000000000E+00 -0.00000000000E+00 -0.65393534474E+02  0.65393534474E+02  0.00000000000E+00 0. -1.
         23    2    1    2    0    0  0.61681484479E+02  0.91178821346E+02  0.56819226779E+03  0.58582154589E+03  0.90698662993E+02 0.  0.
         24    2    1    2    0    0 -0.48891544723E+02 -0.62739272878E+02  0.75684132647E+01  0.11322812360E+03  0.80229219040E+02 0.  0.
        -11    1    4    4    0    0 -0.49528016821E+02 -0.62910724753E+02 -0.22487230310E+02  0.83165252758E+02  0.00000000000E+00 0.  1.
         12    1    4    4    0    0  0.63647209823E+00  0.17145187586E+00  0.30055643575E+02  0.30062870841E+02  0.00000000000E+00 0. -1.
        -13    1    3    3    0    0  0.48660899779E+02 -0.10268502430E+01  0.22627835613E+03  0.23145373628E+03  0.00000000000E+00 0.  1.
         13    1    3    3    0    0  0.13020584701E+02  0.92205671589E+02  0.34191391166E+03  0.35436780961E+03  0.00000000000E+00 0. -1.
         21    1    1    2  502  501 -0.12789939757E+02 -0.28439548468E+02  0.61093586785E+02  0.68591667295E+02  0.00000000000E+00 0.  1.
<scales pt_clust_5="13000.00000" pt_clust_6="13000.00000" pt_clust_7="13000.00000" pt_clust_8="13000.00000" pt_clust_9="31.18318"></scales>
<clustering>
<clus scale="   31.183">  1  9  2 -1</clus>
<clus scale="   80.229">  5  6 -1 -1</clus>
<clus scale="   90.699">  7  8 -1 -1</clus>
<clus scale="  115.016">  2  5  1 -1</clus>
<clus scale="  115.016">  2  5  1 -1</clus>
</clustering>
</event>
<event>
 9    2  0.6066854E-005  0.9179625E+02  0.7546771E-02  0.1301180E+00
          2   -1    0    0  502    0  0.00000000000E+00  0.00000000000E+00  0.40973297887E+03  0.40973297887E+03  0.00000000000E+00 0. -1.
         -1   -1    0    0    0  501 -0.00000000000E+00 -0.00000000000E+00 -0.67072641867E+02  0.67072641867E+02  0.00000000000E+00 0.  1.
         23    2    1    2    0    0  0.31881841277E+02  0.10634419932E+02 -0.56556524464E+01  0.96340643764E+02  0.90110990150E+02 0.  0.
         24    2    1    2    0    0 -0.23109911803E+01 -0.17374888284E+02  0.33688163424E+03  0.34805180730E+03  0.85694793625E+02 0.  0.
        -11    1    4    4    0    0 -0.38697964023E+02  0.11539611367E+02  0.13630801276E+03  0.14216388217E+03  0.00000000000E+00 0.  1.
         12    1    4    4    0    0  0.36386972843E+02 -0.28914499651E+02  0.20057362148E+03  0.20588792514E+03  0.00000000000E+00 0. -1.
        -11    1    3    3    0    0  0.23686635317E+02  0.43307679254E+02  0.20743249272E+02  0.53543385823E+02  0.00000000000E+00 0.  1.
         11    1    3    3    0    0  0.81952059596E+01 -0.32673259321E+02 -0.26398901718E+02  0.42797257942E+02  0.00000000000E+00 0. -1.
         21    1    1    2  502  501 -0.29570850096E+02  0.67404683513E+01  0.11434355209E+02  0.32413169670E+02  0.00000000000E+00 0. -1.
<scales pt_clust_5="13000.00000" pt_clust_6="13000.00000" pt_clust_7="13000.00000" pt_clust_8="13000.00000" pt_clust_9="30.32934"></scales>
<clustering>
<clus scale="   30.329">  2  9  1 -1</clus>
<clus scale="   85.695">  5  6 -1 -1</clus>
<clus scale="   87.465">  1  5  2 -1</clus>
<clus scale="   90.111">  7  8 -1 -1</clus>
<clus scale="   87.465">  1  5  2 -1</clus>
</clustering>
</event>
<event>
 9    2  0.6066854E-005  0.1154130E+03  0.7546771E-02  0.1254359E+00
         -1   -1    0    0    0  501 -0.00000000000E+00  0.00000000000E+00  0.29430698602E+02  0.29430698602E+02  0.00000000000E+00 0.  1.
          2   -1    0    0  502    0  0.00000000000E+00 -0.00000000000E+00 -0.10965227473E+04  0.10965227473E+04  0.00000000000E+00 0. -1.
         23    2    1    2    0    0  0.30256921203E+02  0.64582198748E+02 -0.13169505768E+03  0.17476186283E+03  0.90065414037E+02 0.  0.
         24    2    1    2    0    0 -0.59546707207E+02 -0.43137522049E+02 -0.86687455180E+03  0.87364746402E+03  0.79885835301E+02 0.  0.
        -13    1    4    4    0    0 -0.21531031366E+02 -0.13187524660E+02 -0.57162388843E+02  0.62490277776E+02  0.00000000000E+00 0.  1.
         14    1    4    4    0    0 -0.38015675841E+02 -0.29949997389E+02 -0.80971216296E+03  0.81115718625E+03  0.00000000000E+00 0. -1.
        -11    1    3    3    0    0 -0.27949869270E+02  0.27322804731E+02 -0.21285812636E+02  0.44506366625E+02  0.00000000000E+00 0. -1.
         11    1    3    3    0    0  0.58206790473E+02  0.37259394017E+02 -0.11040924504E+03  0.13025549620E+03  0.00000000000E+00 0.  1.
         21    1    1    2  502  501  0.29289786004E+02 -0.21444676699E+02 -0.68522439171E+02  0.77544119008E+02  0.00000000000E+00 0.  1.
<scales pt_clust_5="13000.00000" pt_clust_6="13000.00000" pt_clust_7="13000.00000" pt_clust_8="13000.00000" pt_clust_9="36.30104"></scales>
<clustering>
<clus scale="   36.301">  1  9  2 -1</clus>
<clus scale="   79.886">  5  6 -1 -1</clus>
<clus scale="   90.065">  7  8 -1 -1</clus>
<clus scale="  107.657">  2  5  1 -1</clus>
<clus scale="  107.657">  2  5  1 -1</clus>
</clustering>
</event>
<event>
 9    2  0.6066854E-005  0.9445723E+02  0.7546771E-02  0.1306488E+00
          2   -1    0    0  502    0  0.00000000000E+00  0.00000000000E+00  0.91362433453E+02  0.91362433453E+02  0.00000000000E+00 0. -1.
         -1   -1    0    0    0  501 -0.00000000000E+00 -0.00000000000E+00 -0.25719191678E+03  0.25719191678E+03  0.00000000000E+00 0.  1.
         23    2    1    2    0    0 -0.17276527298E+02 -0.44077552573E+02 -0.18941018633E+03  0.21515458234E+03  0.90409991592E+02 0.  0.
         24    2    1    2    0    0  0.60891685188E+01  0.24938935990E+02  0.57883600591E+02  0.92556991003E+02  0.67507457845E+02 0.  0.
        -13    1    4    4    0    0  0.18490506869E+02  0.29653649876E+02  0.18728491056E+01  0.34996362082E+02  0.00000000000E+00 0.  1.
         14    1    4    4    0    0 -0.12401338350E+02 -0.47147138853E+01  0.56010751485E+02  0.57560628921E+02  0.00000000000E+00 0. -1.
        -11    1    3    3    0    0  0.39585698191E+00 -0.57936798532E+02 -0.58511920991E+02  0.82343634999E+02  0.00000000000E+00 0.  1.
         11    1    3    3    0    0 -0.17672384279E+02  0.13859245959E+02 -0.13089826534E+03  0.13281094734E+03  0.00000000000E+00 0. -1.
         21    1    1    2  502  501  0.11187358779E+02  0.19138616583E+02 -0.34302897591E+02  0.40842776892E+02  0.00000000000E+00 0.  1.
<scales pt_clust_5="13000.00000" pt_clust_6="13000.00000" pt_clust_7="13000.00000" pt_clust_8="13000.00000" pt_clust_9="22.16853"></scales>
<clustering>
<clus scale="   22.169">  2  9  1 -1</clus>
<clus scale="   67.507">  5  6 -1 -1</clus>
<clus scale="   72.839">  1  5  2 -1</clus>
<clus scale="   90.410">  7  8 -1 -1</clus>
<clus scale="   72.839">  1  5  2 -1</clus>
</clustering>
</event>
<event>
 9    2  0.6066854E-005  0.1385587E+03  0.7546771E-02  0.1215985E+00
         -1   -1    0    0    0  501 -0.00000000000E+00  0.00000000000E+00  0.13354913808E+03  0.13354913808E+03  0.00000000000E+00 0.  1.
          2   -1    0    0  502    0  0.00000000000E+00 -0.00000000000E+00 -0.19208598196E+03  0.19208598196E+03  0.00000000000E+00 0. -1.
         23    2    1    2    0    0 -0.87900975182E+02  0.31943930050E+02  0.24096861062E+01  0.13047833867E+03  0.90949404455E+02 0.  0.
         24    2    1    2    0    0  0.11368483227E+03 -0.65609069939E+01 -0.66720704409E+02  0.15851737313E+03  0.87799878119E+02 0.  0.
        -11    1    4    4    0    0  0.45355801902E+02  0.40200822428E+02 -0.33963306889E+02  0.69474895501E+02  0.00000000000E+00 0.  1.
         12    1    4    4    0    0  0.68329030371E+02 -0.46761729422E+02 -0.32757397520E+02  0.89042477629E+02  0.00000000000E+00 0. -1.
        -11    1    3    3    0    0 -0.48165494423E+02  0.20916047801E+02  0.46477486293E+02  0.70125263926E+02  0.00000000000E+00 0.  1.
         11    1    3    3    0    0 -0.39735480759E+02  0.11027882249E+02 -0.44067800187E+02  0.60353074746E+02  0.00000000000E+00 0. -1.
         21    1    1    2  502  501 -0.25783857091E+02 -0.25383023056E+02  0.57741744276E+01  0.36639408242E+02  0.00000000000E+00 0. -1.
<scales pt_clust_5="13000.00000" pt_clust_6="13000.00000" pt_clust_7="13000.00000" pt_clust_8="13000.00000" pt_clust_9="36.18156"></scales>
<clustering>
<clus scale="   36.182">  1  9  2 -1</clus>
<clus scale="   87.800">  5  6 -1 -1</clus>
<clus scale="   90.949">  7  8 -1 -1</clus>
<clus scale="  136.512">  2  5  1 -1</clus>
<clus scale="  136.512">  2  5  1 -1</clus>
</clustering>
</event>
<event>
 9    2  0.6066854E-005  0.4100451E+03  0.7546771E-02  0.1070253E+00
          2   -1    0    0  502    0  0.00000000000E+00  0.00000000000E+00  0.88473875754E+03  0.88473875754E+03  0.00000000000E+00 0. -1.
         -1   -1    0    0    0  501 -0.00000000000E+00 -0.00000000000E+00 -0.54821387614E+03  0.54821387614E+03  0.00000000000E+00 0.  1.
         23    2    1    2    0    0  0.36820141729E+03 -0.11753565480E+03 -0.30721049817E+03  0.50236029565E+03  0.92739757500E+02 0.  0.
         24    2    1    2    0    0  0.47694989159E+02 -0.14816914160E+03  0.13682588698E+03  0.22311365043E+03  0.82640614392E+02 0.  0.
        -13    1    4    4    0    0  0.67384989843E+02 -0.13084940466E+03  0.12909352832E+03  0.19577395795E+03  0.00000000000E+00 0.  1.
         14    1    4    4    0    0 -0.19690000684E+02 -0.17319736938E+02  0.77323586598E+01  0.27339692482E+02  0.00000000000E+00 0. -1.
        -11    1    3    3    0    0  0.22284657009E+03 -0.42830880498E+02 -0.13097309136E+03  0.26200959674E+03  0.00000000000E+00 0. -1.
         11    1    3    3    0    0  0.14535484720E+03 -0.74704774300E+02 -0.17623740681E+03  0.24035069891E+03  0.00000000000E+00 0.  1.
         21    1    1    2  502  501 -0.41589640645E+03  0.26570479639E+03  0.50690949259E+03  0.70747868759E+03  0.00000000000E+00 0. -1.
<scales pt_clust_5="13000.00000" pt_clust_6="13000.00000" pt_clust_7="13000.00000" pt_clust_8="13000.00000" pt_clust_9="399.41996"></scales>
<clustering>
<clus scale="   82.641">  5  6 -1 -1</clus>
<clus scale="   92.740">  7  8 -1 -1</clus>
<clus scale="  176.234">  1  5  2 -1</clus>
<clus scale="  399.420">  1  9  2 -1</clus>
<clus scale="  176.234">  1  5  2 -1</clus>
</clustering>
</event>
<event>
 9    2  0.6066854E-005  0.1340049E+03  0.7546771E-02  0.1223763E+00
         -1   -1    0    0    0  501 -0.00000000000E+00  0.00000000000E+00  0.36560055425E+02  0.36560055425E+02  0.00000000000E+00 0.  1.
          2   -1    0    0  502    0  0.00000000000E+00 -0.00000000000E+00 -0.66943339354E+03  0.66943339354E+03  0.00000000000E+00 0. -1.
         23    2    1    2    0    0 -0.93587145286E+02 -0.22219860370E+02 -0.16208736616E+03  0.20881238758E+03  0.89877822520E+02 0.  0.
         24    2    1    2    0    0  0.10113020581E+03  0.34894030347E+01 -0.44967594409E+03  0.46796871690E+03  0.80912118015E+02 0.  0.
        -11    1    4    4    0    0  0.97244278031E+02  0.26272638857E+02 -0.40863610103E+03  0.42086834548E+03  0.00000000000E+00 0.  1.
         12    1    4    4    0    0  0.38859277743E+01 -0.22783235823E+02 -0.41039843058E+02  0.47100371415E+02  0.00000000000E+00 0. -1.
        -13    1    3    3    0    0 -0.58040863990E+02  0.31668899047E+02 -0.69350794192E+02  0.95818545776E+02  0.00000000000E+00 0.  1.
         13    1    3    3    0    0 -0.35546281296E+02 -0.53888759417E+02 -0.92736571966E+02  0.11299384180E+03  0.00000000000E+00 0. -1.
         21    1    1    2  502  501 -0.75430605192E+01  0.18730457335E+02 -0.21110027871E+02  0.29212344491E+02  0.00000000000E+00 0. -1.
<scales pt_clust_5="13000.00000" pt_clust_6="13000.00000" pt_clust_7="13000.00000" pt_clust_8="13000.00000" pt_clust_9="20.19227"></scales>
<clustering>
<clus scale="   20.192">  1  9  2 -1</clus>
<clus scale="   80.912">  5  6 -1 -1</clus>
<clus scale="   89.878">  7  8 -1 -1</clus>
<clus scale="  128.164">  2  5  1 -1</clus>
<clus scale="  128.164">  2  5  1 -1</clus>
</clustering>
</event>
<event>
 9    2  0.6066854E-005  0.1249704E+03  0.7546771E-02  0.1237701E+00
         -3   -1    0    0    0  501 -0.00000000000E+00  0.00000000000E+00  0.49401199116E+03  0.49401199116E+03  0.00000000000E+00 0.  1.
          4   -1    0    0  502    0  0.00000000000E+00 -0.00000000000E+00 -0.27693748544E+03  0.27693748544E+03  0.00000000000E+00 0. -1.
         23    2    1    2    0    0  0.46172231056E+02 -0.15378350096E+03  0.24914492516E+03  0.30978935374E+03  0.90083349581E+02 0.  0.
         24    2    1    2    0    0 -0.12104313369E+02  0.82085351270E+02 -0.22469090533E+03  0.25282409797E+03  0.80928995298E+02 0.  0.
        -11    1    4    4    0    0  0.32195702464E+02  0.20858633078E+02 -0.54908059755E+02  0.66981645673E+02  0.00000000000E+00 0.  1.
         12    1    4    4    0    0 -0.44300015833E+02  0.61226718192E+02 -0.16978284557E+03  0.18584245229E+03  0.00000000000E+00 0. -1.
        -11    1    3    3    0    0 -0.86293033923E+01 -0.46363291538E+02  0.20769523089E+02  0.51530503284E+02  0.00000000000E+00 0. -1.
         11    1    3    3    0    0  0.54801534449E+02 -0.10742020942E+03  0.22837540207E+03  0.25825885046E+03  0.00000000000E+00 0.  1.
         21    1    1    2  502  501 -0.34067917687E+02  0.71698149690E+02  0.19262048589E+03  0.20833602489E+03  0.00000000000E+00 0. -1.
<scales pt_clust_5="13000.00000" pt_clust_6="13000.00000" pt_clust_7="13000.00000" pt_clust_8="13000.00000" pt_clust_9="79.38040"></scales>
<clustering>
<clus scale="   79.380">  1  9  2 -1</clus>
<clus scale="   80.929">  5  6 -1 -1</clus>
<clus scale="   90.083">  7  8 -1 -1</clus>
<clus scale="  118.541">  2  5  1 -1</clus>
<clus scale="  118.541">  2  5  1 -1</clus>
</clustering>
</event>
<event>
 9    2  0.6066854E-005  0.1065865E+03  0.7546771E-02  0.1272037E+00
          2   -1    0    0  502    0  0.00000000000E+00  0.00000000000E+00  0.24883369424E+03  0.24883369424E+03  0.00000000000E+00 0. -1.
         -1   -1    0    0    0  501 -0.00000000000E+00 -0.00000000000E+00 -0.14420517672E+03  0.14420517672E+03  0.00000000000E+00 0.  1.
         23    2    1    2    0    0 -0.44223572165E+02  0.47825950802E+02  0.10382093879E+02  0.11257416294E+03  0.91225590614E+02 0.  0.
         24    2    1    2    0    0  0.60556810079E+01 -0.54787661441E+02  0.16986316110E+03  0.19547562452E+03  0.79491302442E+02 0.  0.
        -11    1    4    4    0    0  0.96319016955E+01 -0.35352004011E+02  0.15386739108E+02  0.39740275014E+02  0.00000000000E+00 0.  1.
         12    1    4    4    0    0 -0.35762206875E+01 -0.19435657430E+02  0.15447642199E+03  0.15573534950E+03  0.00000000000E+00 0. -1.
        -11    1    3    3    0    0 -0.10944644102E+02  0.22349689954E+02 -0.39956373228E+02  0.47072344716E+02  0.00000000000E+00 0.  1.
         11    1    3    3    0    0 -0.33278928063E+02  0.25476260848E+02  0.50338467106E+02  0.65501818222E+02  0.00000000000E+00 0. -1.
         21    1    1    2  502  501  0.38167891157E+02  0.69617106390E+01 -0.75616737462E+02  0.84989083504E+02  0.00000000000E+00 0.  1.
<scales pt_clust_5="13000.00000" pt_clust_6="13000.00000" pt_clust_7="13000.00000" pt_clust_8="13000.00000" pt_clust_9="38.79759"></scales>
<clustering>
<clus scale="   38.798">  2  9  1 -1</clus>
<clus scale="   79.491">  5  6 -1 -1</clus>
<clus scale="   91.226">  7  8 -1 -1</clus>
<clus scale="   96.734">  1  5  2 -1</clus>
<clus scale="   96.734">  1  5  2 -1</clus>
</clustering>
</event>
<event>
 9    2  0.6066854E-005  0.1031818E+03  0.7546771E-02  0.1277404E+00
         -1   -1    0    0    0  501 -0.00000000000E+00  0.00000000000E+00  0.34933435109E+03  0.34933435109E+03  0.00000000000E+00 0.  1.
          2   -1    0    0  502    0  0.00000000000E+00 -0.00000000000E+00 -0.64251313201E+02  0.64251313201E+02  0.00000000000E+00 0. -1.
         23    2    1    2    0    0 -0.38855085479E+02 -0.47214466030E+02  0.19582863888E+03  0.22468112886E+03  0.91617849720E+02 0.  0.
         24    2    1    2    0    0  0.13407287226E+02  0.43146846474E+02 -0.95011704177E+00  0.95090940044E+02  0.83665873836E+02 0.  0.
        -11    1    4    4    0    0  0.45655290980E+02  0.37506783645E+02  0.11262112323E+02  0.60149809541E+02  0.00000000000E+00 0.  1.
         12    1    4    4    0    0 -0.32248003754E+02  0.56400628292E+01 -0.12212229365E+02  0.34941130504E+02  0.00000000000E+00 0. -1.
        -11    1    3    3    0    0 -0.63120111394E+01 -0.40780157591E+02  0.18535642888E+03  0.18989436133E+03  0.00000000000E+00 0.  1.
         11    1    3    3    0    0 -0.32543074340E+02 -0.64343084390E+01  0.10472210002E+02  0.34786767526E+02  0.00000000000E+00 0. -1.
         21    1    1    2  502  501  0.25447798253E+02  0.40676195558E+01  0.90204516053E+02  0.93813595396E+02  0.00000000000E+00 0.  1.
<scales pt_clust_5="13000.00000" pt_clust_6="13000.00000" pt_clust_7="13000.00000" pt_clust_8="13000.00000" pt_clust_9="25.77084"></scales>
<clustering>
<clus scale="   25.771">  1  9  2 -1</clus>
<clus scale="   83.666">  5  6 -1 -1</clus>
<clus scale="   91.618">  7  8 -1 -1</clus>
<clus scale="   96.191">  2  5  1 -1</clus>
<clus scale="   96.191">  2  5  1 -1</clus>
</clustering>
</event>
<event>
 9    2  0.6066854E-005  0.8462781E+02  0.7546771E-02  0.1326702E+00
          2   -1    0    0  502    0  0.00000000000E+00  0.00000000000E+00  0.12084517331E+04  0.12084517331E+04  0.00000000000E+00 0. -1.
         -1   -1    0    0    0  501 -0.00000000000E+00 -0.00000000000E+00 -0.24151463552E+02  0.24151463552E+02  0.00000000000E+00 0.  1.
         23    2    1    2    0    0  0.43803576199E+02  0.23909088196E+02  0.76049828355E+02  0.11100517531E+03  0.63625268309E+02 0.  0.
         24    2    1    2    0    0 -0.15239281599E+02 -0.24560602001E+02  0.10726650218E+04  0.10759617915E+04  0.79044727824E+02 0.  0.
        -13    1    4    4    0    0 -0.55623070812E+01 -0.20332199984E+02  0.66921860035E+02  0.70163188117E+02  0.00000000000E+00 0.  1.
         14    1    4    4    0    0 -0.96769745183E+01 -0.42284020165E+01  0.10057431617E+04  0.10057986034E+04  0.00000000000E+00 0. -1.
        -13    1    3    3    0    0  0.16624757192E+02  0.41140573239E+02  0.25782704594E+02  0.51319364516E+02  0.00000000000E+00 0.  1.
         13    1    3    3    0    0  0.27178819007E+02 -0.17231485043E+02  0.50267123761E+02  0.59685810798E+02  0.00000000000E+00 0. -1.
         21    1    1    2  502  501 -0.28564294600E+02  0.65151380458E+00  0.35585419388E+02  0.45636229787E+02  0.00000000000E+00 0.  1.
<scales pt_clust_5="13000.00000" pt_clust_6="13000.00000" pt_clust_7="13000.00000" pt_clust_8="13000.00000" pt_clust_9="28.57172"></scales>
<clustering>
<clus scale="   28.572">  2  9  1 -1</clus>
<clus scale="   63.625">  7  8 -1 -1</clus>
<clus scale="   70.441">  2  7  1 -1</clus>
<clus scale="   79.045">  5  6 -1 -1</clus>
<clus scale="   84.628">  1  5  2 -1</clus>
</clustering>
</event>
<event>
 9    2  0.6066854E-005  0.1036320E+03  0.7546771E-02  0.1277426E+00
          2   -1    0    0  502    0  0.00000000000E+00  0.00000000000E+00  0.74316794228E+02  0.74316794228E+02  0.00000000000E+00 0. -1.
         -1   -1    0    0    0  501 -0.00000000000E+00 -0.00000000000E+00 -0.36041999692E+03  0.36041999692E+03  0.00000000000E+00 0.  1.
         23    2    1    2    0    0 -0.31221292574E+02 -0.59074404568E+02 -0.24059758916E+03  0.26561955468E+03  0.90564858141E+02 0.  0.
         24    2    1    2    0    0  0.28729485502E+02  0.38582370621E+02  0.23891699734E+02  0.96714752772E+02  0.80429767049E+02 0.  0.
        -13    1    4    4    0    0  0.31916465149E+02  0.10801419193E+02 -0.23922964290E+02  0.41323596463E+02  0.00000000000E+00 0.  1.
         14    1    4    4    0    0 -0.31869796473E+01  0.27780951428E+02  0.47814664024E+02  0.55391156309E+02  0.00000000000E+00 0. -1.
        -13    1    3    3    0    0  0.12293170444E+02  0.17850837038E+02 -0.28192971900E+02  0.35561469135E+02  0.00000000000E+00 0. -1.
         13    1    3    3    0    0 -0.43514463018E+02 -0.76925241605E+02 -0.21240461726E+03  0.23005808554E+03  0.00000000000E+00 0.  1.
         21    1    1    2  502  501  0.24918070724E+01  0.20492033946E+02 -0.69397313260E+02  0.72402483696E+02  0.00000000000E+00 0.  1.
<scales pt_clust_5="13000.00000" pt_clust_6="13000.00000" pt_clust_7="13000.00000" pt_clust_8="13000.00000" pt_clust_9="20.64298"></scales>
<clustering>
<clus scale="   20.643">  2  9  1 -1</clus>
<clus scale="   80.430">  5  6 -1 -1</clus>
<clus scale="   90.565">  7  8 -1 -1</clus>
<clus scale="   94.903">  1  5  2 -1</clus>
<clus scale="   94.903">  1  5  2 -1</clus>
</clustering>
</event>
<event>
 9    2  0.6066854E-005  0.9658872E+02  0.7546771E-02  0.1293919E+00
         -1   -1    0    0    0  501 -0.00000000000E+00  0.00000000000E+00  0.14128763333E+03  0.14128763333E+03  0.00000000000E+00 0.  1.
          2   -1    0    0  502    0  0.00000000000E+00 -0.00000000000E+00 -0.17259107725E+03  0.17259107725E+03  0.00000000000E+00 0. -1.
         23    2    1    2    0    0  0.73958886716E+00  0.36206791392E+02  0.77487002397E+02  0.12576929532E+03  0.92207382402E+02 0.  0.
         24    2    1    2    0    0 -0.35922412560E+02  0.98984639213E+01 -0.91230434173E+02  0.12751337846E+03  0.80921383170E+02 0.  0.
        -11    1    4    4    0    0 -0.29864954269E+02 -0.30090659419E+02 -0.69992686021E+02  0.81831163833E+02  0.00000000000E+00 0.  1.
         12    1    4    4    0    0 -0.60574582907E+01  0.39989123340E+02 -0.21237748152E+02  0.45682214625E+02  0.00000000000E+00 0. -1.
        -13    1    3    3    0    0 -0.22953450673E+02  0.46615376073E+02  0.84283691727E+02  0.99013104564E+02  0.00000000000E+00 0.  1.
         13    1    3    3    0    0  0.23693039540E+02 -0.10408584681E+02 -0.67966893306E+01  0.26756190752E+02  0.00000000000E+00 0. -1.
         21    1    1    2  502  501  0.35182823693E+02 -0.46105255314E+02 -0.17560012138E+02  0.60596036808E+02  0.00000000000E+00 0. -1.
<scales pt_clust_5="13000.00000" pt_clust_6="13000.00000" pt_clust_7="13000.00000" pt_clust_8="13000.00000" pt_clust_9="57.99591"></scales>
<clustering>
<clus scale="   57.996">  2  9  1 -1</clus>
<clus scale="   80.921">  5  6 -1 -1</clus>
<clus scale="   85.880">  2  5  1 -1</clus>
<clus scale="   92.207">  7  8 -1 -1</clus>
<clus scale="   57.996">  2  5  1 -1</clus>
</clustering>
</event>
<event>
 9    2  0.6066854E-005  0.1132220E+03  0.7546771E-02  0.1256673E+00
          2   -1    0    0  502    0  0.00000000000E+00  0.00000000000E+00  0.11439183004E+03  0.11439183004E+03  0.00000000000E+00 0. -1.
         -1   -1    0    0    0  501 -0.00000000000E+00 -0.00000000000E+00 -0.23698606562E+03  0.23698606562E+03  0.00000000000E+00 0.  1.
         24    2    1    2    0    0  0.49640547290E+02 -0.31272777149E+01 -0.14807661915E+03  0.17810985351E+03  0.85571437847E+02 0.  0.
         23    2    1    2    0    0 -0.66682447451E+02  0.26404042971E+02  0.58199484713E+02  0.12964874747E+03  0.90982940251E+02 0.  0.
        -13    1    3    3    0    0  0.98458420910E+01  0.38575929311E+02 -0.76202049355E+02  0.85975550330E+02  0.00000000000E+00 0.  1.
         14    1    3    3    0    0  0.39794705199E+02 -0.41703207026E+02 -0.71874569797E+02  0.92134303175E+02  0.00000000000E+00 0. -1.
        -11    1    4    4    0    0  0.20011608389E+02  0.16104721222E+02  0.26129284827E+02  0.36641043128E+02  0.00000000000E+00 0.  1.
         11    1    4    4    0    0 -0.86694055840E+02  0.10299321749E+02  0.32070199887E+02  0.93007704343E+02  0.00000000000E+00 0. -1.
         21    1    1    2  502  501  0.17041900161E+02 -0.23276765256E+02 -0.32717101144E+02  0.43619294689E+02  0.00000000000E+00 0.  1.
<scales pt_clust_5="13000.00000" pt_clust_6="13000.00000" pt_clust_7="13000.00000" pt_clust_8="13000.00000" pt_clust_9="28.84847"></scales>
<clustering>
<clus scale="   28.848">  2  9  1 -1</clus>
<clus scale="   85.571">  5  6 -1 -1</clus>
<clus scale="   90.983">  7  8 -1 -1</clus>
<clus scale="  108.921">  2  5  1 -1</clus>
<clus scale="  113.222">  1  5  2 -1</clus>
</clustering>
</event>
<event>
 9    2  0.6066854E-005  0.1690174E+03  0.7546771E-02  0.1196150E+00
         -1   -1    0    0    0  501 -0.00000000000E+00  0.00000000000E+00  0.57362240489E+03  0.57362240489E+03  0.00000000000E+00 0.  1.
          2   -1    0    0  502    0  0.00000000000E+00 -0.00000000000E+00 -0.26297535737E+03  0.26297535737E+03  0.00000000000E+00 0. -1.
         23    2    1    2    0    0  0.38538485390E+02  0.18706131133E+03  0.25873593359E+03  0.33419253462E+03  0.90902243157E+02 0.  0.
         24    2    1    2    0    0 -0.58459942805E+02 -0.62577761765E+02 -0.19424879999E+03  0.22584109078E+03  0.77058813932E+02 0.  0.
        -13    1    4    4    0    0  0.56118045791E+01 -0.49476039666E+02 -0.85556005606E+02  0.98990913456E+02  0.00000000000E+00 0.  1.
         14    1    4    4    0    0 -0.64071747384E+02 -0.13101722099E+02 -0.10869279439E+03  0.12685017732E+03  0.00000000000E+00 0. -1.
        -13    1    3    3    0    0  0.71115153677E+01  0.89596670605E+02  0.19190202785E+03  0.21190687891E+03  0.00000000000E+00 0.  1.
         13    1    3    3    0    0  0.31426970023E+02  0.97464640724E+02  0.66833905738E+02  0.12228565571E+03  0.00000000000E+00 0. -1.
         21    1    1    2  502  501  0.19921457414E+02 -0.12448354956E+03  0.24615991392E+03  0.27656413686E+03  0.00000000000E+00 0. -1.
<scales pt_clust_5="13000.00000" pt_clust_6="13000.00000" pt_clust_7="13000.00000" pt_clust_8="13000.00000" pt_clust_9="142.49088"></scales>
<clustering>
<clus scale="   77.059">  5  6 -1 -1</clus>
<clus scale="   90.902">  7  8 -1 -1</clus>
<clus scale="  115.202">  2  5  1 -1</clus>
<clus scale="  142.491">  1  9  2 -1</clus>
<clus scale="  115.202">  2  5  1 -1</clus>
</clustering>
</event>
<event>
 9    2  0.6066854E-005  0.1145339E+03  0.7546771E-02  0.1254597E+00
          4   -1    0    0  502    0  0.00000000000E+00  0.00000000000E+00  0.46892033174E+03  0.46892033174E+03  0.00000000000E+00 0. -1.
         -3   -1    0    0    0  501 -0.00000000000E+00 -0.00000000000E+00 -0.44775753354E+02  0.44775753354E+02  0.00000000000E+00 0.  1.
         23    2    1    2    0    0  0.46380828455E+02 -0.55229384780E+02  0.18698997393E+03  0.22012894615E+03  0.91049636962E+02 0.  0.
         24    2    1    2    0    0 -0.20473773724E+02  0.50290247673E+02  0.24243862692E+03  0.26666934250E+03  0.96890484494E+02 0.  0.
        -13    1    4    4    0    0 -0.52483109001E+02  0.63303593949E+01  0.15431086162E+03  0.16311465966E+03  0.00000000000E+00 0.  1.
         14    1    4    4    0    0  0.32009335278E+02  0.43959888278E+02  0.88127765294E+02  0.10355468284E+03  0.00000000000E+00 0. -1.
        -13    1    3    3    0    0  0.71919199792E+02 -0.28178636527E+02  0.10759342019E+03  0.13244905030E+03  0.00000000000E+00 0. -1.
         13    1    3    3    0    0 -0.25538371337E+02 -0.27050748253E+02  0.79396553738E+02  0.87679895854E+02  0.00000000000E+00 0.  1.
         21    1    1    2  502  501 -0.25907054731E+02  0.49391371071E+01 -0.52840224639E+01  0.26897796445E+02  0.00000000000E+00 0.  1.
<scales pt_clust_5="13000.00000" pt_clust_6="13000.00000" pt_clust_7="13000.00000" pt_clust_8="13000.00000" pt_clust_9="26.37367"></scales>
<clustering>
<clus scale="   26.374">  2  9  1 -1</clus>
<clus scale="   91.050">  7  8 -1 -1</clus>
<clus scale="   96.890">  5  6 -1 -1</clus>
<clus scale="  109.637">  2  7  1 -1</clus>
<clus scale="  114.534">  1  5  2 -1</clus>
</clustering>
</event>
<event>
 9    2  0.6066854E-005  0.9953471E+02  0.7546771E-02  0.1285920E+00
         -1   -1    0    0    0  501 -0.00000000000E+00  0.00000000000E+00  0.30729456000E+03  0.30729456000E+03  0.00000000000E+00 0.  1.
          2   -1    0    0  502    0  0.00000000000E+00 -0.00000000000E+00 -0.12075691668E+03  0.12075691668E+03  0.00000000000E+00 0. -1.
         23    2    1    2    0    0 -0.14044276989E+02 -0.77533505516E+01  0.77952566987E+02  0.12173450100E+03  0.92115850279E+02 0.  0.
         24    2    1    2    0    0  0.20364551552E+02 -0.42060686976E+02 -0.71667278630E+02  0.11920124766E+03  0.82999531735E+02 0.  0.
        -13    1    4    4    0    0  0.15240896327E+02  0.14830465340E+02 -0.56101852496E+02  0.59997045565E+02  0.00000000000E+00 0.  1.
         14    1    4    4    0    0  0.51236552247E+01 -0.56891152316E+02 -0.15565426134E+02  0.59204202093E+02  0.00000000000E+00 0. -1.
        -11    1    3    3    0    0  0.61907241952E+01 -0.45632232485E+02  0.21548749838E+02  0.50842642803E+02  0.00000000000E+00 0. -1.
         11    1    3    3    0    0 -0.20235001184E+02  0.37878881933E+02  0.56403817150E+02  0.70891858196E+02  0.00000000000E+00 0.  1.
         21    1    1    2  502  501 -0.63202745628E+01  0.49814037528E+02  0.18025235496E+03  0.18711572802E+03  0.00000000000E+00 0.  1.
<scales pt_clust_5="13000.00000" pt_clust_6="13000.00000" pt_clust_7="13000.00000" pt_clust_8="13000.00000" pt_clust_9="50.21339"></scales>
<clustering>
<clus scale="   50.213">  1  9  2 -1</clus>
<clus scale="   83.000">  5  6 -1 -1</clus>
<clus scale="   91.163">  2  5  1 -1</clus>
<clus scale="   92.116">  7  8 -1 -1</clus>
<clus scale="   91.163">  2  5  1 -1</clus>
</clustering>
</event>
<event>
 9    2  0.6066854E-005  0.1790881E+03  0.7546771E-02  0.1190656E+00
         -1   -1    0    0    0  501 -0.00000000000E+00  0.00000000000E+00  0.14321587780E+03  0.14321587780E+03  0.00000000000E+00 0.  1.
          2   -1    0    0  502    0  0.00000000000E+00 -0.00000000000E+00 -0.18180489978E+04  0.18180489978E+04  0.00000000000E+00 0. -1.
         23    2    1    2    0    0 -0.40931750727E+00 -0.57772894979E+02 -0.12391209971E+03  0.16520355683E+03  0.92736895567E+02 0.  0.
         24    2    1    2    0    0  0.84202740224E+02  0.13937410817E+03 -0.16394331765E+04  0.16493831081E+04  0.78792472974E+02 0.  0.
        -11    1    4    4    0    0  0.41926931969E+02  0.48849093977E+02 -0.33498813383E+03  0.34111750382E+03  0.00000000000E+00 0.  1.
         12    1    4    4    0    0  0.42275808256E+02  0.90525014194E+02 -0.13044450426E+04  0.13082656043E+04  0.00000000000E+00 0. -1.
        -11    1    3    3    0    0 -0.27207605195E+02 -0.54610301085E+02 -0.30968670858E+02  0.68422199173E+02  0.00000000000E+00 0.  1.
         11    1    3    3    0    0  0.26798287688E+02 -0.31625938946E+01 -0.92943428849E+02  0.96781357654E+02  0.00000000000E+00 0. -1.
         21    1    1    2  502  501 -0.83793422717E+02 -0.81601213192E+02  0.88512156178E+02  0.14667821064E+03  0.00000000000E+00 0.  1.
<scales pt_clust_5="13000.00000" pt_clust_6="13000.00000" pt_clust_7="13000.00000" pt_clust_8="13000.00000" pt_clust_9="160.82382"></scales>
<clustering>
<clus scale="   78.792">  5  6 -1 -1</clus>
<clus scale="   92.737">  7  8 -1 -1</clus>
<clus scale="  109.261">  1  7  2 -1</clus>
<clus scale="  160.824">  1  9  2 -1</clus>
<clus scale="  179.088">  2  5  1 -1</clus>
</clustering>
</event>
<event>
 9    2  0.6066854E-005  0.1126904E+03  0.7546771E-02  0.1262404E+00
          2   -1    0    0  502    0  0.00000000000E+00  0.00000000000E+00  0.44537204136E+03  0.44537204136E+03  0.00000000000E+00 0. -1.
         -1   -1    0    0    0  501 -0.00000000000E+00 -0.00000000000E+00 -0.44897572156E+02  0.44897572156E+02  0.00000000000E+00 0.  1.
         23    2    1    2    0    0  0.75653691913E+02  0.13764827497E+02  0.16283947992E+03  0.20389821202E+03  0.95628620544E+02 0.  0.
         24    2    1    2    0    0 -0.50548944147E+02 -0.13130579587E+02  0.24299581044E+03  0.26069283000E+03  0.78652271733E+02 0.  0.
        -11    1    4    4    0    0  0.73656419895E+01  0.24185554602E+02  0.57360176694E+02  0.62684795634E+02  0.00000000000E+00 0.  1.
         12    1    4    4    0    0 -0.57914586136E+02 -0.37316134190E+02  0.18563563374E+03  0.19800803436E+03  0.00000000000E+00 0. -1.
        -11    1    3    3    0    0 -0.12544024421E+02 -0.19431203535E+02  0.12040487615E+02  0.26074845378E+02  0.00000000000E+00 0.  1.
         11    1    3    3    0    0  0.88197716334E+02  0.33196031031E+02  0.15079899230E+03  0.17782336664E+03  0.00000000000E+00 0. -1.
         21    1    1    2  502  501 -0.25104747766E+02 -0.63424790928E+00 -0.53608211518E+01  0.25678571499E+02  0.00000000000E+00 0.  1.
<scales pt_clust_5="13000.00000" pt_clust_6="13000.00000" pt_clust_7="13000.00000" pt_clust_8="13000.00000" pt_clust_9="25.11276"></scales>
<clustering>
<clus scale="   25.113">  2  9  1 -1</clus>
<clus scale="   78.652">  5  6 -1 -1</clus>
<clus scale="   95.629">  7  8 -1 -1</clus>
<clus scale="   98.694">  1  5  2 -1</clus>
<clus scale="   98.694">  1  5  2 -1</clus>
</clustering>
</event>
<event>
 9    2  0.6066854E-005  0.9731503E+02  0.7546771E-02  0.1293023E+00
          2   -1    0    0  502    0  0.00000000000E+00  0.00000000000E+00  0.29339390065E+03  0.29339390065E+03  0.00000000000E+00 0. -1.
         -1   -1    0    0    0  501 -0.00000000000E+00 -0.00000000000E+00 -0.89873582084E+02  0.89873582084E+02  0.00000000000E+00 0.  1.
         23    2    1    2    0    0 -0.58569074241E+02  0.26753756104E+02  0.39292994808E+02  0.11922251603E+03  0.92325343017E+02 0.  0.
         24    2    1    2    0    0  0.20055603303E+02  0.23463240780E+02  0.17963464942E+03  0.19891110529E+03  0.79650923671E+02 0.  0.
        -11    1    4    4    0    0 -0.54670122247E+01  0.38352004101E+02  0.38138689790E+02  0.54362892676E+02  0.00000000000E+00 0.  1.
         12    1    4    4    0    0  0.25522615528E+02 -0.14888763321E+02  0.14149595963E+03  0.14454821261E+03  0.00000000000E+00 0. -1.
        -11    1    3    3    0    0  0.10327165487E+02  0.17290247063E+02  0.45145047235E+02  0.49433574424E+02  0.00000000000E+00 0. -1.
         11    1    3    3    0    0 -0.68896239729E+02  0.94635090414E+01 -0.58520524271E+01  0.69788941601E+02  0.00000000000E+00 0.  1.
         21    1    1    2  502  501  0.38513470938E+02 -0.50216996884E+02 -0.15407325664E+02  0.65133861423E+02  0.00000000000E+00 0. -1.
<scales pt_clust_5="13000.00000" pt_clust_6="13000.00000" pt_clust_7="13000.00000" pt_clust_8="13000.00000" pt_clust_9="63.28534"></scales>
<clustering>
<clus scale="   63.285">  2  9  1 -1</clus>
<clus scale="   79.651">  5  6 -1 -1</clus>
<clus scale="   85.385">  1  5  2 -1</clus>
<clus scale="   92.325">  7  8 -1 -1</clus>
<clus scale="   85.385">  1  5  2 -1</clus>
</clustering>
</event>
<event>
 9    2  0.6066854E-005  0.1836323E+03  0.7546771E-02  0.1165416E+00
         -1   -1    0    0    0  501 -0.00000000000E+00  0.00000000000E+00  0.13952532080E+03  0.13952532080E+03  0.00000000000E+00 0.  1.
          2   -1    0    0  502    0  0.00000000000E+00 -0.00000000000E+00 -0.78243439448E+03  0.78243439448E+03  0.00000000000E+00 0. -1.
         24    2    1    2    0    0  0.69144917539E+02  0.15940314774E+03  0.96142582474E+00  0.19126872729E+03  0.79952602020E+02 0.  0.
         23    2    1    2    0    0 -0.14535201901E+03 -0.74913339791E+02 -0.55744181275E+03  0.58780653167E+03  0.89643327532E+02 0.  0.
        -13    1    3    3    0    0  0.39898897514E+02  0.15530098992E+03  0.92021514880E+01  0.16060821612E+03  0.00000000000E+00 0.  1.
         14    1    3    3    0    0  0.29246020024E+02  0.41021578216E+01 -0.82407256632E+01  0.30660511175E+02  0.00000000000E+00 0. -1.
        -11    1    4    4    0    0 -0.82454209163E+02 -0.55727349987E+02 -0.18958610250E+03  0.21411941623E+03  0.00000000000E+00 0.  1.
         11    1    4    4    0    0 -0.62897809847E+02 -0.19185989804E+02 -0.36785571024E+03  0.37368711544E+03  0.00000000000E+00 0. -1.
         21    1    1    2  502  501  0.76207101471E+02 -0.84489807950E+02 -0.86428686757E+02  0.14288445632E+03  0.00000000000E+00 0.  1.
<scales pt_clust_5="13000.00000" pt_clust_6="13000.00000" pt_clust_7="13000.00000" pt_clust_8="13000.00000" pt_clust_9="113.78071"></scales>
<clustering>
<clus scale="   79.953">  5  6 -1 -1</clus>
<clus scale="   89.643">  7  8 -1 -1</clus>
<clus scale="  113.781">  1  9  2 -1</clus>
<clus scale="  179.101">  1  5  2 -1</clus>
<clus scale="  183.632">  2  5  1 -1</clus>
</clustering>
</event>
<event>
 9    2  0.6066854E-005  0.9388066E+02  0.7546771E-02  0.1301226E+00
         -1   -1    0    0    0  501 -0.00000000000E+00  0.00000000000E+00  0.63983681884E+02  0.63983681884E+02  0.00000000000E+00 0.  1.
          2   -1    0    0  502    0  0.00000000000E+00 -0.00000000000E+00 -0.13582179941E+04  0.13582179941E+04  0.00000000000E+00 0. -1.
         23    2    1    2    0    0  0.21778913514E+02  0.12607447202E+02  0.19252680188E+02  0.95798005987E+02  0.90406434825E+02 0.  0.
         24    2    1    2    0    0  0.62312753762E+01 -0.64676588359E+02 -0.11068770596E+04  0.11115003651E+04  0.77681056676E+02 0.  0.
        -13    1    4    4    0    0 -0.15967928530E+02 -0.17241897472E+02 -0.82401536934E+02  0.85687053042E+02  0.00000000000E+00 0.  1.
         14    1    4    4    0    0  0.22199203906E+02 -0.47434690887E+02 -0.10244755227E+04  0.10258133121E+04  0.00000000000E+00 0. -1.
        -13    1    3    3    0    0  0.13370555862E+02  0.33845819070E+02 -0.26258860743E+02  0.44875817543E+02  0.00000000000E+00 0. -1.
         13    1    3    3    0    0  0.84083576522E+01 -0.21238371868E+02  0.45511540931E+02  0.50922188444E+02  0.00000000000E+00 0.  1.
         21    1    1    2  502  501 -0.28010188891E+02  0.52069141156E+02 -0.20660993273E+03  0.21490330487E+03  0.00000000000E+00 0. -1.
<scales pt_clust_5="13000.00000" pt_clust_6="13000.00000" pt_clust_7="13000.00000" pt_clust_8="13000.00000" pt_clust_9="59.12500"></scales>
<clustering>
<clus scale="   59.125">  2  9  1 -1</clus>
<clus scale="   77.681">  5  6 -1 -1</clus>
<clus scale="   81.698">  2  5  1 -1</clus>
<clus scale="   90.406">  7  8 -1 -1</clus>
<clus scale="   59.125">  2  5  1 -1</clus>
</clustering>
</event>
<event>
 9    2  0.6066854E-005  0.1105692E+03  0.7546771E-02  0.1265096E+00
         -1   -1    0    0    0  501 -0.00000000000E+00  0.00000000000E+00  0.52040108215E+02  0.52040108215E+02  0.00000000000E+00 0.  1.
          2   -1    0    0  502    0  0.00000000000E+00 -0.00000000000E+00 -0.55877421154E+03  0.55877421154E+03  0.00000000000E+00 0. -1.
         23    2    1    2    0    0 -0.54191989638E+02  0.15722835063E+02 -0.57371319393E+02  0.12344688860E+03  0.93614564753E+02 0.  0.
         24    2    1    2    0    0  0.43490007101E+02 -0.41574732427E+02 -0.44837061756E+03  0.45937033449E+03  0.79781291203E+02 0.  0.
        -13    1    4    4    0    0  0.23855648975E+02  0.10748776839E+02 -0.44275852439E+02  0.51429362243E+02  0.00000000000E+00 0.  1.
         14    1    4    4    0    0  0.19634358126E+02 -0.52323509266E+02 -0.40409476512E+03  0.40794097224E+03  0.00000000000E+00 0. -1.
        -11    1    3    3    0    0 -0.57425885153E+02  0.36708740923E+02 -0.66735932470E+01  0.68482120240E+02  0.00000000000E+00 0.  1.
         11    1    3    3    0    0  0.32338955151E+01 -0.20985905860E+02 -0.50697726146E+02  0.54964768364E+02  0.00000000000E+00 0. -1.
         21    1    1    2  502  501  0.10701982537E+02  0.25851897364E+02 -0.99216637940E+00  0.27997096665E+02  0.00000000000E+00 0.  1.
<scales pt_clust_5="13000.00000" pt_clust_6="13000.00000" pt_clust_7="13000.00000" pt_clust_8="13000.00000" pt_clust_9="27.97951"></scales>
<clustering>
<clus scale="   27.980">  1  9  2 -1</clus>
<clus scale="   79.781">  5  6 -1 -1</clus>
<clus scale="   93.615">  7  8 -1 -1</clus>
<clus scale="   99.131">  2  5  1 -1</clus>
<clus scale="   99.131">  2  5  1 -1</clus>
</clustering>
</event>
<event>
 9    2  0.6066854E-005  0.1019466E+03  0.7546771E-02  0.1281695E+00
          2   -1    0    0  502    0  0.00000000000E+00  0.00000000000E+00  0.64568252128E+03  0.64568252128E+03  0.00000000000E+00 0. -1.
         -1   -1    0    0    0  501 -0.00000000000E+00 -0.00000000000E+00 -0.30347221043E+02  0.30347221043E+02  0.00000000000E+00 0.  1.
         23    2    1    2    0    0 -0.50117638718E+02 -0.40450732789E+02  0.12343710135E+03  0.16681837306E+03  0.91889129423E+02 0.  0.
         24    2    1    2    0    0  0.24883909144E+02  0.31662261081E+02  0.45391158394E+03  0.46276827227E+03  0.80604218712E+02 0.  0.
        -11    1    4    4    0    0 -0.19538167107E+02 -0.15458336502E+02  0.10678492477E+03  0.10965272591E+03  0.00000000000E+00 0.  1.
         12    1    4    4    0    0  0.44422076252E+02  0.47120597582E+02  0.34712665917E+03  0.35311554636E+03  0.00000000000E+00 0. -1.
        -11    1    3    3    0    0  0.19909780055E+02  0.57096176293E+01  0.54324869110E+02  0.58139405562E+02  0.00000000000E+00 0. -1.
         11    1    3    3    0    0 -0.70027418773E+02 -0.46160350419E+02  0.69112232244E+02  0.10867896750E+03  0.00000000000E+00 0.  1.
         21    1    1    2  502  501  0.25233729574E+02  0.87884717087E+01  0.37986614936E+02  0.46443096984E+02  0.00000000000E+00 0. -1.
<scales pt_clust_5="13000.00000" pt_clust_6="13000.00000" pt_clust_7="13000.00000" pt_clust_8="13000.00000" pt_clust_9="26.72037"></scales>
<clustering>
<clus scale="   26.720">  2  9  1 -1</clus>
<clus scale="   80.604">  5  6 -1 -1</clus>
<clus scale="   91.889">  7  8 -1 -1</clus>
<clus scale="   91.905">  1  5  2 -1</clus>
<clus scale="   91.905">  1  5  2 -1</clus>
</clustering>
</event>
<event>
 9    2  0.6066854E-005  0.1364642E+03  0.7546771E-02  0.1224487E+00
         -1   -1    0    0    0  501 -0.00000000000E+00  0.00000000000E+00  0.10742211321E+03  0.10742211321E+03  0.00000000000E+00 0.  1.
          2   -1    0    0  502    0  0.00000000000E+00 -0.00000000000E+00 -0.65654554480E+03  0.65654554480E+03  0.00000000000E+00 0. -1.
         23    2    1    2    0    0 -0.36401852929E+02  0.46271832802E+02  0.34276370030E+02  0.12471754439E+03  0.10446731034E+03 0.  0.
         24    2    1    2    0    0  0.77364406842E+02 -0.46669245753E+02 -0.58576419193E+03  0.59821745465E+03  0.81124377119E+02 0.  0.
        -11    1    4    4    0    0 -0.83002018945E+01 -0.21531451395E+02 -0.50028099928E+02  0.55093625159E+02  0.00000000000E+00 0.  1.
         12    1    4    4    0    0  0.85664608737E+02 -0.25137794358E+02 -0.53573609200E+03  0.54312382950E+03  0.00000000000E+00 0. -1.
        -11    1    3    3    0    0  0.21649165345E+02  0.54506372471E+02  0.30139806799E+02  0.65939661464E+02  0.00000000000E+00 0.  1.
         11    1    3    3    0    0 -0.58051018274E+02 -0.82345396688E+01  0.41365632307E+01  0.58777882929E+02  0.00000000000E+00 0. -1.
         21    1    1    2  502  501 -0.40962553913E+02  0.39741295029E+00  0.23643903139E+01  0.41032658964E+02  0.00000000000E+00 0.  1.
<scales pt_clust_5="13000.00000" pt_clust_6="13000.00000" pt_clust_7="13000.00000" pt_clust_8="13000.00000" pt_clust_9="40.96448"></scales>
<clustering>
<clus scale="   40.964">  1  9  2 -1</clus>
<clus scale="   81.124">  5  6 -1 -1</clus>
<clus scale="  104.467">  7  8 -1 -1</clus>
<clus scale="  119.542">  2  5  1 -1</clus>
<clus scale="  119.542">  2  5  1 -1</clus>
</clustering>
</event>
<event>
 9    2  0.6066854E-005  0.1525774E+03  0.7546771E-02  0.1210424E+00
         -1   -1    0    0    0  501 -0.00000000000E+00  0.00000000000E+00  0.36854552746E+03  0.36854552746E+03  0.00000000000E+00 0.  1.
          2   -1    0    0  502    0  0.00000000000E+00 -0.00000000000E+00 -0.32019991597E+03  0.32019991597E+03  0.00000000000E+00 0. -1.
         23    2    1    2    0    0  0.10520796647E+03 -0.65447287395E+02  0.27576608798E+03  0.31575386981E+03  0.91112608250E+02 0.  0.
         24    2    1    2    0    0  0.21963394210E+02  0.76259581095E+02 -0.33253460983E+01  0.11509995272E+03  0.83300821094E+02 0.  0.
        -11    1    4    4    0    0  0.22807851035E+02 -0.10930771911E+02 -0.10975276269E+02  0.27570573671E+02  0.00000000000E+00 0.  1.
         12    1    4    4    0    0 -0.84445682489E+00  0.87190353006E+02  0.76499301711E+01  0.87529379046E+02  0.00000000000E+00 0. -1.
        -13    1    3    3    0    0  0.45163404879E+02  0.19366047726E+02  0.10346777974E+03  0.11454413293E+03  0.00000000000E+00 0. -1.
         13    1    3    3    0    0  0.60044561592E+02 -0.84813335121E+02  0.17229830824E+03  0.20120973687E+03  0.00000000000E+00 0.  1.
         21    1    1    2  502  501 -0.12717136068E+03 -0.10812293700E+02 -0.22409513038E+03  0.25789162091E+03  0.00000000000E+00 0. -1.
<scales pt_clust_5="13000.00000" pt_clust_6="13000.00000" pt_clust_7="13000.00000" pt_clust_8="13000.00000" pt_clust_9="122.38612"></scales>
<clustering>
<clus scale="   83.301">  5  6 -1 -1</clus>
<clus scale="   91.113">  7  8 -1 -1</clus>
<clus scale="  115.052">  2  5  1 -1</clus>
<clus scale="  122.386">  2  9  1 -1</clus>
<clus scale="  115.052">  2  5  1 -1</clus>
</clustering>
</event>
<event>
 9    2  0.6066854E-005  0.9748393E+02  0.7546771E-02  0.1292900E+00
         -1   -1    0    0    0  501 -0.00000000000E+00  0.00000000000E+00  0.28449755691E+02  0.28449755691E+02  0.00000000000E+00 0.  1.
          2   -1    0    0  502    0  0.00000000000E+00 -0.00000000000E+00 -0.47647522248E+03  0.47647522248E+03  0.00000000000E+00 0. -1.
         24    2    1    2    0    0 -0.11549562727E+01 -0.25433030363E+02 -0.15981169527E+03  0.18114078579E+03  0.81388164827E+02 0.  0.
         23    2    1    2    0    0  0.22251586841E+02  0.18120897024E+02 -0.28460258635E+03  0.30116615149E+03  0.94228013993E+02 0.  0.
        -11    1    3    3    0    0  0.26176176964E+02  0.19299444540E+02 -0.69123466835E+02  0.76391848174E+02  0.00000000000E+00 0.  1.
         12    1    3    3    0    0 -0.27331133237E+02 -0.44732474903E+02 -0.90688228431E+02  0.10474893761E+03  0.00000000000E+00 0. -1.
        -13    1    4    4    0    0  0.35612255677E+02  0.43792699028E+02 -0.24883553369E+03  0.25515712036E+03  0.00000000000E+00 0.  1.
         13    1    4    4    0    0 -0.13360668836E+02 -0.25671802004E+02 -0.35767052663E+02  0.46009031136E+02  0.00000000000E+00 0. -1.
         21    1    1    2  502  501 -0.21096630568E+02  0.73121333391E+01 -0.36111851665E+01  0.22618040888E+02  0.00000000000E+00 0.  1.
<scales pt_clust_5="13000.00000" pt_clust_6="13000.00000" pt_clust_7="13000.00000" pt_clust_8="13000.00000" pt_clust_9="22.32790"></scales>
<clustering>
<clus scale="   22.328">  1  9  2 -1</clus>
<clus scale="   81.388">  5  6 -1 -1</clus>
<clus scale="   85.137">  1  5  2 -1</clus>
<clus scale="   94.228">  7  8 -1 -1</clus>
<clus scale="   97.484">  2  5  1 -1</clus>
</clustering>
</event>
<event>
 9    2  0.6066854E-005  0.9811504E+02  0.7546771E-02  0.1290021E+00
         -1   -1    0    0    0  501 -0.00000000000E+00  0.00000000000E+00  0.79250359551E+02  0.79250359551E+02  0.00000000000E+00 0.  1.
          2   -1    0    0  502    0  0.00000000000E+00 -0.00000000000E+00 -0.24627492596E+03  0.24627492596E+03  0.00000000000E+00 0. -1.
         23    2    1    2    0    0 -0.14417540756E+02 -0.49283420569E+02 -0.62818174824E+02  0.12160395927E+03  0.90579682035E+02 0.  0.
         24    2    1    2    0    0 -0.29816571437E+02  0.27212867387E+02 -0.12217215242E+03  0.15132346923E+03  0.79644142460E+02 0.  0.
        -11    1    4    4    0    0 -0.30436483346E+02  0.41510627292E+02 -0.33298621582E+02  0.61305056038E+02  0.00000000000E+00 0.  1.
         12    1    4    4    0    0  0.61991190876E+00 -0.14297759905E+02 -0.88873530842E+02  0.90018413191E+02  0.00000000000E+00 0. -1.
        -13    1    3    3    0    0 -0.52172722097E+02 -0.29513751245E+02 -0.46902431961E+02  0.76111054174E+02  0.00000000000E+00 0. -1.
         13    1    3    3    0    0  0.37755181341E+02 -0.19769669324E+02 -0.15915742863E+02  0.45492905097E+02  0.00000000000E+00 0.  1.
         21    1    1    2  502  501  0.44234112193E+02  0.22070553182E+02  0.17965760841E+02  0.52597857009E+02  0.00000000000E+00 0.  1.
<scales pt_clust_5="13000.00000" pt_clust_6="13000.00000" pt_clust_7="13000.00000" pt_clust_8="13000.00000" pt_clust_9="49.43446"></scales>
<clustering>
<clus scale="   49.434">  1  9  2 -1</clus>
<clus scale="   79.644">  5  6 -1 -1</clus>
<clus scale="   88.120">  2  5  1 -1</clus>
<clus scale="   90.580">  7  8 -1 -1</clus>
<clus scale="   88.120">  2  5  1 -1</clus>
</clustering>
</event>
<event>
 9    2  0.6066854E-005  0.9960109E+02  0.7546771E-02  0.1287737E+00
          2   -1    0    0  502    0  0.00000000000E+00  0.00000000000E+00  0.10359683223E+04  0.10359683223E+04  0.00000000000E+00 0. -1.
         -1   -1    0    0    0  501 -0.00000000000E+00 -0.00000000000E+00 -0.28077199951E+02  0.28077199951E+02  0.00000000000E+00 0.  1.
         23    2    1    2    0    0  0.18089546825E-01  0.10922841334E+02  0.92967473109E+02  0.13186536260E+03  0.92877413874E+02 0.  0.
         24    2    1    2    0    0  0.13359436917E+02 -0.36558586678E+02  0.88864301072E+03  0.89310559485E+03  0.80225920078E+02 0.  0.
        -13    1    4    4    0    0 -0.18069336488E+02 -0.13119376405E+02  0.68953951788E+02  0.72479420704E+02  0.00000000000E+00 0.  1.
         14    1    4    4    0    0  0.31428773405E+02 -0.23439210273E+02  0.81968905893E+03  0.82062617415E+03  0.00000000000E+00 0. -1.
        -13    1    3    3    0    0 -0.23398893210E+02  0.21406454892E+02 -0.36282994891E+01  0.31920355131E+02  0.00000000000E+00 0.  1.
         13    1    3    3    0    0  0.23416982757E+02 -0.10483613557E+02  0.96595772598E+02  0.99945007471E+02  0.00000000000E+00 0. -1.
         21    1    1    2  502  501 -0.13377526464E+02  0.25635745344E+02  0.26280638562E+02  0.39074564833E+02  0.00000000000E+00 0.  1.
<scales pt_clust_5="13000.00000" pt_clust_6="13000.00000" pt_clust_7="13000.00000" pt_clust_8="13000.00000" pt_clust_9="28.91625"></scales>
<clustering>
<clus scale="   28.916">  2  9  1 -1</clus>
<clus scale="   80.226">  5  6 -1 -1</clus>
<clus scale="   87.922">  1  5  2 -1</clus>
<clus scale="   92.877">  7  8 -1 -1</clus>
<clus scale="   87.922">  1  5  2 -1</clus>
</clustering>
</event>
<event>
 9    2  0.6066854E-005  0.1123030E+03  0.7546771E-02  0.1270718E+00
         -1   -1    0    0    0  501 -0.00000000000E+00  0.00000000000E+00  0.28484329651E+03  0.28484329651E+03  0.00000000000E+00 0.  1.
          2   -1    0    0  502    0  0.00000000000E+00 -0.00000000000E+00 -0.56635831454E+03  0.56635831454E+03  0.00000000000E+00 0. -1.
         23    2    1    2    0    0 -0.24317359726E+00  0.54479868646E+01  0.14513480065E+03  0.18138631980E+03  0.10866069646E+03 0.  0.
         24    2    1    2    0    0  0.20855870125E+02 -0.19953201405E+02 -0.54358710178E+03  0.55019249792E+03  0.79948420742E+02 0.  0.
        -11    1    4    4    0    0  0.33803020052E+02  0.18135853410E+02 -0.16149991333E+03  0.16599329910E+03  0.00000000000E+00 0.  1.
         12    1    4    4    0    0 -0.12947149927E+02 -0.38089054815E+02 -0.38208718846E+03  0.38419919882E+03  0.00000000000E+00 0. -1.
        -11    1    3    3    0    0  0.39795498392E+02  0.33740695051E+01  0.11054149091E+02  0.41439838916E+02  0.00000000000E+00 0. -1.
         11    1    3    3    0    0 -0.40038671989E+02  0.20739173595E+01  0.13408065156E+03  0.13994648088E+03  0.00000000000E+00 0.  1.
         21    1    1    2  502  501 -0.20612696528E+02  0.14505214540E+02  0.11693728309E+03  0.11962279333E+03  0.00000000000E+00 0.  1.
<scales pt_clust_5="13000.00000" pt_clust_6="13000.00000" pt_clust_7="13000.00000" pt_clust_8="13000.00000" pt_clust_9="25.20485"></scales>
<clustering>
<clus scale="   25.205">  1  9  2 -1</clus>
<clus scale="   79.948">  5  6 -1 -1</clus>
<clus scale="   84.833">  2  5  1 -1</clus>
<clus scale="  108.661">  7  8 -1 -1</clus>
<clus scale="   84.833">  2  5  1 -1</clus>
</clustering>
</event>
<event>
 9    2  0.8029796E-005  0.9544720E+02  0.7546771E-02  0.1297117E+00
          2   -1    0    0  502    0  0.00000000000E+00  0.00000000000E+00  0.39463157257E+03  0.39463157257E+03  0.00000000000E+00 0. -1.
         -1   -1    0    0    0  501 -0.00000000000E+00 -0.00000000000E+00 -0.53507215313E+02  0.53507215313E+02  0.00000000000E+00 0.  1.
         24    2    1    2    0    0  0.33704794331E+01 -0.59080582032E+01 -0.10902457898E+01  0.80039768306E+02  0.79742777675E+02 0.  0.
         23    2    1    2    0    0 -0.29247060451E+02  0.55358499123E+01  0.31914954282E+03  0.33343299893E+03  0.91842789127E+02 0.  0.
        -13    1    3    3    0    0 -0.35615698553E+02  0.31126618237E+01  0.12353622920E+02  0.37825634777E+02  0.00000000000E+00 0.  1.
         14    1    3    3    0    0  0.38986177986E+02 -0.90207200270E+01 -0.13443868709E+02  0.42214133529E+02  0.00000000000E+00 0. -1.
        -13    1    4    4    0    0 -0.43712535105E+02 -0.29677381141E+02  0.23805294380E+03  0.24384572321E+03  0.00000000000E+00 0. -1.
         13    1    4    4    0    0  0.14465474655E+02  0.35213231054E+02  0.81096599020E+02  0.89587275720E+02  0.00000000000E+00 0.  1.
         21    1    1    2  502  501  0.25876581018E+02  0.37220829087E+00  0.23065060227E+02  0.34666020646E+02  0.00000000000E+00 0. -1.
<scales pt_clust_5="13000.00000" pt_clust_6="13000.00000" pt_clust_7="13000.00000" pt_clust_8="13000.00000" pt_clust_9="25.87926"></scales>
<clustering>
<clus scale="   25.879">  2  9  1 -1</clus>
<clus scale="   79.743">  5  6 -1 -1</clus>
<clus scale="   83.869">  2  5  1 -1</clus>
<clus scale="   91.843">  7  8 -1 -1</clus>
<clus scale="   95.447">  1  5  2 -1</clus>
</clustering>
</event>
<event>
 9    2  0.6066854E-005  0.1287620E+03  0.7546771E-02  0.1231778E+00
         -1   -1    0    0    0  501 -0.00000000000E+00  0.00000000000E+00  0.13805830509E+03  0.13805830509E+03  0.00000000000E+00 0.  1.
          2   -1    0    0  502    0  0.00000000000E+00 -0.00000000000E+00 -0.58533405927E+03  0.58533405927E+03  0.00000000000E+00 0. -1.
         23    2    1    2    0    0  0.10849360134E+03 -0.61267500535E+02  0.15905120568E+02  0.15597516933E+03  0.92470062368E+02 0.  0.
         24    2    1    2    0    0 -0.85310135100E+02  0.17594925028E+02 -0.49443975738E+03  0.50892031732E+03  0.83317556194E+02 0.  0.
        -13    1    4    4    0    0 -0.69071719759E+02  0.48382812738E+02 -0.31238451974E+03  0.32356743843E+03  0.00000000000E+00 0.  1.
         14    1    4    4    0    0 -0.16238415341E+02 -0.30787887710E+02 -0.18205523763E+03  0.18535287889E+03  0.00000000000E+00 0. -1.
        -11    1    3    3    0    0  0.88839499160E+02 -0.43681835840E+01  0.30504047651E+02  0.94032093255E+02  0.00000000000E+00 0.  1.
         11    1    3    3    0    0  0.19654102181E+02 -0.56899316951E+02 -0.14598927083E+02  0.61943076078E+02  0.00000000000E+00 0. -1.
         21    1    1    2  502  501 -0.23183466240E+02  0.43672575507E+02  0.31258882624E+02  0.58496877705E+02  0.00000000000E+00 0.  1.
<scales pt_clust_5="13000.00000" pt_clust_6="13000.00000" pt_clust_7="13000.00000" pt_clust_8="13000.00000" pt_clust_9="49.44458"></scales>
<clustering>
<clus scale="   49.445">  1  9  2 -1</clus>
<clus scale="   83.318">  5  6 -1 -1</clus>
<clus scale="   92.470">  7  8 -1 -1</clus>
<clus scale="  122.355">  2  5  1 -1</clus>
<clus scale="  122.355">  2  5  1 -1</clus>
</clustering>
</event>
<event>
 9    2  0.6066854E-005  0.1663285E+03  0.7546771E-02  0.1183534E+00
          2   -1    0    0  502    0  0.00000000000E+00  0.00000000000E+00  0.10415621049E+04  0.10415621049E+04  0.00000000000E+00 0. -1.
         -1   -1    0    0    0  501 -0.00000000000E+00 -0.00000000000E+00 -0.54817585259E+02  0.54817585259E+02  0.00000000000E+00 0.  1.
         24    2    1    2    0    0 -0.86312005069E+02  0.70259999057E+02  0.13926407219E+03  0.19511953006E+03  0.79315317055E+02 0.  0.
         23    2    1    2    0    0  0.10391107334E+03 -0.10468612087E+03  0.84482162617E+03  0.86250510368E+03  0.91841051610E+02 0.  0.
        -11    1    3    3    0    0 -0.10043871982E+02  0.35265814251E+02  0.53070989285E+01  0.37050267451E+02  0.00000000000E+00 0.  1.
         12    1    3    3    0    0 -0.76268133087E+02  0.34994184806E+02  0.13395697326E+03  0.15806926260E+03  0.00000000000E+00 0. -1.
        -11    1    4    4    0    0  0.47314652876E+01 -0.66644889209E+02  0.36517505785E+03  0.37123678548E+03  0.00000000000E+00 0.  1.
         11    1    4    4    0    0  0.99179608049E+02 -0.38041231665E+02  0.47964656832E+03  0.49126831820E+03  0.00000000000E+00 0. -1.
         21    1    1    2  502  501 -0.17599068267E+02  0.34426121818E+02  0.26588212723E+01  0.38755056417E+02  0.00000000000E+00 0.  1.
<scales pt_clust_5="13000.00000" pt_clust_6="13000.00000" pt_clust_7="13000.00000" pt_clust_8="13000.00000" pt_clust_9="38.66374"></scales>
<clustering>
<clus scale="   38.664">  2  9  1 -1</clus>
<clus scale="   79.315">  5  6 -1 -1</clus>
<clus scale="   91.841">  7  8 -1 -1</clus>
<clus scale="  159.754">  2  5  1 -1</clus>
<clus scale="  166.329">  1  5  2 -1</clus>
</clustering>
</event>
<event>
 9    2  0.6066854E-005  0.1595668E+03  0.7546771E-02  0.1191390E+00
          2   -1    0    0  502    0  0.00000000000E+00  0.00000000000E+00  0.54350000999E+03  0.54350000999E+03  0.00000000000E+00 0. -1.
         -1   -1    0    0    0  501 -0.00000000000E+00 -0.00000000000E+00 -0.64770079768E+02  0.64770079768E+02  0.00000000000E+00 0.  1.
         24    2    1    2    0    0  0.11224854856E+03  0.46903797183E+02  0.99818173225E+02  0.17531262683E+03  0.77273194429E+02 0.  0.
         23    2    1    2    0    0 -0.10663329586E+03 -0.86456879681E+02  0.33638238575E+03  0.37460744307E+03  0.91280748970E+02 0.  0.
        -11    1    3    3    0    0  0.60252222446E+02  0.58594492212E+02  0.34097628035E+02  0.90698914354E+02  0.00000000000E+00 0.  1.
         12    1    3    3    0    0  0.51996326114E+02 -0.11690695029E+02  0.65720545189E+02  0.84613712480E+02  0.00000000000E+00 0. -1.
        -13    1    4    4    0    0 -0.91651289140E+01 -0.64223938153E+02  0.13440701237E+03  0.14924462736E+03  0.00000000000E+00 0.  1.
         13    1    4    4    0    0 -0.97468166941E+02 -0.22232941528E+02  0.20197537338E+03  0.22536281572E+03  0.00000000000E+00 0. -1.
         21    1    1    2  502  501 -0.56152527050E+01  0.39553082498E+02  0.42529371242E+02  0.58350019848E+02  0.00000000000E+00 0.  1.
<scales pt_clust_5="13000.00000" pt_clust_6="13000.00000" pt_clust_7="13000.00000" pt_clust_8="13000.00000" pt_clust_9="39.94969"></scales>
<clustering>
<clus scale="   39.950">  2  9  1 -1</clus>
<clus scale="   77.273">  5  6 -1 -1</clus>
<clus scale="   91.281">  7  8 -1 -1</clus>
<clus scale="  151.989">  2  5  1 -1</clus>
<clus scale="  159.567">  1  5  2 -1</clus>
</clustering>
</event>
<event>
 9    2  0.6066854E-005  0.1031058E+03  0.7546771E-02  0.1279069E+00
         -1   -1    0    0    0  501 -0.00000000000E+00  0.00000000000E+00  0.69648711747E+02  0.69648711747E+02  0.00000000000E+00 0.  1.
          2   -1    0    0  502    0  0.00000000000E+00 -0.00000000000E+00 -0.22716229917E+03  0.22716229917E+03  0.00000000000E+00 0. -1.
         23    2    1    2    0    0 -0.45807742845E+02 -0.89752297109E+01 -0.54472277138E+02  0.11683295739E+03  0.92216088097E+02 0.  0.
         24    2    1    2    0    0  0.37738232238E+02  0.28872757474E+02 -0.12009200182E+03  0.15255990817E+03  0.81207304988E+02 0.  0.
        -11    1    4    4    0    0  0.61830707528E+02  0.12139200515E+02 -0.67495432582E+02  0.92336504168E+02  0.00000000000E+00 0.  1.
         12    1    4    4    0    0 -0.24092475290E+02  0.16733556959E+02 -0.52596569239E+02  0.60223404004E+02  0.00000000000E+00 0. -1.
        -11    1    3    3    0    0  0.16199123352E+02 -0.18104001768E+02  0.10582768986E+02  0.26498329698E+02  0.00000000000E+00 0.  1.
         11    1    3    3    0    0 -0.62006866197E+02  0.91287720567E+01 -0.65055046124E+02  0.90334627696E+02  0.00000000000E+00 0. -1.
         21    1    1    2  502  501  0.80695106072E+01 -0.19897527763E+02  0.17050691537E+02  0.27418145350E+02  0.00000000000E+00 0.  1.
<scales pt_clust_5="13000.00000" pt_clust_6="13000.00000" pt_clust_7="13000.00000" pt_clust_8="13000.00000" pt_clust_9="21.47158"></scales>
<clustering>
<clus scale="   21.472">  1  9  2 -1</clus>
<clus scale="   81.207">  5  6 -1 -1</clus>
<clus scale="   92.216">  7  8 -1 -1</clus>
<clus scale="   93.390">  2  5  1 -1</clus>
<clus scale="   93.390">  2  5  1 -1</clus>
</clustering>
</event>
<event>
 9    2  0.6066854E-005  0.9825546E+02  0.7546771E-02  0.1288932E+00
         -1   -1    0    0    0  501 -0.00000000000E+00  0.00000000000E+00  0.56733166037E+02  0.56733166037E+02  0.00000000000E+00 0.  1.
          2   -1    0    0  502    0  0.00000000000E+00 -0.00000000000E+00 -0.46072910803E+03  0.46072910803E+03  0.00000000000E+00 0. -1.
         23    2    1    2    0    0  0.23682283653E+02 -0.28467720368E+02 -0.12393578195E+02  0.98404117841E+02  0.90324459399E+02 0.  0.
         24    2    1    2    0    0 -0.39355515719E+02  0.64737533212E+01 -0.37844130349E+03  0.38901488247E+03  0.80771235542E+02 0.  0.
        -11    1    4    4    0    0  0.13973494766E+02 -0.14954904399E+02 -0.33048815305E+02  0.38873280214E+02  0.00000000000E+00 0.  1.
         12    1    4    4    0    0 -0.53329010484E+02  0.21428657720E+02 -0.34539248819E+03  0.35014160225E+03  0.00000000000E+00 0. -1.
        -13    1    3    3    0    0 -0.87592471820E+01 -0.38944511325E+02 -0.38505020789E+02  0.55462023039E+02  0.00000000000E+00 0. -1.
         13    1    3    3    0    0  0.32441530835E+02  0.10476790957E+02  0.26111442594E+02  0.42942094803E+02  0.00000000000E+00 0.  1.
         21    1    1    2  502  501  0.15673232066E+02  0.21993967047E+02 -0.13161060304E+02  0.30043273760E+02  0.00000000000E+00 0.  1.
<scales pt_clust_5="13000.00000" pt_clust_6="13000.00000" pt_clust_7="13000.00000" pt_clust_8="13000.00000" pt_clust_9="27.00712"></scales>
<clustering>
<clus scale="   27.007">  1  9  2 -1</clus>
<clus scale="   80.771">  5  6 -1 -1</clus>
<clus scale="   89.552">  2  5  1 -1</clus>
<clus scale="   90.324">  7  8 -1 -1</clus>
<clus scale="   89.552">  2  5  1 -1</clus>
</clustering>
</event>
<event>
 9    2  0.6066854E-005  0.1020897E+03  0.7546771E-02  0.1284715E+00
         -1   -1    0    0    0  501 -0.00000000000E+00  0.00000000000E+00  0.93779030908E+02  0.93779030908E+02  0.00000000000E+00 0.  1.
          2   -1    0    0  502    0  0.00000000000E+00 -0.00000000000E+00 -0.21872896076E+03  0.21872896076E+03  0.00000000000E+00 0. -1.
         23    2    1    2    0    0 -0.27225052568E+02  0.47301106415E+02 -0.21199765192E+02  0.10931643930E+03  0.92314980918E+02 0.  0.
         24    2    1    2    0    0 -0.15922812827E+02 -0.41948575600E+02 -0.12692122878E+03  0.15392405713E+03  0.74635099559E+02 0.  0.
        -11    1    4    4    0    0 -0.35477872661E+02 -0.14785524012E+02 -0.10979267115E+03  0.11632592921E+03  0.00000000000E+00 0.  1.
         12    1    4    4    0    0  0.19555059834E+02 -0.27163051588E+02 -0.17128557629E+02  0.37598127921E+02  0.00000000000E+00 0. -1.
        -13    1    3    3    0    0  0.67412227136E+01  0.40461060285E+02  0.27620011159E+02  0.49451051551E+02  0.00000000000E+00 0.  1.
         13    1    3    3    0    0 -0.33966275282E+02  0.68400461303E+01 -0.48819776351E+02  0.59865387751E+02  0.00000000000E+00 0. -1.
         21    1    1    2  502  501  0.43147865395E+02 -0.53525308150E+01  0.23171064118E+02  0.49267495234E+02  0.00000000000E+00 0. -1.
<scales pt_clust_5="13000.00000" pt_clust_6="13000.00000" pt_clust_7="13000.00000" pt_clust_8="13000.00000" pt_clust_9="43.47859"></scales>
<clustering>
<clus scale="   43.479">  1  9  2 -1</clus>
<clus scale="   74.635">  5  6 -1 -1</clus>
<clus scale="   86.433">  2  5  1 -1</clus>
<clus scale="   92.315">  7  8 -1 -1</clus>
<clus scale="   86.433">  2  5  1 -1</clus>
</clustering>
</event>
<event>
 9    2  0.6066854E-005  0.9306983E+02  0.7546771E-02  0.1303648E+00
          2   -1    0    0  502    0  0.00000000000E+00  0.00000000000E+00  0.26869206264E+03  0.26869206264E+03  0.00000000000E+00 0. -1.
         -1   -1    0    0    0  501 -0.00000000000E+00 -0.00000000000E+00 -0.86048990360E+02  0.86048990360E+02  0.00000000000E+00 0.  1.
         23    2    1    2    0    0 -0.21086726238E+02 -0.20718346211E+02 -0.41300701957E+01  0.97175388351E+02  0.92477557970E+02 0.  0.
         24    2    1    2    0    0  0.46838754197E+01  0.61791971187E+01  0.21056718880E+03  0.22521451302E+03  0.79516757422E+02 0.  0.
        -13    1    4    4    0    0  0.29827168365E+02 -0.20388867913E+02  0.58075090560E+02  0.68396506132E+02  0.00000000000E+00 0.  1.
         14    1    4    4    0    0 -0.25143292945E+02  0.26568065032E+02  0.15249209824E+03  0.15681800689E+03  0.00000000000E+00 0. -1.
        -13    1    3    3    0    0 -0.66038663412E+01 -0.51111261488E+02 -0.25293938661E+02  0.57408670378E+02  0.00000000000E+00 0.  1.
         13    1    3    3    0    0 -0.14482859897E+02  0.30392915278E+02  0.21163868466E+02  0.39766717972E+02  0.00000000000E+00 0. -1.
         21    1    1    2  502  501  0.16402850818E+02  0.14539149092E+02 -0.23794046322E+02  0.32351151628E+02  0.00000000000E+00 0.  1.
<scales pt_clust_5="13000.00000" pt_clust_6="13000.00000" pt_clust_7="13000.00000" pt_clust_8="13000.00000" pt_clust_9="21.91895"></scales>
<clustering>
<clus scale="   21.919">  2  9  1 -1</clus>
<clus scale="   79.517">  5  6 -1 -1</clus>
<clus scale="   80.205">  1  5  2 -1</clus>
<clus scale="   92.478">  7  8 -1 -1</clus>
<clus scale="   80.205">  1  5  2 -1</clus>
</clustering>
</event>
<event>
 9    2  0.6066854E-005  0.1583090E+03  0.7546771E-02  0.1210411E+00
         -3   -1    0    0    0  501 -0.00000000000E+00  0.00000000000E+00  0.34400441763E+03  0.34400441763E+03  0.00000000000E+00 0.  1.
          4   -1    0    0  502    0  0.00000000000E+00 -0.00000000000E+00 -0.15477217089E+03  0.15477217089E+03  0.00000000000E+00 0. -1.
         24    2    1    2    0    0  0.49563120635E+02  0.10523229085E+03  0.87335914220E+02  0.16822406573E+03  0.84507019904E+02 0.  0.
         23    2    1    2    0    0 -0.10219093838E+02  0.36794375311E+02 -0.53745553360E+02  0.11620718698E+03  0.95693625008E+02 0.  0.
        -13    1    3    3    0    0  0.38948707471E+02  0.95475465215E+00  0.23604477462E+02  0.45553097878E+02  0.00000000000E+00 0.  1.
         14    1    3    3    0    0  0.10614413164E+02  0.10427753619E+03  0.63731436758E+02  0.12267096785E+03  0.00000000000E+00 0. -1.
        -13    1    4    4    0    0 -0.22366881390E+02  0.75487372849E+01  0.23139267026E+02  0.33055808812E+02  0.00000000000E+00 0.  1.
         13    1    4    4    0    0  0.12147787552E+02  0.29245638026E+02 -0.76884820386E+02  0.83151378172E+02  0.00000000000E+00 0. -1.
         21    1    1    2  502  501 -0.39344026797E+02 -0.14202666616E+03  0.15564188588E+03  0.21434533581E+03  0.00000000000E+00 0.  1.
<scales pt_clust_5="13000.00000" pt_clust_6="13000.00000" pt_clust_7="13000.00000" pt_clust_8="13000.00000" pt_clust_9="133.86677"></scales>
<clustering>
<clus scale="   84.507">  5  6 -1 -1</clus>
<clus scale="   95.694">  7  8 -1 -1</clus>
<clus scale="  103.032">  2  7  1 -1</clus>
<clus scale="  133.867">  1  9  2 -1</clus>
<clus scale="  103.032">  2  5  1 -1</clus>
</clustering>
</event>
<event>
 9    2  0.6066854E-005  0.1277321E+03  0.7546771E-02  0.1234928E+00
         -1   -1    0    0    0  501 -0.00000000000E+00  0.00000000000E+00  0.46694250734E+02  0.46694250734E+02  0.00000000000E+00 0.  1.
          2   -1    0    0  502    0  0.00000000000E+00 -0.00000000000E+00 -0.11620211167E+04  0.11620211167E+04  0.00000000000E+00 0. -1.
         23    2    1    2    0    0 -0.14605946929E+02  0.50105296898E+02 -0.30628264394E+03  0.32393997197E+03  0.91674276645E+02 0.  0.
         24    2    1    2    0    0 -0.10141879985E+02 -0.11510812130E+03 -0.80307087607E+03  0.81496491642E+03  0.76760964622E+02 0.  0.
        -13    1    4    4    0    0  0.10639562129E+02 -0.45375476960E+02 -0.13249875524E+03  0.14045659234E+03  0.00000000000E+00 0.  1.
         14    1    4    4    0    0 -0.20781442115E+02 -0.69732644344E+02 -0.67057212083E+03  0.67450832408E+03  0.00000000000E+00 0. -1.
        -11    1    3    3    0    0  0.12351654129E+02  0.56156098144E+02 -0.27987752412E+03  0.28572276638E+03  0.00000000000E+00 0. -1.
         11    1    3    3    0    0 -0.26957601059E+02 -0.60508012461E+01 -0.26405119815E+02  0.38217205589E+02  0.00000000000E+00 0.  1.
         21    1    1    2  502  501  0.24747826914E+02  0.65002824406E+02 -0.59733459231E+01  0.69810479008E+02  0.00000000000E+00 0.  1.
<scales pt_clust_5="13000.00000" pt_clust_6="13000.00000" pt_clust_7="13000.00000" pt_clust_8="13000.00000" pt_clust_9="69.55445"></scales>
<clustering>
<clus scale="   69.554">  1  9  2 -1</clus>
<clus scale="   76.761">  5  6 -1 -1</clus>
<clus scale="   91.674">  7  8 -1 -1</clus>
<clus scale="  117.489">  2  5  1 -1</clus>
<clus scale="  117.489">  2  5  1 -1</clus>
</clustering>
</event>
<event>
 9    2  0.6066854E-005  0.1059989E+03  0.7546771E-02  0.1273584E+00
         -1   -1    0    0    0  501 -0.00000000000E+00  0.00000000000E+00  0.79072493331E+02  0.79072493331E+02  0.00000000000E+00 0.  1.
          2   -1    0    0  502    0  0.00000000000E+00 -0.00000000000E+00 -0.28333661889E+03  0.28333661889E+03  0.00000000000E+00 0. -1.
         23    2    1    2    0    0  0.27903727368E+02 -0.36870981882E+02  0.15475016042E+02  0.10486667507E+03  0.92841026027E+02 0.  0.
         24    2    1    2    0    0 -0.45210971239E+02  0.26677204599E+02 -0.21687864482E+03  0.23725361689E+03  0.80605378103E+02 0.  0.
        -13    1    4    4    0    0 -0.20968904543E+02  0.15312078241E+02 -0.87340916810E+01  0.27394142718E+02  0.00000000000E+00 0.  1.
         14    1    4    4    0    0 -0.24242066696E+02  0.11365126358E+02 -0.20814455314E+03  0.20985947417E+03  0.00000000000E+00 0. -1.
        -13    1    3    3    0    0 -0.20396784041E+02 -0.24646222658E+02 -0.25058857165E+02  0.40637561601E+02  0.00000000000E+00 0. -1.
         13    1    3    3    0    0  0.48300511408E+02 -0.12224759224E+02  0.40533873206E+02  0.64229113473E+02  0.00000000000E+00 0.  1.
         21    1    1    2  502  501  0.17307243871E+02  0.10193777283E+02 -0.28604967749E+01  0.20288820259E+02  0.00000000000E+00 0.  1.
<scales pt_clust_5="13000.00000" pt_clust_6="13000.00000" pt_clust_7="13000.00000" pt_clust_8="13000.00000" pt_clust_9="20.08616"></scales>
<clustering>
<clus scale="   20.086">  1  9  2 -1</clus>
<clus scale="   80.605">  5  6 -1 -1</clus>
<clus scale="   92.841">  7  8 -1 -1</clus>
<clus scale="   95.465">  2  5  1 -1</clus>
<clus scale="   95.465">  2  5  1 -1</clus>
</clustering>
</event>
<event>
 9    2  0.6066854E-005  0.9945615E+02  0.7546771E-02  0.1288059E+00
         -1   -1    0    0    0  501 -0.00000000000E+00  0.00000000000E+00  0.47881390936E+03  0.47881390936E+03  0.00000000000E+00 0.  1.
          2   -1    0    0  502    0  0.00000000000E+00 -0.00000000000E+00 -0.79146380983E+02  0.79146380983E+02  0.00000000000E+00 0. -1.
         23    2    1    2    0    0 -0.83580393952E+02  0.46955220700E+02  0.33761765681E+03  0.36286157565E+03  0.92154033493E+02 0.  0.
         24    2    1    2    0    0  0.29412812576E+02 -0.12514368468E+02 -0.22915187928E+02  0.88612281239E+02  0.79405966948E+02 0.  0.
        -11    1    4    4    0    0  0.16230686134E+02  0.31080205943E+02  0.46593357273E+01  0.35371228184E+02  0.00000000000E+00 0.  1.
         12    1    4    4    0    0  0.13182126442E+02 -0.43594574411E+02 -0.27574523656E+02  0.53241053055E+02  0.00000000000E+00 0. -1.
        -11    1    3    3    0    0 -0.31056057665E+02  0.60874196520E+02  0.25483329881E+03  0.26383736791E+03  0.00000000000E+00 0.  1.
         11    1    3    3    0    0 -0.52524336288E+02 -0.13918975819E+02  0.82784357995E+02  0.99024207742E+02  0.00000000000E+00 0. -1.
         21    1    1    2  502  501  0.54167581377E+02 -0.34440852232E+02  0.84965059496E+02  0.10648643345E+03  0.00000000000E+00 0. -1.
<scales pt_clust_5="13000.00000" pt_clust_6="13000.00000" pt_clust_7="13000.00000" pt_clust_8="13000.00000" pt_clust_9="64.18956"></scales>
<clustering>
<clus scale="   64.190">  1  9  2 -1</clus>
<clus scale="   79.406">  5  6 -1 -1</clus>
<clus scale="   87.775">  2  5  1 -1</clus>
<clus scale="   92.154">  7  8 -1 -1</clus>
<clus scale="   87.775">  2  5  1 -1</clus>
</clustering>
</event>
<event>
 9    2  0.6066854E-005  0.1161662E+03  0.7546771E-02  0.1254129E+00
         -1   -1    0    0    0  501 -0.00000000000E+00  0.00000000000E+00  0.53598705864E+02  0.53598705864E+02  0.00000000000E+00 0.  1.
          2   -1    0    0  502    0  0.00000000000E+00 -0.00000000000E+00 -0.40861111362E+03  0.40861111362E+03  0.00000000000E+00 0. -1.
         23    2    1    2    0    0 -0.68810659731E+02  0.43812040996E+02 -0.76418115113E+02  0.14422889236E+03  0.91147371022E+02 0.  0.
         24    2    1    2    0    0  0.63632557714E+02  0.74257135473E+01 -0.20067460761E+03  0.22458072613E+03  0.77858594806E+02 0.  0.
        -13    1    4    4    0    0  0.86277763040E+01  0.20344867608E+02 -0.75378174353E+01  0.23348894056E+02  0.00000000000E+00 0.  1.
         14    1    4    4    0    0  0.55004781410E+02 -0.12919154061E+02 -0.19313679018E+03  0.20123183207E+03  0.00000000000E+00 0. -1.
        -11    1    3    3    0    0 -0.89786413253E+01 -0.21771179397E+02 -0.43652982450E+02  0.49600233157E+02  0.00000000000E+00 0. -1.
         11    1    3    3    0    0 -0.59832018406E+02  0.65583220393E+02 -0.32765132663E+02  0.94628659200E+02  0.00000000000E+00 0.  1.
         21    1    1    2  502  501  0.51781020169E+01 -0.51237754544E+02 -0.77919685027E+02  0.93400200995E+02  0.00000000000E+00 0.  1.
<scales pt_clust_5="13000.00000" pt_clust_6="13000.00000" pt_clust_7="13000.00000" pt_clust_8="13000.00000" pt_clust_9="51.49874"></scales>
<clustering>
<clus scale="   51.499">  2  9  1 -1</clus>
<clus scale="   77.859">  5  6 -1 -1</clus>
<clus scale="   91.147">  7  8 -1 -1</clus>
<clus scale="  106.060">  2  5  1 -1</clus>
<clus scale="   51.499">  2  5  1 -1</clus>
</clustering>
</event>
<event>
 9    2  0.6066854E-005  0.1196136E+03  0.7546771E-02  0.1247874E+00
         -3   -1    0    0    0  501 -0.00000000000E+00  0.00000000000E+00  0.47094590623E+02  0.47094590623E+02  0.00000000000E+00 0.  1.
          4   -1    0    0  502    0  0.00000000000E+00 -0.00000000000E+00 -0.56182416536E+03  0.56182416536E+03  0.00000000000E+00 0. -1.
         24    2    1    2    0    0 -0.32369530669E+02  0.45750059566E+02 -0.50324262268E+02  0.11075015829E+03  0.81192436364E+02 0.  0.
         23    2    1    2    0    0  0.21819297341E+02 -0.77159962246E+02 -0.44014127576E+03  0.45709996140E+03  0.93735215226E+02 0.  0.
        -11    1    3    3    0    0 -0.28468176852E+02  0.38763869781E+02  0.10644710825E+02  0.49258345102E+02  0.00000000000E+00 0.  1.
         12    1    3    3    0    0 -0.39013538168E+01  0.69861897843E+01 -0.60968973092E+02  0.61491813189E+02  0.00000000000E+00 0. -1.
        -11    1    4    4    0    0  0.21381257569E+02 -0.98832028340E+02 -0.34454114449E+03  0.35907315166E+03  0.00000000000E+00 0. -1.
         11    1    4    4    0    0  0.43803977194E+00  0.21672066094E+02 -0.95600131273E+02  0.98026809737E+02  0.00000000000E+00 0.  1.
         21    1    1    2  502  501  0.10550233328E+02  0.31409902681E+02 -0.24264036712E+02  0.41068636296E+02  0.00000000000E+00 0.  1.
<scales pt_clust_5="13000.00000" pt_clust_6="13000.00000" pt_clust_7="13000.00000" pt_clust_8="13000.00000" pt_clust_9="33.13441"></scales>
<clustering>
<clus scale="   33.134">  1  9  2 -1</clus>
<clus scale="   81.192">  5  6 -1 -1</clus>
<clus scale="   93.735">  7  8 -1 -1</clus>
<clus scale="  110.061">  1  5  2 -1</clus>
<clus scale="  119.614">  2  5  1 -1</clus>
</clustering>
</event>
<event>
 9    2  0.6066854E-005  0.1452345E+03  0.7546771E-02  0.1210770E+00
         -1   -1    0    0    0  501 -0.00000000000E+00  0.00000000000E+00  0.47799419717E+02  0.47799419717E+02  0.00000000000E+00 0.  1.
          2   -1    0    0  502    0  0.00000000000E+00 -0.00000000000E+00 -0.10211894527E+04  0.10211894527E+04  0.00000000000E+00 0. -1.
         23    2    1    2    0    0  0.89265947885E+02 -0.49247897149E+00 -0.83372704647E+02  0.15801198969E+03  0.10024035624E+03 0.  0.
         24    2    1    2    0    0 -0.10090138101E+03 -0.39396872383E+02 -0.80621893706E+03  0.81744232207E+03  0.80559128620E+02 0.  0.
        -11    1    4    4    0    0 -0.33570060426E+02  0.65260734217E+01 -0.84829286109E+02  0.91463360824E+02  0.00000000000E+00 0.  1.
         12    1    4    4    0    0 -0.67331320586E+02 -0.45922945805E+02 -0.72138965095E+03  0.72597896125E+03  0.00000000000E+00 0. -1.
        -11    1    3    3    0    0  0.90226080643E+01  0.26745534914E+02  0.11788523174E+02  0.30589219878E+02  0.00000000000E+00 0.  1.
         11    1    3    3    0    0  0.80243339821E+02 -0.27238013886E+02 -0.95161227821E+02  0.12742276981E+03  0.00000000000E+00 0. -1.
         21    1    1    2  502  501  0.11635433126E+02  0.39889351355E+02 -0.83798391280E+02  0.93534560653E+02  0.00000000000E+00 0.  1.
<scales pt_clust_5="13000.00000" pt_clust_6="13000.00000" pt_clust_7="13000.00000" pt_clust_8="13000.00000" pt_clust_9="41.55170"></scales>
<clustering>
<clus scale="   41.552">  1  9  2 -1</clus>
<clus scale="   80.559">  5  6 -1 -1</clus>
<clus scale="  100.240">  7  8 -1 -1</clus>
<clus scale="  132.419">  2  5  1 -1</clus>
<clus scale="  132.419">  2  5  1 -1</clus>
</clustering>
</event>
<event>
 9    2  0.7673922E-005  0.4039036E+03  0.7546771E-02  0.1063151E+00
         -1   -1    0    0    0  501 -0.00000000000E+00  0.00000000000E+00  0.21362423475E+03  0.21362423475E+03  0.00000000000E+00 0.  1.
          2   -1    0    0  502    0  0.00000000000E+00 -0.00000000000E+00 -0.16116504748E+04  0.16116504748E+04  0.00000000000E+00 0. -1.
         24    2    1    2    0    0 -0.29277183421E+02 -0.20764037216E+03 -0.44834560571E+02  0.22880632657E+03  0.79815535043E+02 0.  0.
         23    2    1    2    0    0 -0.26031203744E+03 -0.14089095210E+03 -0.24202123093E+03  0.39645348035E+03  0.10482589681E+03 0.  0.
        -11    1    3    3    0    0 -0.23392199431E+01 -0.18648903824E+03 -0.52412530988E+02  0.19372843554E+03  0.00000000000E+00 0.  1.
         12    1    3    3    0    0 -0.26937963478E+02 -0.21151333926E+02  0.75779704163E+01  0.35077891026E+02  0.00000000000E+00 0. -1.
        -13    1    4    4    0    0 -0.63963688077E+02 -0.44115792470E+02 -0.11484574927E+02  0.78545859209E+02  0.00000000000E+00 0.  1.
         13    1    4    4    0    0 -0.19634834937E+03 -0.96775159626E+02 -0.23053665600E+03  0.31790762114E+03  0.00000000000E+00 0. -1.
         21    1    1    2  502  501  0.28958922086E+03  0.34853132426E+03 -0.11111704486E+04  0.12000149027E+04  0.00000000000E+00 0.  1.
<scales pt_clust_5="13000.00000" pt_clust_6="13000.00000" pt_clust_7="13000.00000" pt_clust_8="13000.00000" pt_clust_9="390.06361"></scales>
<clustering>
<clus scale="   79.816">  5  6 -1 -1</clus>
<clus scale="  104.826">  7  8 -1 -1</clus>
<clus scale="  224.371">  1  5  2 -1</clus>
<clus scale="  390.064">  2  9  1 -1</clus>
<clus scale="  390.064">  2  5  1 -1</clus>
</clustering>
</event>
<event>
 9    2  0.6066854E-005  0.9658646E+02  0.7546771E-02  0.1294360E+00
         -1   -1    0    0    0  501 -0.00000000000E+00  0.00000000000E+00  0.19030644663E+03  0.19030644663E+03  0.00000000000E+00 0.  1.
          2   -1    0    0  502    0  0.00000000000E+00 -0.00000000000E+00 -0.41300613046E+03  0.41300613046E+03  0.00000000000E+00 0. -1.
         23    2    1    2    0    0  0.45890971332E+02  0.30917872293E+02  0.12679271479E+03  0.16622927653E+03  0.92162268708E+02 0.  0.
         24    2    1    2    0    0 -0.23636750800E+02 -0.15123408099E+02 -0.38389468978E+03  0.39317164987E+03  0.80133638125E+02 0.  0.
        -11    1    4    4    0    0  0.19801055170E+01 -0.23470874446E+02 -0.29479519829E+02  0.37733868798E+02  0.00000000000E+00 0.  1.
         12    1    4    4    0    0 -0.25616856317E+02  0.83474663463E+01 -0.35441516995E+03  0.35543778107E+03  0.00000000000E+00 0. -1.
        -13    1    3    3    0    0  0.15731124426E+02 -0.22419700153E+02  0.91515072876E+02  0.95525492902E+02  0.00000000000E+00 0.  1.
         13    1    3    3    0    0  0.30159846906E+02  0.53337572446E+02  0.35277641918E+02  0.70703783626E+02  0.00000000000E+00 0. -1.
         21    1    1    2  502  501 -0.22254220532E+02 -0.15794464194E+02  0.34402291152E+02  0.43911650699E+02  0.00000000000E+00 0.  1.
<scales pt_clust_5="13000.00000" pt_clust_6="13000.00000" pt_clust_7="13000.00000" pt_clust_8="13000.00000" pt_clust_9="27.28947"></scales>
<clustering>
<clus scale="   27.289">  1  9  2 -1</clus>
<clus scale="   80.134">  5  6 -1 -1</clus>
<clus scale="   85.185">  2  5  1 -1</clus>
<clus scale="   92.162">  7  8 -1 -1</clus>
<clus scale="   85.185">  2  5  1 -1</clus>
</clustering>
</event>
<event>
 9    2  0.6066854E-005  0.1007937E+03  0.7546771E-02  0.1284034E+00
         -1   -1    0    0    0  501 -0.00000000000E+00  0.00000000000E+00  0.10425551028E+03  0.10425551028E+03  0.00000000000E+00 0.  1.
          2   -1    0    0  502    0  0.00000000000E+00 -0.00000000000E+00 -0.43911766566E+03  0.43911766566E+03  0.00000000000E+00 0. -1.
         23    2    1    2    0    0 -0.24633790550E+02 -0.26273759652E+02  0.87294262582E+01  0.98846134956E+02  0.91636354302E+02 0.  0.
         24    2    1    2    0    0  0.41748760589E+02  0.10675287783E+02 -0.38573682804E+03  0.39643903502E+03  0.80709895326E+02 0.  0.
        -13    1    4    4    0    0  0.26871245310E+02  0.13770558218E+02 -0.38775094895E+02  0.49144685189E+02  0.00000000000E+00 0.  1.
         14    1    4    4    0    0  0.14877515279E+02 -0.30952704347E+01 -0.34696173314E+03  0.34729434983E+03  0.00000000000E+00 0. -1.
        -11    1    3    3    0    0 -0.58402787558E+02 -0.26756711535E+02  0.10183595013E+02  0.65042392439E+02  0.00000000000E+00 0.  1.
         11    1    3    3    0    0  0.33768997008E+02  0.48295188336E+00 -0.14541687545E+01  0.33803742518E+02  0.00000000000E+00 0. -1.
         21    1    1    2  502  501 -0.17114970039E+02  0.15598471869E+02  0.42145246396E+02  0.48088005967E+02  0.00000000000E+00 0.  1.
<scales pt_clust_5="13000.00000" pt_clust_6="13000.00000" pt_clust_7="13000.00000" pt_clust_8="13000.00000" pt_clust_9="23.15674"></scales>
<clustering>
<clus scale="   23.157">  1  9  2 -1</clus>
<clus scale="   80.710">  5  6 -1 -1</clus>
<clus scale="   90.974">  2  5  1 -1</clus>
<clus scale="   91.636">  7  8 -1 -1</clus>
<clus scale="   90.974">  2  5  1 -1</clus>
</clustering>
</event>
<event>
 9    2  0.6066854E-005  0.9455906E+02  0.7546771E-02  0.1296103E+00
          2   -1    0    0  502    0  0.00000000000E+00  0.00000000000E+00  0.91791354362E+02  0.91791354362E+02  0.00000000000E+00 0. -1.
         -1   -1    0    0    0  501 -0.00000000000E+00 -0.00000000000E+00 -0.25054940498E+03  0.25054940498E+03  0.00000000000E+00 0.  1.
         23    2    1    2    0    0  0.17196011184E+02  0.23476464517E+02 -0.19775542149E+03  0.21920211672E+03  0.89975074648E+02 0.  0.
         24    2    1    2    0    0  0.98570157998E+00 -0.35347071702E+02  0.44777840761E+02  0.10066866652E+03  0.82938159558E+02 0.  0.
        -11    1    4    4    0    0 -0.12260308067E+02  0.25002568163E+02  0.89680665223E+01  0.29255252277E+02  0.00000000000E+00 0.  1.
         12    1    4    4    0    0  0.13246009646E+02 -0.60349639865E+02  0.35809774239E+02  0.71413414247E+02  0.00000000000E+00 0. -1.
        -13    1    3    3    0    0  0.49127282735E+02  0.21395701209E+02 -0.16469218971E+03  0.17319002076E+03  0.00000000000E+00 0.  1.
         13    1    3    3    0    0 -0.31931271551E+02  0.20807633085E+01 -0.33063231781E+02  0.46012095960E+02  0.00000000000E+00 0. -1.
         21    1    1    2  502  501 -0.18181712764E+02  0.11870607185E+02 -0.57804698944E+01  0.22469976105E+02  0.00000000000E+00 0. -1.
<scales pt_clust_5="13000.00000" pt_clust_6="13000.00000" pt_clust_7="13000.00000" pt_clust_8="13000.00000" pt_clust_9="21.71373"></scales>
<clustering>
<clus scale="   21.714">  1  9  2 -1</clus>
<clus scale="   82.938">  5  6 -1 -1</clus>
<clus scale="   87.890">  1  5  2 -1</clus>
<clus scale="   89.975">  7  8 -1 -1</clus>
<clus scale="   21.714">  1  5  2 -1</clus>
</clustering>
</event>
<event>
 9    2  0.6066854E-005  0.1164853E+03  0.7546771E-02  0.1252275E+00
          2   -1    0    0  502    0  0.00000000000E+00  0.00000000000E+00  0.62575191246E+02  0.62575191246E+02  0.00000000000E+00 0. -1.
         -1   -1    0    0    0  501 -0.00000000000E+00 -0.00000000000E+00 -0.61545296042E+03  0.61545296042E+03  0.00000000000E+00 0.  1.
         23    2    1    2    0    0  0.76875789749E+02  0.72751936631E+02 -0.31704759902E+03  0.34634247415E+03  0.90725950109E+02 0.  0.
         24    2    1    2    0    0 -0.71897922349E+02  0.24470561209E+02 -0.49844109945E+02  0.12176233950E+03  0.81077200380E+02 0.  0.
        -13    1    4    4    0    0 -0.26956653317E+02  0.47607956009E+02 -0.63484683639E+01  0.55077052245E+02  0.00000000000E+00 0.  1.
         14    1    4    4    0    0 -0.44941269032E+02 -0.23137394800E+02 -0.43495641581E+02  0.66685287260E+02  0.00000000000E+00 0. -1.
        -11    1    3    3    0    0  0.17759839195E+02 -0.20911002851E+02 -0.46329062760E+02  0.53842956685E+02  0.00000000000E+00 0. -1.
         11    1    3    3    0    0  0.59115950554E+02  0.93662939482E+02 -0.27071853626E+03  0.29249951746E+03  0.00000000000E+00 0.  1.
         21    1    1    2  502  501 -0.49778673998E+01 -0.97222497840E+02 -0.18598606021E+03  0.20992333801E+03  0.00000000000E+00 0. -1.
<scales pt_clust_5="13000.00000" pt_clust_6="13000.00000" pt_clust_7="13000.00000" pt_clust_8="13000.00000" pt_clust_9="97.34985"></scales>
<clustering>
<clus scale="   81.077">  5  6 -1 -1</clus>
<clus scale="   90.726">  7  8 -1 -1</clus>
<clus scale="   97.350">  2  9  1 -1</clus>
<clus scale="  109.138">  1  5  2 -1</clus>
<clus scale="  109.138">  1  5  2 -1</clus>
</clustering>
</event>
<event>
 9    2  0.6066854E-005  0.1127128E+03  0.7546771E-02  0.1262124E+00
          2   -1    0    0  502    0  0.00000000000E+00  0.00000000000E+00  0.73065626766E+03  0.73065626766E+03  0.00000000000E+00 0. -1.
         -1   -1    0    0    0  501 -0.00000000000E+00 -0.00000000000E+00 -0.23230309186E+02  0.23230309186E+02  0.00000000000E+00 0.  1.
         24    2    1    2    0    0  0.43721840254E+02  0.38755611090E+02  0.21943160112E+03  0.24057947705E+03  0.79464838151E+02 0.  0.
         23    2    1    2    0    0 -0.65546396851E+02 -0.48476099588E+01  0.39954192276E+03  0.41609651911E+03  0.95826591876E+02 0.  0.
        -13    1    3    3    0    0  0.61122247369E+02  0.43179316911E+02  0.13592262773E+03  0.15516231263E+03  0.00000000000E+00 0.  1.
         14    1    3    3    0    0 -0.17400407115E+02 -0.44237058210E+01  0.83508973387E+02  0.85417164418E+02  0.00000000000E+00 0. -1.
        -13    1    4    4    0    0 -0.43021891575E+02  0.42772978015E+02  0.16743778860E+03  0.17808937042E+03  0.00000000000E+00 0.  1.
         13    1    4    4    0    0 -0.22524505276E+02 -0.47620587974E+02  0.23210413415E+03  0.23800714869E+03  0.00000000000E+00 0. -1.
         21    1    1    2  502  501  0.21824556596E+02 -0.33908001131E+02  0.88452434600E+02  0.97210580689E+02  0.00000000000E+00 0. -1.
<scales pt_clust_5="13000.00000" pt_clust_6="13000.00000" pt_clust_7="13000.00000" pt_clust_8="13000.00000" pt_clust_9="40.32448"></scales>
<clustering>
<clus scale="   40.324">  2  9  1 -1</clus>
<clus scale="   79.465">  5  6 -1 -1</clus>
<clus scale="   95.827">  7  8 -1 -1</clus>
<clus scale="   99.177">  2  5  1 -1</clus>
<clus scale="  112.713">  1  5  2 -1</clus>
</clustering>
</event>
<event>
 9    2  0.6066854E-005  0.1190833E+03  0.7546771E-02  0.1248100E+00
         -1   -1    0    0    0  501 -0.00000000000E+00  0.00000000000E+00  0.53090719633E+02  0.53090719633E+02  0.00000000000E+00 0.  1.
          2   -1    0    0  502    0  0.00000000000E+00 -0.00000000000E+00 -0.62088369609E+03  0.62088369609E+03  0.00000000000E+00 0. -1.
         23    2    1    2    0    0  0.67223144680E+02 -0.30563173027E+02 -0.10633910571E+03  0.15852262803E+03  0.91478737796E+02 0.  0.
         24    2    1    2    0    0 -0.55445653052E+02  0.54509165421E+02 -0.47320270327E+03  0.48629437137E+03  0.80721420254E+02 0.  0.
        -11    1    4    4    0    0 -0.32500032873E+02 -0.12273539431E+02 -0.86831424468E+02  0.93523195957E+02  0.00000000000E+00 0.  1.
         12    1    4    4    0    0 -0.22945620178E+02  0.66782704852E+02 -0.38637127880E+03  0.39277117541E+03  0.00000000000E+00 0. -1.
        -11    1    3    3    0    0  0.34585207713E+02  0.17598247838E+02 -0.90129081259E+02  0.98127907387E+02  0.00000000000E+00 0. -1.
         11    1    3    3    0    0  0.32637936967E+02 -0.48161420865E+02 -0.16210024453E+02  0.60394720647E+02  0.00000000000E+00 0.  1.
         21    1    1    2  502  501 -0.11777491629E+02 -0.23945992394E+02  0.11748832524E+02  0.29157416320E+02  0.00000000000E+00 0.  1.
<scales pt_clust_5="13000.00000" pt_clust_6="13000.00000" pt_clust_7="13000.00000" pt_clust_8="13000.00000" pt_clust_9="26.68557"></scales>
<clustering>
<clus scale="   26.686">  1  9  2 -1</clus>
<clus scale="   80.721">  5  6 -1 -1</clus>
<clus scale="   91.479">  7  8 -1 -1</clus>
<clus scale="  111.033">  2  5  1 -1</clus>
<clus scale="  111.033">  2  5  1 -1</clus>
</clustering>
</event>
<event>
 9    2  0.6066854E-005  0.9929125E+02  0.7546771E-02  0.1285862E+00
          2   -1    0    0  502    0  0.00000000000E+00  0.00000000000E+00  0.22337879777E+03  0.22337879777E+03  0.00000000000E+00 0. -1.
         -1   -1    0    0    0  501 -0.00000000000E+00 -0.00000000000E+00 -0.13337232744E+03  0.13337232744E+03  0.00000000000E+00 0.  1.
         23    2    1    2    0    0  0.10998387397E+02  0.33092305408E+02 -0.79477631157E+02  0.12388495193E+03  0.88400917748E+02 0.  0.
         24    2    1    2    0    0  0.13661830470E+02 -0.44980338370E+02  0.18080200912E+03  0.20324275845E+03  0.80052332296E+02 0.  0.
        -13    1    4    4    0    0 -0.88764447408E-01  0.22759394225E+02  0.33130965954E+02  0.40195258547E+02  0.00000000000E+00 0.  1.
         14    1    4    4    0    0  0.13750594918E+02 -0.67739732595E+02  0.14767104317E+03  0.16304749990E+03  0.00000000000E+00 0. -1.
        -11    1    3    3    0    0 -0.25782852664E+02 -0.15438472413E+02 -0.44388518080E+02  0.53604500364E+02  0.00000000000E+00 0.  1.
         11    1    3    3    0    0  0.36781240061E+02  0.48530777821E+02 -0.35089113078E+02  0.70280451570E+02  0.00000000000E+00 0. -1.
         21    1    1    2  502  501 -0.24660217867E+02  0.11888032963E+02 -0.11317907635E+02  0.29623414830E+02  0.00000000000E+00 0.  1.
<scales pt_clust_5="13000.00000" pt_clust_6="13000.00000" pt_clust_7="13000.00000" pt_clust_8="13000.00000" pt_clust_9="27.37612"></scales>
<clustering>
<clus scale="   27.376">  2  9  1 -1</clus>
<clus scale="   80.052">  5  6 -1 -1</clus>
<clus scale="   88.401">  7  8 -1 -1</clus>
<clus scale="   91.937">  1  5  2 -1</clus>
<clus scale="   91.937">  1  5  2 -1</clus>
</clustering>
</event>
<event>
 9    2  0.6066854E-005  0.9298033E+02  0.7546771E-02  0.1302910E+00
          2   -1    0    0  502    0  0.00000000000E+00  0.00000000000E+00  0.36187194054E+03  0.36187194054E+03  0.00000000000E+00 0. -1.
         -1   -1    0    0    0  501 -0.00000000000E+00 -0.00000000000E+00 -0.37436184204E+02  0.37436184204E+02  0.00000000000E+00 0.  1.
         24    2    1    2    0    0 -0.14839189335E+02 -0.13413186001E+00  0.53422345953E+02  0.97995766869E+02  0.80802250870E+02 0.  0.
         23    2    1    2    0    0 -0.94545809237E+01  0.25800903231E+02  0.19905737196E+03  0.22114601898E+03  0.92339854190E+02 0.  0.
        -13    1    3    3    0    0  0.21008979025E+02  0.27811887182E+02  0.33580589972E+02  0.48399734412E+02  0.00000000000E+00 0.  1.
         14    1    3    3    0    0 -0.35848168360E+02 -0.27946019042E+02  0.19841755981E+02  0.49596032457E+02  0.00000000000E+00 0. -1.
        -11    1    4    4    0    0 -0.21532488156E+01  0.57762351914E+02  0.16018105146E+03  0.17029120654E+03  0.00000000000E+00 0.  1.
         11    1    4    4    0    0 -0.73013321081E+01 -0.31961448683E+02  0.38876320497E+02  0.50854812436E+02  0.00000000000E+00 0. -1.
         21    1    1    2  502  501  0.24293770259E+02 -0.25666771371E+02  0.71956038428E+02  0.80166338898E+02  0.00000000000E+00 0. -1.
<scales pt_clust_5="13000.00000" pt_clust_6="13000.00000" pt_clust_7="13000.00000" pt_clust_8="13000.00000" pt_clust_9="35.34078"></scales>
<clustering>
<clus scale="   35.341">  1  9  2 -1</clus>
<clus scale="   80.802">  5  6 -1 -1</clus>
<clus scale="   81.533">  2  5  1 -1</clus>
<clus scale="   92.340">  7  8 -1 -1</clus>
<clus scale="   35.341">  1  5  2 -1</clus>
</clustering>
</event>
<event>
 9    2  0.6066854E-005  0.1020715E+03  0.7546771E-02  0.1281633E+00
         -1   -1    0    0    0  501 -0.00000000000E+00  0.00000000000E+00  0.62699228220E+03  0.62699228220E+03  0.00000000000E+00 0.  1.
          2   -1    0    0  502    0  0.00000000000E+00 -0.00000000000E+00 -0.56980282453E+02  0.56980282453E+02  0.00000000000E+00 0. -1.
         24    2    1    2    0    0 -0.40121340237E+02 -0.13602880191E+02  0.51526787982E+03  0.52321484569E+03  0.80361847204E+02 0.  0.
         23    2    1    2    0    0  0.68024798740E+02 -0.99941849960E+00  0.24409770662E+02  0.11703126394E+03  0.92044053334E+02 0.  0.
        -11    1    3    3    0    0 -0.59132178918E+02 -0.11689434605E+02  0.24627184188E+03  0.25354107669E+03  0.00000000000E+00 0.  1.
         12    1    3    3    0    0  0.19010838681E+02 -0.19134455862E+01  0.26899603794E+03  0.26967376901E+03  0.00000000000E+00 0. -1.
        -13    1    4    4    0    0  0.41258011065E+02  0.44024639747E+02  0.23186032214E+02  0.64637330327E+02  0.00000000000E+00 0.  1.
         13    1    4    4    0    0  0.26766787675E+02 -0.45024058247E+02  0.12237384478E+01  0.52393933611E+02  0.00000000000E+00 0. -1.
         21    1    1    2  502  501 -0.27903458503E+02  0.14602298690E+02  0.30334349260E+02  0.43726455019E+02  0.00000000000E+00 0.  1.
<scales pt_clust_5="13000.00000" pt_clust_6="13000.00000" pt_clust_7="13000.00000" pt_clust_8="13000.00000" pt_clust_9="31.49333"></scales>
<clustering>
<clus scale="   31.493">  2  9  1 -1</clus>
<clus scale="   80.362">  5  6 -1 -1</clus>
<clus scale="   91.676">  1  5  2 -1</clus>
<clus scale="   92.044">  7  8 -1 -1</clus>
<clus scale="   31.493">  2  5  1 -1</clus>
</clustering>
</event>
<event>
 9    2  0.6066854E-005  0.1045947E+03  0.7546771E-02  0.1280646E+00
          2   -1    0    0  502    0  0.00000000000E+00  0.00000000000E+00  0.19047195263E+03  0.19047195263E+03  0.00000000000E+00 0. -1.
         -1   -1    0    0    0  501 -0.00000000000E+00 -0.00000000000E+00 -0.23383426746E+03  0.23383426746E+03  0.00000000000E+00 0.  1.
         23    2    1    2    0    0 -0.17708325033E+02 -0.53408095344E+02 -0.10415760230E+03  0.15451642485E+03  0.99300100746E+02 0.  0.
         24    2    1    2    0    0 -0.31569586670E+02  0.14984643152E+02  0.14228360638E+03  0.16710084560E+03  0.80354773489E+02 0.  0.
        -11    1    4    4    0    0 -0.21184481689E+02 -0.27265247384E+02  0.26845864545E+02  0.43736442728E+02  0.00000000000E+00 0.  1.
         12    1    4    4    0    0 -0.10385104981E+02  0.42249890536E+02  0.11543774184E+03  0.12336440287E+03  0.00000000000E+00 0. -1.
        -11    1    3    3    0    0  0.31768791955E+02  0.97058496499E+01 -0.38672980925E+02  0.50980968148E+02  0.00000000000E+00 0.  1.
         11    1    3    3    0    0 -0.49477116988E+02 -0.63113944994E+02 -0.65484621373E+02  0.10353545670E+03  0.00000000000E+00 0. -1.
         21    1    1    2  502  501  0.49277911703E+02  0.38423452192E+02 -0.81488318915E+02  0.10268894965E+03  0.00000000000E+00 0.  1.
<scales pt_clust_5="13000.00000" pt_clust_6="13000.00000" pt_clust_7="13000.00000" pt_clust_8="13000.00000" pt_clust_9="62.48739"></scales>
<clustering>
<clus scale="   62.487">  2  9  1 -1</clus>
<clus scale="   80.355">  5  6 -1 -1</clus>
<clus scale="   86.813">  1  5  2 -1</clus>
<clus scale="   99.300">  7  8 -1 -1</clus>
<clus scale="   86.813">  1  5  2 -1</clus>
</clustering>
</event>
<event>
 9    2  0.6066854E-005  0.1014463E+03  0.7546771E-02  0.1282735E+00
         -1   -1    0    0    0  501 -0.00000000000E+00  0.00000000000E+00  0.28177808646E+03  0.28177808646E+03  0.00000000000E+00 0.  1.
          2   -1    0    0  502    0  0.00000000000E+00 -0.00000000000E+00 -0.66574686195E+02  0.66574686195E+02  0.00000000000E+00 0. -1.
         23    2    1    2    0    0 -0.28839449281E+02 -0.55436999627E+02  0.19406867221E+03  0.22288928773E+03  0.90066699117E+02 0.  0.
         24    2    1    2    0    0  0.13317701980E+02  0.41598208072E+02 -0.72869943568E+01  0.90246570013E+02  0.78635685357E+02 0.  0.
        -11    1    4    4    0    0 -0.22592167742E+02  0.46853348136E+02  0.41859322659E+01  0.52183946801E+02  0.00000000000E+00 0.  1.
         12    1    4    4    0    0  0.35909869721E+02 -0.52551400639E+01 -0.11472926623E+02  0.38062623212E+02  0.00000000000E+00 0. -1.
        -11    1    3    3    0    0 -0.49031515440E+02 -0.38872516793E+02  0.18491499830E+03  0.19521454521E+03  0.00000000000E+00 0.  1.
         11    1    3    3    0    0  0.20192066158E+02 -0.16564482833E+02  0.91536739125E+01  0.27674742517E+02  0.00000000000E+00 0. -1.
         21    1    1    2  502  501  0.15521747302E+02  0.13838791554E+02  0.28421722418E+02  0.35216914916E+02  0.00000000000E+00 0.  1.
<scales pt_clust_5="13000.00000" pt_clust_6="13000.00000" pt_clust_7="13000.00000" pt_clust_8="13000.00000" pt_clust_9="20.79511"></scales>
<clustering>
<clus scale="   20.795">  1  9  2 -1</clus>
<clus scale="   78.636">  5  6 -1 -1</clus>
<clus scale="   90.067">  7  8 -1 -1</clus>
<clus scale="   91.449">  2  5  1 -1</clus>
<clus scale="   91.449">  2  5  1 -1</clus>
</clustering>
</event>
<event>
 9    2  0.6066854E-005  0.9724646E+02  0.7546771E-02  0.1291859E+00
         -1   -1    0    0    0  501 -0.00000000000E+00  0.00000000000E+00  0.47384253004E+02  0.47384253004E+02  0.00000000000E+00 0.  1.
          2   -1    0    0  502    0  0.00000000000E+00 -0.00000000000E+00 -0.48655172956E+03  0.48655172956E+03  0.00000000000E+00 0. -1.
         23    2    1    2    0    0  0.16528073163E+02 -0.25461123523E+02 -0.51930916016E+02  0.10900254866E+03  0.90902637825E+02 0.  0.
         24    2    1    2    0    0 -0.34105042599E+02  0.12165585453E+02 -0.39250451055E+03  0.40227350265E+03  0.80330720965E+02 0.  0.
        -13    1    4    4    0    0  0.10197328824E+02 -0.25758919856E+02 -0.88824993692E+02  0.93045080320E+02  0.00000000000E+00 0.  1.
         14    1    4    4    0    0 -0.44302371423E+02  0.37924505310E+02 -0.30367951686E+03  0.30922842233E+03  0.00000000000E+00 0. -1.
        -13    1    3    3    0    0  0.19835201182E+02 -0.50640021799E+02 -0.37212784576E+01  0.54513254600E+02  0.00000000000E+00 0.  1.
         13    1    3    3    0    0 -0.33071280191E+01  0.25178898276E+02 -0.48209637559E+02  0.54489294064E+02  0.00000000000E+00 0. -1.
         21    1    1    2  502  501  0.17576969436E+02  0.13295538070E+02  0.52679500086E+01  0.22659931253E+02  0.00000000000E+00 0.  1.
<scales pt_clust_5="13000.00000" pt_clust_6="13000.00000" pt_clust_7="13000.00000" pt_clust_8="13000.00000" pt_clust_9="22.03908"></scales>
<clustering>
<clus scale="   22.039">  1  9  2 -1</clus>
<clus scale="   80.331">  5  6 -1 -1</clus>
<clus scale="   87.445">  2  5  1 -1</clus>
<clus scale="   90.903">  7  8 -1 -1</clus>
<clus scale="   87.445">  2  5  1 -1</clus>
</clustering>
</event>
<event>
 9    2  0.6066854E-005  0.1083523E+03  0.7546771E-02  0.1268495E+00
         -1   -1    0    0    0  501 -0.00000000000E+00  0.00000000000E+00  0.50163266918E+02  0.50163266918E+02  0.00000000000E+00 0.  1.
          2   -1    0    0  502    0  0.00000000000E+00 -0.00000000000E+00 -0.56140555720E+03  0.56140555720E+03  0.00000000000E+00 0. -1.
         23    2    1    2    0    0 -0.54669586090E+02  0.63826185329E+02 -0.18203698409E+03  0.22122211214E+03  0.93483761942E+02 0.  0.
         24    2    1    2    0    0  0.30712906945E+02 -0.33269423459E+02 -0.33782905688E+03  0.35057225726E+03  0.81989625548E+02 0.  0.
        -13    1    4    4    0    0 -0.16999044038E+02 -0.41313822656E+02 -0.14244593117E+03  0.14928711515E+03  0.00000000000E+00 0.  1.
         14    1    4    4    0    0  0.47711950983E+02  0.80443991970E+01 -0.19538312571E+03  0.20128514212E+03  0.00000000000E+00 0. -1.
        -11    1    3    3    0    0 -0.35875809317E+02 -0.13118979857E+02 -0.25925223806E+02  0.46165989170E+02  0.00000000000E+00 0.  1.
         11    1    3    3    0    0 -0.18793776773E+02  0.76945165186E+02 -0.15611176029E+03  0.17505612297E+03  0.00000000000E+00 0. -1.
         21    1    1    2  502  501  0.23956679144E+02 -0.30556761871E+02  0.86237506931E+01  0.39774454712E+02  0.00000000000E+00 0. -1.
<scales pt_clust_5="13000.00000" pt_clust_6="13000.00000" pt_clust_7="13000.00000" pt_clust_8="13000.00000" pt_clust_9="38.82832"></scales>
<clustering>
<clus scale="   38.828">  1  9  2 -1</clus>
<clus scale="   81.990">  5  6 -1 -1</clus>
<clus scale="   93.484">  7  8 -1 -1</clus>
<clus scale="   98.607">  2  5  1 -1</clus>
<clus scale="   98.607">  2  5  1 -1</clus>
</clustering>
</event>
<event>
 9    2  0.6066854E-005  0.9448476E+02  0.7546771E-02  0.1296331E+00
         -3   -1    0    0    0  501 -0.00000000000E+00  0.00000000000E+00  0.97141728057E+02  0.97141728057E+02  0.00000000000E+00 0.  1.
          4   -1    0    0  502    0  0.00000000000E+00 -0.00000000000E+00 -0.23153590939E+03  0.23153590939E+03  0.00000000000E+00 0. -1.
         23    2    1    2    0    0 -0.25655132589E+02  0.32696108214E+02  0.31511452893E+02  0.99694974166E+02  0.84964079999E+02 0.  0.
         24    2    1    2    0    0  0.40621912499E+02 -0.11985102093E+02 -0.17952575840E+03  0.20002652303E+03  0.77377836232E+02 0.  0.
        -13    1    4    4    0    0  0.14600665546E+02  0.24954897830E+02 -0.22519462004E+02  0.36647681087E+02  0.00000000000E+00 0.  1.
         14    1    4    4    0    0  0.26021246953E+02 -0.36939999923E+02 -0.15700629640E+03  0.16337884195E+03  0.00000000000E+00 0. -1.
        -11    1    3    3    0    0 -0.24661137537E+02 -0.68894366712E+01  0.49861485129E+02  0.56051795168E+02  0.00000000000E+00 0. -1.
         11    1    3    3    0    0 -0.99399505128E+00  0.39585544885E+02 -0.18350032236E+02  0.43643178998E+02  0.00000000000E+00 0.  1.
         21    1    1    2  502  501 -0.14966779910E+02 -0.20711006121E+02  0.13620124177E+02  0.28956140247E+02  0.00000000000E+00 0. -1.
<scales pt_clust_5="13000.00000" pt_clust_6="13000.00000" pt_clust_7="13000.00000" pt_clust_8="13000.00000" pt_clust_9="25.55289"></scales>
<clustering>
<clus scale="   25.553">  1  9  2 -1</clus>
<clus scale="   77.378">  5  6 -1 -1</clus>
<clus scale="   84.964">  7  8 -1 -1</clus>
<clus scale="   87.726">  2  5  1 -1</clus>
<clus scale="   87.726">  2  5  1 -1</clus>
</clustering>
</event>
<event>
 9    2  0.6066854E-005  0.1231513E+03  0.7546771E-02  0.1240170E+00
         -1   -1    0    0    0  501 -0.00000000000E+00  0.00000000000E+00  0.46141956055E+03  0.46141956055E+03  0.00000000000E+00 0.  1.
          2   -1    0    0  502    0  0.00000000000E+00 -0.00000000000E+00 -0.12706974785E+03  0.12706974785E+03  0.00000000000E+00 0. -1.
         23    2    1    2    0    0  0.50413686930E+02  0.50621936635E+02  0.31301488372E+03  0.33259854727E+03  0.86829464550E+02 0.  0.
         24    2    1    2    0    0 -0.39391939352E+02 -0.80016071183E+02 -0.84107733658E+02  0.14587417525E+03  0.79062428564E+02 0.  0.
        -11    1    4    4    0    0 -0.28206106551E+02 -0.32749471587E+02  0.58747537363E+01  0.43619090631E+02  0.00000000000E+00 0.  1.
         12    1    4    4    0    0 -0.11185832801E+02 -0.47266599595E+02 -0.89982487394E+02  0.10225508462E+03  0.00000000000E+00 0. -1.
        -11    1    3    3    0    0  0.14654021158E+02 -0.22706129240E+02  0.45500971192E+02  0.52921139638E+02  0.00000000000E+00 0. -1.
         11    1    3    3    0    0  0.35759665773E+02  0.73328065874E+02  0.26751391253E+03  0.27967740763E+03  0.00000000000E+00 0.  1.
         21    1    1    2  502  501 -0.11021747578E+02  0.29394134548E+02  0.10544266263E+03  0.11001658588E+03  0.00000000000E+00 0.  1.
<scales pt_clust_5="13000.00000" pt_clust_6="13000.00000" pt_clust_7="13000.00000" pt_clust_8="13000.00000" pt_clust_9="31.39258"></scales>
<clustering>
<clus scale="   31.393">  1  9  2 -1</clus>
<clus scale="   79.062">  5  6 -1 -1</clus>
<clus scale="   86.829">  7  8 -1 -1</clus>
<clus scale="  117.804">  2  5  1 -1</clus>
<clus scale="  117.804">  2  5  1 -1</clus>
</clustering>
</event>
<event>
 9    2  0.6066854E-005  0.1895001E+03  0.7546771E-02  0.1158953E+00
         -1   -1    0    0    0  501 -0.00000000000E+00  0.00000000000E+00  0.91040569172E+02  0.91040569172E+02  0.00000000000E+00 0.  1.
          2   -1    0    0  502    0  0.00000000000E+00 -0.00000000000E+00 -0.47291253703E+03  0.47291253703E+03  0.00000000000E+00 0. -1.
         24    2    1    2    0    0  0.44113618691E+02  0.16227286379E+03 -0.14069232748E+03  0.23731899079E+03  0.90815630268E+02 0.  0.
         23    2    1    2    0    0 -0.66391190888E+02 -0.15154806501E+03 -0.23429216142E+03  0.30096801134E+03  0.91182897042E+02 0.  0.
        -13    1    3    3    0    0 -0.94468666822E+01  0.46019236496E+02  0.18208141451E+00  0.46979214249E+02  0.00000000000E+00 0.  1.
         14    1    3    3    0    0  0.53560485374E+02  0.11625362729E+03 -0.14087440889E+03  0.19033977654E+03  0.00000000000E+00 0. -1.
        -13    1    4    4    0    0 -0.13821662626E+01 -0.56256008075E+02 -0.24128955076E+02  0.61227896430E+02  0.00000000000E+00 0.  1.
         13    1    4    4    0    0 -0.65009024626E+02 -0.95292056931E+02 -0.21016320634E+03  0.23974011491E+03  0.00000000000E+00 0. -1.
         21    1    1    2  502  501  0.22277572197E+02 -0.10724798781E+02 -0.68874789617E+01  0.25666104074E+02  0.00000000000E+00 0.  1.
<scales pt_clust_5="13000.00000" pt_clust_6="13000.00000" pt_clust_7="13000.00000" pt_clust_8="13000.00000" pt_clust_9="24.72472"></scales>
<clustering>
<clus scale="   24.725">  1  9  2 -1</clus>
<clus scale="   90.816">  5  6 -1 -1</clus>
<clus scale="   91.183">  7  8 -1 -1</clus>
<clus scale="  189.324">  1  5  2 -1</clus>
<clus scale="  189.500">  2  5  1 -1</clus>
</clustering>
</event>
<event>
 9    2  0.6066854E-005  0.9868172E+02  0.7546771E-02  0.1286379E+00
          2   -1    0    0  502    0  0.00000000000E+00  0.00000000000E+00  0.32913272790E+03  0.32913272790E+03  0.00000000000E+00 0. -1.
         -1   -1    0    0    0  501 -0.00000000000E+00 -0.00000000000E+00 -0.43893278205E+02  0.43893278205E+02  0.00000000000E+00 0.  1.
         23    2    1    2    0    0 -0.36183259035E+01  0.48813640016E+02  0.63388395579E+02  0.12142243821E+03  0.91265853821E+02 0.  0.
         24    2    1    2    0    0  0.20214926940E+01 -0.17321265285E+02  0.15122874521E+03  0.17426127637E+03  0.84810060729E+02 0.  0.
        -11    1    4    4    0    0 -0.37092277972E+02  0.96338828779E+01  0.79116227499E+02  0.87909193138E+02  0.00000000000E+00 0.  1.
         12    1    4    4    0    0  0.39113770666E+02 -0.26955148163E+02  0.72112517712E+02  0.86352083235E+02  0.00000000000E+00 0. -1.
        -11    1    3    3    0    0 -0.14582875019E+02 -0.23681047379E+02  0.29845659406E+02  0.40794799107E+02  0.00000000000E+00 0.  1.
         11    1    3    3    0    0  0.10964549116E+02  0.72494687396E+02  0.33542736174E+02  0.80627639107E+02  0.00000000000E+00 0. -1.
         21    1    1    2  502  501  0.15968332095E+01 -0.31492374731E+02  0.70622308907E+02  0.77342291522E+02  0.00000000000E+00 0.  1.
<scales pt_clust_5="13000.00000" pt_clust_6="13000.00000" pt_clust_7="13000.00000" pt_clust_8="13000.00000" pt_clust_9="31.53283"></scales>
<clustering>
<clus scale="   31.533">  1  9  2 -1</clus>
<clus scale="   84.810">  5  6 -1 -1</clus>
<clus scale="   91.266">  7  8 -1 -1</clus>
<clus scale="   92.744">  1  5  2 -1</clus>
<clus scale="   31.533">  1  5  2 -1</clus>
</clustering>
</event>
<event>
 9    2  0.6066854E-005  0.1094133E+03  0.7546771E-02  0.1265702E+00
          2   -1    0    0  502    0  0.00000000000E+00  0.00000000000E+00  0.46716646080E+03  0.46716646080E+03  0.00000000000E+00 0. -1.
         -1   -1    0    0    0  501 -0.00000000000E+00 -0.00000000000E+00 -0.49534916529E+02  0.49534916529E+02  0.00000000000E+00 0.  1.
         23    2    1    2    0    0  0.53179799910E+02  0.11471312473E+02  0.44205890297E+02  0.11550424393E+03  0.91800803374E+02 0.  0.
         24    2    1    2    0    0 -0.58584246960E+02  0.20563724574E+02  0.33750189934E+03  0.35276194171E+03  0.81721935277E+02 0.  0.
        -11    1    4    4    0    0 -0.41775692628E+02  0.95258205099E+01  0.55849367957E+02  0.70392482923E+02  0.00000000000E+00 0.  1.
         12    1    4    4    0    0 -0.16808554332E+02  0.11037904064E+02  0.28165253138E+03  0.28236945879E+03  0.00000000000E+00 0. -1.
        -11    1    3    3    0    0  0.59301575558E+02 -0.16001667083E+02  0.57714743622E+02  0.84283579922E+02  0.00000000000E+00 0. -1.
         11    1    3    3    0    0 -0.61217756483E+01  0.27472979556E+02 -0.13508853325E+02  0.31220664006E+02  0.00000000000E+00 0.  1.
         21    1    1    2  502  501  0.54044470499E+01 -0.32035037047E+02  0.35923754636E+02  0.48435191686E+02  0.00000000000E+00 0. -1.
<scales pt_clust_5="13000.00000" pt_clust_6="13000.00000" pt_clust_7="13000.00000" pt_clust_8="13000.00000" pt_clust_9="32.48772"></scales>
<clustering>
<clus scale="   32.488">  2  9  1 -1</clus>
<clus scale="   81.722">  5  6 -1 -1</clus>
<clus scale="   91.801">  7  8 -1 -1</clus>
<clus scale="  101.106">  1  5  2 -1</clus>
<clus scale="  101.106">  1  5  2 -1</clus>
</clustering>
</event>
<event>
 9    2  0.6066854E-005  0.9127932E+02  0.7546771E-02  0.1307627E+00
          2   -1    0    0  502    0  0.00000000000E+00  0.00000000000E+00  0.56056087324E+03  0.56056087324E+03  0.00000000000E+00 0. -1.
         -1   -1    0    0    0  501 -0.00000000000E+00 -0.00000000000E+00 -0.32347395286E+02  0.32347395286E+02  0.00000000000E+00 0.  1.
         23    2    1    2    0    0  0.12945624963E+02 -0.27872902896E+01  0.78735333944E+02  0.12126665067E+03  0.91274254649E+02 0.  0.
         24    2    1    2    0    0  0.39068331218E+02 -0.58802269686E+01  0.31601704479E+03  0.32814094712E+03  0.79049332768E+02 0.  0.
        -13    1    4    4    0    0  0.49985266228E+02 -0.15897448046E+02  0.30550302751E+03  0.30997315289E+03  0.00000000000E+00 0.  1.
         14    1    4    4    0    0 -0.10916935011E+02  0.10017221078E+02  0.10514017280E+02  0.18167794239E+02  0.00000000000E+00 0. -1.
        -11    1    3    3    0    0 -0.30621281118E+02  0.12262440590E+02  0.36828142870E+01  0.33190261035E+02  0.00000000000E+00 0.  1.
         11    1    3    3    0    0  0.43566906080E+02 -0.15049730880E+02  0.75052519657E+02  0.88076389639E+02  0.00000000000E+00 0. -1.
         21    1    1    2  502  501 -0.52013956180E+02  0.86675172582E+01  0.13346109922E+03  0.14350067072E+03  0.00000000000E+00 0. -1.
<scales pt_clust_5="13000.00000" pt_clust_6="13000.00000" pt_clust_7="13000.00000" pt_clust_8="13000.00000" pt_clust_9="52.73118"></scales>
<clustering>
<clus scale="   52.731">  1  9  2 -1</clus>
<clus scale="   79.049">  5  6 -1 -1</clus>
<clus scale="   79.055">  1  5  2 -1</clus>
<clus scale="   91.274">  7  8 -1 -1</clus>
<clus scale="   52.731">  1  5  2 -1</clus>
</clustering>
</event>
